 Gaussian 16, Revision A.03,
 Gaussian 16:  ES64L-G16RevA.03 25-Dec-2016

 -----------------------------
 # opt freq b3lyp/6-31g(2df,p)
 -----------------------------

 -------------------
 Title Card Required
 -------------------
 Symbolic Z-matrix:
 Charge =  0 Multiplicity = 1

 SCF Done:  E(RB3LYP) =  -916.419301129     A.U. after   15 cycles
 SCF Done:  E(RB3LYP) =  -916.245022355     A.U. after   29 cycles
 SCF Done:  E(RB3LYP) =  -916.425717902     A.U. after   15 cycles
 SCF Done:  E(RB3LYP) =  -916.303103373     A.U. after   19 cycles
 SCF Done:  E(RB3LYP) =  -916.430495848     A.U. after   15 cycles
 SCF Done:  E(RB3LYP) =  -916.376685984     A.U. after   16 cycles
 SCF Done:  E(RB3LYP) =  -916.436117614     A.U. after   15 cycles
 SCF Done:  E(RB3LYP) =  -916.404281518     A.U. after   15 cycles
 SCF Done:  E(RB3LYP) =  -916.442697290     A.U. after   17 cycles
 SCF Done:  E(RB3LYP) =  -916.419301129     A.U. after   15 cycles
 SCF Done:  E(RB3LYP) =  -916.605398111     A.U. after   11 cycles
 SCF Done:  E(RB3LYP) =  -916.605481343     A.U. after    8 cycles
 SCF Done:  E(RB3LYP) =  -916.605466498     A.U. after   10 cycles
 SCF Done:  E(RB3LYP) =  -916.605481658     A.U. after   10 cycles
 SCF Done:  E(RB3LYP) =  -916.605477198     A.U. after    9 cycles
 Optimization completed.
    -- Stationary point found.
 Normal termination of Gaussian 16 at Mon May 29 00:28:51 2023.

 ----------------------------------------------------------------------
 #N Geom=AllCheck Guess=TCheck SCRF=Check GenChk RB3LYP/6-31G(2df,p) Fr
 eq
 ----------------------------------------------------------------------

 Structure from the checkpoint file:  "[CH]C1SCdCC2dCC2dCNdCCdC1C.chk"
 -------------------
 Title Card Required
 -------------------
 Charge =  0 Multiplicity = 1

 SCF Done:  E(RB3LYP) =  -916.605481658     A.U. after    1 cycles
 SCF Done:  E(RB3LYP) =  -916.605480134     A.U. after    8 cycles
 SCF Done:  E(RB3LYP) =  -916.605481458     A.U. after    8 cycles
 SCF Done:  E(RB3LYP) =  -916.605481653     A.U. after    7 cycles
 Optimization completed.
 Normal termination of Gaussian 16 at Mon May 29 00:53:16 2023.

 ----------------------------------------------------------------------
 #N Geom=AllCheck Guess=TCheck SCRF=Check GenChk RB3LYP/6-31G(2df,p) Fr
 eq
 ----------------------------------------------------------------------

 Structure from the checkpoint file:  "[CH]C1SCdCC2dCC2dCNdCCdC1C.chk"
 -------------------
 Title Card Required
 -------------------
 Charge =  0 Multiplicity = 1

                         Standard orientation:
 ---------------------------------------------------------------------
 Center     Atomic      Atomic             Coordinates (Angstroms)
 Number     Number       Type             X           Y           Z
 ---------------------------------------------------------------------
      1          6           0        2.638674   -0.470845    1.581199
      2          6           0        1.937034   -0.374873    0.452835
      3         16           0        1.033049   -1.892376   -0.078820
      4          6           0       -0.609780   -1.394697    0.225563
      5          6           0       -1.802267   -1.882416   -0.204832
      6          6           0       -2.822349   -0.859472   -0.214300
      7          6           0       -3.497435    0.027743   -0.976828
      8          6           0       -2.852807    0.505875    0.190960
      9          6           0       -2.064856    1.327930    0.948283
     10          7           0       -1.157236    2.102517    0.231693
     11          6           0        0.070318    1.913460    0.602141
     12          6           0        1.152293    1.870696   -0.369767
     13          6           0        1.976314    0.801946   -0.474770
     14          6           0        2.972095    0.671369   -1.601116
     15          1           0        2.619743   -1.358620    2.202926
     16          1           0        3.257430    0.358428    1.912281
     17          1           0       -0.641013   -0.461312    0.766521
     18          1           0       -1.916123   -2.789536   -0.787154
     19          1           0       -3.799528    0.222328   -1.995854
     20          1           0       -1.696864    0.877273    1.877851
     21          1           0        0.278929    1.380509    1.541033
     22          1           0        1.182221    2.626510   -1.151499
     23          1           0        2.907313    1.520964   -2.285786
     24          1           0        2.796474   -0.247145   -2.176232
     25          1           0        3.999872    0.610715   -1.221016
 ---------------------------------------------------------------------

 SCF Done:  E(RB3LYP) =  -916.605481653     A.U. after    1 cycles
                           ! Non-Optimized Parameters !
 Normal termination of Gaussian 16 at Mon May 29 01:54:09 2023.

 The electronic state is 1-A.
 Alpha  occ. eigenvalues --  -88.90812 -14.32321 -10.24612 -10.24117 -10.23818
 Alpha  occ. eigenvalues --  -10.22921 -10.22503 -10.21984 -10.20426 -10.20028
 Alpha  occ. eigenvalues --  -10.19602 -10.18821 -10.18682 -10.18500  -7.96926
 Alpha  occ. eigenvalues --   -5.93366  -5.93033  -5.92580  -0.93263  -0.90763
 Alpha  occ. eigenvalues --   -0.85231  -0.81548  -0.77513  -0.72781  -0.72632
 Alpha  occ. eigenvalues --   -0.68380  -0.62136  -0.59398  -0.58469  -0.55980
 Alpha  occ. eigenvalues --   -0.53609  -0.51978  -0.48905  -0.47211  -0.46823
 Alpha  occ. eigenvalues --   -0.45224  -0.44320  -0.41832  -0.41576  -0.40450
 Alpha  occ. eigenvalues --   -0.40038  -0.38478  -0.37243  -0.35714  -0.35315
 Alpha  occ. eigenvalues --   -0.33317  -0.32925  -0.32094  -0.28587  -0.25712
 Alpha  occ. eigenvalues --   -0.24011  -0.23606  -0.16183
 Alpha virt. eigenvalues --   -0.05930  -0.02993  -0.02588  -0.00071   0.01197
 Alpha virt. eigenvalues --    0.02777   0.05577   0.08424   0.10752   0.11160
 Alpha virt. eigenvalues --    0.12552   0.13348   0.13814   0.14109   0.16090

 Mulliken charges:
               1
     1  C   -0.339207
     2  C    0.127385
     3  S   -0.098068
     4  C    0.003585
     5  C   -0.255622
     6  C    0.180466
     7  C   -0.261267
     8  C    0.271715
     9  C   -0.302128
    10  N   -0.146632
    11  C   -0.097000
    12  C   -0.148443
    13  C    0.207574
    14  C   -0.470383
    15  H    0.139346
    16  H    0.130828
    17  H    0.145059
    18  H    0.123662
    19  H    0.158569
    20  H    0.072952
    21  H    0.069814
    22  H    0.100438
    23  H    0.125325
    24  H    0.136296
    25  H    0.125736
 Sum of Mulliken charges =  -0.00000

 Dipole moment (field-independent basis, Debye):
    X=              1.1024    Y=             -2.2569    Z=             -0.6058  Tot=              2.5838
 Quadrupole moment (field-independent basis, Debye-Ang):
   XX=            -83.1587   YY=            -94.1320   ZZ=            -84.4551
   XY=              6.9958   XZ=              5.7718   YZ=             -0.9922

  Exact polarizability: 232.383   1.289 145.639  18.350   2.838 121.597
 Approx polarizability: 436.282  -3.099 257.589  45.894  13.368 212.552

                      1                      2                      3
                      A                      A                      A
 Frequencies --     60.7231                74.8396               122.8150
 Red. masses --      4.2356                 4.0898                 3.2130
 Frc consts  --      0.0092                 0.0135                 0.0286
 IR Inten    --      1.1094                 0.5980                 3.1813

                      4                      5                      6
                      A                      A                      A
 Frequencies --    138.5452               174.3669               175.9348
 Red. masses --      4.0983                 2.5106                 4.2007
 Frc consts  --      0.0463                 0.0450                 0.0766
 IR Inten    --      6.8651                 3.2515                 1.8105

                      7                      8                      9
                      A                      A                      A
 Frequencies --    201.5139               206.9369               218.1691
 Red. masses --      1.1896                 6.2898                 3.2185
 Frc consts  --      0.0285                 0.1587                 0.0903
 IR Inten    --      0.6496                 0.5804                 0.9875

                     10                     11                     12
                      A                      A                      A
 Frequencies --    274.6770               295.0867               322.0090
 Red. masses --      3.3123                 3.4020                 3.8416
 Frc consts  --      0.1472                 0.1745                 0.2347
 IR Inten    --     12.6621                 5.7207                13.0362

                     13                     14                     15
                      A                      A                      A
 Frequencies --    355.3674               376.8810               397.3664
 Red. masses --      3.5437                 4.0346                 4.9107
 Frc consts  --      0.2637                 0.3376                 0.4569
 IR Inten    --     33.2876                41.5627                 4.2988

                     16                     17                     18
                      A                      A                      A
 Frequencies --    415.9447               458.6721               505.1462
 Red. masses --      3.5741                 6.1833                 5.5234
 Frc consts  --      0.3643                 0.7664                 0.8304
 IR Inten    --      1.0286                 1.2049                 4.0259

                     19                     20                     21
                      A                      A                      A
 Frequencies --    556.4170               583.8977               613.0543
 Red. masses --      3.4211                 7.5501                 4.1001
 Frc consts  --      0.6241                 1.5166                 0.9079
 IR Inten    --     25.0498                17.8822                11.7938

                     22                     23                     24
                      A                      A                      A
 Frequencies --    634.9431               662.2900               701.0865
 Red. masses --      3.8395                 4.7916                 1.8482
 Frc consts  --      0.9120                 1.2383                 0.5352
 IR Inten    --     14.5919                 1.9037               189.0417

                     25                     26                     27
                      A                      A                      A
 Frequencies --    735.0383               811.5056               813.7420
 Red. masses --      1.1005                 2.3106                 2.5241
 Frc consts  --      0.3503                 0.8965                 0.9848
 IR Inten    --      0.2691                 3.4219                10.3891

                     28                     29                     30
                      A                      A                      A
 Frequencies --    836.1610               873.1986               883.9074
 Red. masses --      2.4861                 1.8111                 1.6338
 Frc consts  --      1.0241                 0.8136                 0.7521
 IR Inten    --     31.4691                30.3915                14.5234

                     31                     32                     33
                      A                      A                      A
 Frequencies --    907.0046               927.3178               972.7307
 Red. masses --      1.9892                 3.3072                 1.2780
 Frc consts  --      0.9642                 1.6756                 0.7125
 IR Inten    --     72.8376                46.8101                25.7649

                     34                     35                     36
                      A                      A                      A
 Frequencies --    975.9474               978.2132              1026.8714
 Red. masses --      1.2626                 1.4344                 1.5256
 Frc consts  --      0.7086                 0.8087                 0.9478
 IR Inten    --     34.1325                67.8575                15.2226

                     37                     38                     39
                      A                      A                      A
 Frequencies --   1059.0929              1061.7267              1098.3867
 Red. masses --      1.5296                 1.4712                 2.3011
 Frc consts  --      1.0109                 0.9771                 1.6356
 IR Inten    --      5.4838                10.6563                 6.6359

                     40                     41                     42
                      A                      A                      A
 Frequencies --   1118.1563              1131.8147              1162.9603
 Red. masses --      6.0693                 3.3770                 3.6543
 Frc consts  --      4.4709                 2.5488                 2.9120
 IR Inten    --      6.7011                47.8982                12.1455

                     43                     44                     45
                      A                      A                      A
 Frequencies --   1196.0694              1252.0087              1320.7836
 Red. masses --      2.2134                 1.2521                 1.6255
 Frc consts  --      1.8656                 1.1564                 1.6707
 IR Inten    --     18.4713                 6.1589                 3.5856

                     46                     47                     48
                      A                      A                      A
 Frequencies --   1332.7032              1372.5068              1405.9169
 Red. masses --      1.2860                 1.2328                 1.2443
 Frc consts  --      1.3457                 1.3683                 1.4491
 IR Inten    --      8.5783                13.0360                 5.1339

                     49                     50                     51
                      A                      A                      A
 Frequencies --   1417.4114              1434.1358              1473.6335
 Red. masses --      1.4230                 1.2188                 1.0516
 Frc consts  --      1.6844                 1.4770                 1.3455
 IR Inten    --     21.7055                 6.4010                 4.3982

                     52                     53                     54
                      A                      A                      A
 Frequencies --   1485.9130              1488.4410              1543.2598
 Red. masses --      2.9724                 1.3647                 5.0535
 Frc consts  --      3.8667                 1.7814                 7.0912
 IR Inten    --    119.0631                23.9330               142.1531

                     55                     56                     57
                      A                      A                      A
 Frequencies --   1569.4727              1637.6086              1678.3049
 Red. masses --      5.5289                 5.7177                 5.7302
 Frc consts  --      8.0242                 9.0343                 9.5095
 IR Inten    --     23.7524                21.7835                17.0382

                     58                     59                     60
                      A                      A                      A
 Frequencies --   1779.9686              2991.1151              3010.5700
 Red. masses --      8.8593                 1.0816                 1.0777
 Frc consts  --     16.5377                 5.7013                 5.7551
 IR Inten    --    265.9412                20.4861                71.9757

                     61                     62                     63
                      A                      A                      A
 Frequencies --   3012.2025              3059.1730              3113.0345
 Red. masses --      1.0400                 1.0990                 1.0991
 Frc consts  --      5.5599                 6.0600                 6.2756
 IR Inten    --     25.8604                15.4625                15.4380

                     64                     65                     66
                      A                      A                      A
 Frequencies --   3144.6596              3153.7346              3193.6380
 Red. masses --      1.0611                 1.0883                 1.0912
 Frc consts  --      6.1826                 6.3775                 6.5575
 IR Inten    --      3.1080                22.5031                 7.3104

                     67                     68                     69
                      A                      A                      A
 Frequencies --   3226.9036              3236.2545              3246.8969
 Red. masses --      1.1078                 1.1152                 1.0851
 Frc consts  --      6.7964                 6.8816                 6.7403
 IR Inten    --      0.1609                 2.0750                 6.9893

 - Thermochemistry -
 -------------------
 Temperature   298.150 Kelvin.  Pressure   1.00000 Atm.
 Atom     1 has atomic number  6 and mass  12.00000

 Molecular mass:   201.06122 amu.
 Principal axes and moments of inertia in atomic units:
                           1         2         3
     Eigenvalues --  1895.671253527.389284496.12599
           X            0.99973   0.02310  -0.00183
           Y           -0.02312   0.99963  -0.01417
           Z            0.00150   0.01421   0.99990
 This molecule is an asymmetric top.
 Rotational symmetry number  1.
 Warning -- assumption of classical behavior for rotation
           may cause significant error
 Rotational temperatures (Kelvin)      0.04569     0.02455     0.01926
 Rotational constants (GHZ):           0.95203     0.51164     0.40140
 Zero-point vibrational energy     500498.3 (Joules/Mol)
                                  119.62196 (Kcal/Mol)
 Warning -- explicit consideration of  21 degrees of freedom as
           vibrations may cause significant error
 Vibrational temperatures:     87.37   107.68   176.70   199.34   250.88
          (Kelvin)            253.13   289.93   297.74   313.90   395.20
                              424.56   463.30   511.29   542.25   571.72
                              598.45   659.93   726.79   800.56   840.10
                              882.05   913.54   952.89  1008.71  1057.56
                             1167.58  1170.79  1203.05  1256.34  1271.75
                             1304.98  1334.20  1399.54  1404.17  1407.43
                             1477.44  1523.80  1527.59  1580.33  1608.78
                             1628.43  1673.24  1720.88  1801.36  1900.31
                             1917.46  1974.73  2022.80  2039.34  2063.40
                             2120.23  2137.90  2141.53  2220.41  2258.12
                             2356.15  2414.71  2560.98  4303.55  4331.54
                             4333.89  4401.47  4478.96  4524.46  4537.52
                             4594.93  4642.79  4656.25  4671.56

 Zero-point correction=                           0.190630 (Hartree/Particle)
 Thermal correction to Energy=                    0.204139
 Thermal correction to Enthalpy=                  0.205083
 Thermal correction to Gibbs Free Energy=         0.151128
 Sum of electronic and zero-point Energies=           -916.414852
 Sum of electronic and thermal Energies=              -916.401343
 Sum of electronic and thermal Enthalpies=            -916.400399
 Sum of electronic and thermal Free Energies=         -916.454353

                     E (Thermal)             CV                S
                      KCal/Mol        Cal/Mol-Kelvin    Cal/Mol-Kelvin
 Total                  128.099             51.864            113.557
 Electronic               0.000              0.000              0.000
 Translational            0.889              2.981             41.800
 Rotational               0.889              2.981             31.775
 Vibrational            126.322             45.903             39.982
 Vibration     1          0.597              1.973              4.434
 Vibration     2          0.599              1.966              4.022
 Vibration     3          0.610              1.930              3.056
 Vibration     4          0.614              1.915              2.824
 Vibration     5          0.627              1.874              2.388
 Vibration     6          0.628              1.872              2.371
 Vibration     7          0.638              1.838              2.119
 Vibration     8          0.641              1.830              2.071
 Vibration     9          0.646              1.813              1.974
 Vibration    10          0.677              1.720              1.567
 Vibration    11          0.689              1.683              1.445
 Vibration    12          0.707              1.631              1.300
 Vibration    13          0.731              1.564              1.142
 Vibration    14          0.747              1.519              1.052
 Vibration    15          0.764              1.476              0.972
 Vibration    16          0.779              1.436              0.906
 Vibration    17          0.817              1.342              0.770
 Vibration    18          0.860              1.239              0.645
 Vibration    19          0.912              1.126              0.531
 Vibration    20          0.941              1.066              0.478
 Vibration    21          0.972              1.004              0.428

 Optimization completed.
    -- Stationary point found.
 Normal termination of Gaussian 16 at Mon May 29 02:21:18 2023.
