 Gaussian 16, Revision A.03,
 Gaussian 16:  ES64L-G16RevA.03 25-Dec-2016

 -----------------------------
 # opt freq b3lyp/6-31g(2df,p)
 -----------------------------

 -------------------
 Title Card Required
 -------------------
 Symbolic Z-matrix:
 Charge =  0 Multiplicity = 1

 SCF Done:  E(RB3LYP) =  -378.610589628     A.U. after   27 cycles
 SCF Done:  E(RB3LYP) =  -378.657376830     A.U. after   21 cycles
 SCF Done:  E(RB3LYP) =  -378.694661694     A.U. after   18 cycles
 SCF Done:  E(RB3LYP) =  -378.714628767     A.U. after   15 cycles
 SCF Done:  E(RB3LYP) =  -378.736593097     A.U. after   16 cycles
 SCF Done:  E(RB3LYP) =  -378.737927016     A.U. after   11 cycles
 SCF Done:  E(RB3LYP) =  -378.741056113     A.U. after   15 cycles
 SCF Done:  E(RB3LYP) =  -378.731934092     A.U. after   14 cycles
 SCF Done:  E(RB3LYP) =  -378.742911138     A.U. after   15 cycles
 SCF Done:  E(RB3LYP) =  -378.746696345     A.U. after   14 cycles
 SCF Done:  E(RB3LYP) =  -378.750049700     A.U. after   12 cycles
 SCF Done:  E(RB3LYP) =  -378.750114038     A.U. after   12 cycles
 SCF Done:  E(RB3LYP) =  -378.750131721     A.U. after   11 cycles
 SCF Done:  E(RB3LYP) =  -378.750146433     A.U. after   13 cycles
 SCF Done:  E(RB3LYP) =  -378.750147191     A.U. after   11 cycles
 SCF Done:  E(RB3LYP) =  -378.750150558     A.U. after   11 cycles
 SCF Done:  E(RB3LYP) =  -378.750150787     A.U. after    9 cycles
 SCF Done:  E(RB3LYP) =  -378.750151033     A.U. after    9 cycles
 SCF Done:  E(RB3LYP) =  -378.750151115     A.U. after    8 cycles
 Optimization completed.
    -- Stationary point found.
 Normal termination of Gaussian 16 at Mon May 29 06:24:20 2023.

 ----------------------------------------------------------------------
 #N Geom=AllCheck Guess=TCheck SCRF=Check GenChk RB3LYP/6-31G(2df,p) Fr
 eq
 ----------------------------------------------------------------------

 Structure from the checkpoint file:  "[CH]NdCN1CqdOrC1C.chk"
 -------------------
 Title Card Required
 -------------------
 Charge =  0 Multiplicity = 1

                         Standard orientation:
 ---------------------------------------------------------------------
 Center     Atomic      Atomic             Coordinates (Angstroms)
 Number     Number       Type             X           Y           Z
 ---------------------------------------------------------------------
      1          6           0       -3.072330    0.245824    0.033757
      2          7           0       -2.051498   -0.444703    0.073581
      3          6           0       -0.917023   -0.984036    0.270773
      4          7           0        0.226101   -0.529344   -0.379968
      5          6           0        1.553736   -0.446076   -0.163455
      6          8           0        2.505768   -1.049057    0.239942
      7          6           0        0.880951    0.813087   -0.591819
      8          6           0        0.658253    1.927475    0.407463
      9          1           0       -3.787862   -0.037764   -0.755955
     10          1           0       -0.816209   -1.853705    0.908454
     11          1           0        0.888527    1.114933   -1.638979
     12          1           0        0.715130    1.558959    1.435487
     13          1           0       -0.318575    2.397582    0.260410
     14          1           0        1.429112    2.693138    0.275441
 ---------------------------------------------------------------------

 SCF Done:  E(RB3LYP) =  -378.750151115     A.U. after    1 cycles

 The electronic state is 1-A.
 Alpha  occ. eigenvalues --  -19.14094 -14.40272 -14.38403 -10.30516 -10.27836
 Alpha  occ. eigenvalues --  -10.25480 -10.22595 -10.20100  -1.06612  -1.01171
 Alpha  occ. eigenvalues --   -0.97182  -0.80852  -0.75384  -0.68266  -0.58848
 Alpha  occ. eigenvalues --   -0.55474  -0.50720  -0.50463  -0.48074  -0.44788
 Alpha  occ. eigenvalues --   -0.43544  -0.41508  -0.39968  -0.37925  -0.37600
 Alpha  occ. eigenvalues --   -0.35187  -0.31484  -0.26322  -0.20105
 Alpha virt. eigenvalues --   -0.02970  -0.02400   0.02323   0.08612   0.09793
 Alpha virt. eigenvalues --    0.12676   0.13453   0.14187   0.15270   0.16213
 Alpha virt. eigenvalues --    0.20689   0.22054   0.23267   0.24339   0.28607

 Mulliken charges:
               1
     1  C   -0.295564
     2  N    0.051488
     3  C    0.002425
     4  N   -0.137658
     5  C    0.421574
     6  O   -0.340715
     7  C   -0.148551
     8  C   -0.412308
     9  H    0.146009
    10  H    0.160922
    11  H    0.123329
    12  H    0.136605
    13  H    0.150361
    14  H    0.142082
 Sum of Mulliken charges =  -0.00000

 Dipole moment (field-independent basis, Debye):
    X=             -1.4675    Y=              0.8606    Z=             -0.9197  Tot=              1.9339
 Quadrupole moment (field-independent basis, Debye-Ang):
   XX=            -55.4352   YY=            -44.4153   ZZ=            -44.4699
   XY=              8.2334   XZ=              1.3383   YZ=             -1.8083

  Exact polarizability: 122.633 -11.691  65.246   3.824  -4.317  47.137
 Approx polarizability: 221.512 -45.995 106.791   9.422  -9.338  71.570

                      1                      2                      3
                      A                      A                      A
 Frequencies --     55.2900                84.8791               109.9530
 Red. masses --      3.7736                 5.1240                 3.4101
 Frc consts  --      0.0068                 0.0217                 0.0243
 IR Inten    --      3.8404                 5.2273                 8.8325

                      4                      5                      6
                      A                      A                      A
 Frequencies --    182.2552               205.4033               223.9352
 Red. masses --      1.0781                 3.7408                 5.2122
 Frc consts  --      0.0211                 0.0930                 0.1540
 IR Inten    --      0.1984                 0.9821                 2.7769

                      7                      8                      9
                      A                      A                      A
 Frequencies --    405.4858               421.7050               437.6113
 Red. masses --      2.5053                 4.2306                 4.9827
 Frc consts  --      0.2427                 0.4433                 0.5622
 IR Inten    --     24.9325                11.9955                 5.2269

                     10                     11                     12
                      A                      A                      A
 Frequencies --    621.9610               635.1308               652.8710
 Red. masses --      4.5740                 2.2121                 4.3283
 Frc consts  --      1.0425                 0.5258                 1.0870
 IR Inten    --      6.1570                11.8441                24.8250

                     13                     14                     15
                      A                      A                      A
 Frequencies --    766.2250               843.9334               901.3957
 Red. masses --      4.4700                 3.8315                 1.1349
 Frc consts  --      1.5462                 1.6078                 0.5433
 IR Inten    --     24.6471                47.9052                21.8158

                     16                     17                     18
                      A                      A                      A
 Frequencies --    979.9684              1013.1049              1019.7753
 Red. masses --      2.9359                 1.5574                 1.2845
 Frc consts  --      1.6612                 0.9418                 0.7870
 IR Inten    --    160.4112               297.1019                21.7916

                     19                     20                     21
                      A                      A                      A
 Frequencies --   1056.0829              1103.0957              1205.4549
 Red. masses --      1.9675                 2.0424                 2.4083
 Frc consts  --      1.2929                 1.4642                 2.0619
 IR Inten    --      2.7295                 2.0524                16.3175

                     22                     23                     24
                      A                      A                      A
 Frequencies --   1212.1205              1337.5151              1363.5064
 Red. masses --      2.2115                 1.6869                 1.9030
 Frc consts  --      1.9144                 1.7780                 2.0846
 IR Inten    --     19.1521                48.7971                86.6257

                     25                     26                     27
                      A                      A                      A
 Frequencies --   1410.3787              1469.5485              1482.3187
 Red. masses --      1.2497                 2.8227                 1.0468
 Frc consts  --      1.4647                 3.5916                 1.3552
 IR Inten    --      6.6702               187.8863                 3.0721

                     28                     29                     30
                      A                      A                      A
 Frequencies --   1493.1023              1950.1481              1981.2329
 Red. masses --      1.0527                10.5072                10.5832
 Frc consts  --      1.3827                23.5435                24.4759
 IR Inten    --      3.4999               838.5409               175.8184

                     31                     32                     33
                      A                      A                      A
 Frequencies --   3002.4996              3042.1407              3104.8625
 Red. masses --      1.0896                 1.0345                 1.0900
 Frc consts  --      5.7874                 5.6408                 6.1909
 IR Inten    --     64.3887                 8.9756                10.5317

                     34                     35                     36
                      A                      A                      A
 Frequencies --   3114.7363              3125.8998              3199.1265
 Red. masses --      1.1016                 1.1000                 1.0880
 Frc consts  --      6.2967                 6.3328                 6.5607
 IR Inten    --      8.4988                22.3434                11.5517

 - Thermochemistry -
 -------------------
 Temperature   298.150 Kelvin.  Pressure   1.00000 Atm.
 Atom     1 has atomic number  6 and mass  12.00000

 Molecular mass:   110.04801 amu.
 Principal axes and moments of inertia in atomic units:
                           1         2         3
     Eigenvalues --   457.329251294.323111632.02268
           X            0.99958   0.02849   0.00607
           Y           -0.02850   0.99959   0.00195
           Z           -0.00601  -0.00212   0.99998
 This molecule is an asymmetric top.
 Rotational symmetry number  1.
 Warning -- assumption of classical behavior for rotation
           may cause significant error
 Rotational temperatures (Kelvin)      0.18939     0.06692     0.05307
 Rotational constants (GHZ):           3.94626     1.39435     1.10583
 Zero-point vibrational energy     270443.7 (Joules/Mol)
                                   64.63759 (Kcal/Mol)
 Warning -- explicit consideration of   9 degrees of freedom as
           vibrations may cause significant error
 Vibrational temperatures:     79.55   122.12   158.20   262.22   295.53
          (Kelvin)            322.19   583.40   606.74   629.62   894.86
                              913.81   939.34  1102.43  1214.23  1296.91
                             1409.96  1457.63  1467.23  1519.47  1587.11
                             1734.38  1743.97  1924.39  1961.78  2029.22
                             2114.35  2132.73  2148.24  2805.83  2850.55
                             4319.93  4376.96  4467.20  4481.41  4497.47
                             4602.83

 Zero-point correction=                           0.103007 (Hartree/Particle)
 Thermal correction to Energy=                    0.111546
 Thermal correction to Enthalpy=                  0.112490
 Thermal correction to Gibbs Free Energy=         0.069099
 Sum of electronic and zero-point Energies=           -378.647145
 Sum of electronic and thermal Energies=              -378.638605
 Sum of electronic and thermal Enthalpies=            -378.637661
 Sum of electronic and thermal Free Energies=         -378.681052

                     E (Thermal)             CV                S
                      KCal/Mol        Cal/Mol-Kelvin    Cal/Mol-Kelvin
 Total                   69.996             28.996             91.324
 Electronic               0.000              0.000              0.000
 Translational            0.889              2.981             40.003
 Rotational               0.889              2.981             28.359
 Vibrational             68.219             23.034             22.961
 Vibration     1          0.596              1.975              4.619
 Vibration     2          0.601              1.960              3.775
 Vibration     3          0.606              1.941              3.270
 Vibration     4          0.630              1.864              2.305
 Vibration     5          0.640              1.832              2.084
 Vibration     6          0.649              1.805              1.927
 Vibration     7          0.770              1.458              0.943
 Vibration     8          0.784              1.423              0.886
 Vibration     9          0.798              1.388              0.834

 Optimization completed.
    -- Stationary point found.
 Normal termination of Gaussian 16 at Mon May 29 06:45:12 2023.
