 Gaussian 16, Revision A.03,
 Gaussian 16:  ES64L-G16RevA.03 25-Dec-2016

 -----------------------------
 # opt freq b3lyp/6-31g(2df,p)
 -----------------------------

 -------------------
 Title Card Required
 -------------------
 Symbolic Z-matrix:
 Charge =  0 Multiplicity = 1

 SCF Done:  E(RB3LYP) =  -703.145153995     A.U. after   12 cycles
 SCF Done:  E(RB3LYP) =  -703.205456005     A.U. after   11 cycles
 SCF Done:  E(RB3LYP) =  -703.232266565     A.U. after   13 cycles
 SCF Done:  E(RB3LYP) =  -703.250641370     A.U. after   10 cycles
 SCF Done:  E(RB3LYP) =  -703.253711632     A.U. after   10 cycles
 SCF Done:  E(RB3LYP) =  -703.255452679     A.U. after    9 cycles
 SCF Done:  E(RB3LYP) =  -703.256325639     A.U. after   10 cycles
 SCF Done:  E(RB3LYP) =  -703.256840989     A.U. after   10 cycles
 SCF Done:  E(RB3LYP) =  -703.257170371     A.U. after   10 cycles
 SCF Done:  E(RB3LYP) =  -703.257568757     A.U. after   12 cycles
 SCF Done:  E(RB3LYP) =  -703.258091404     A.U. after    6 cycles
 SCF Done:  E(RB3LYP) =  -703.258091403     A.U. after    7 cycles
 SCF Done:  E(RB3LYP) =  -703.258091392     A.U. after    7 cycles
 SCF Done:  E(RB3LYP) =  -703.258091371     A.U. after    7 cycles
 SCF Done:  E(RB3LYP) =  -703.258091410     A.U. after    7 cycles
 SCF Done:  E(RB3LYP) =  -703.258091434     A.U. after    8 cycles
 SCF Done:  E(RB3LYP) =  -703.258091554     A.U. after    8 cycles
 SCF Done:  E(RB3LYP) =  -703.258091588     A.U. after    8 cycles
 SCF Done:  E(RB3LYP) =  -703.258091692     A.U. after    6 cycles
 Optimization completed on the basis of negligible forces.
    -- Stationary point found.
 Normal termination of Gaussian 16 at Mon May 22 20:12:36 2023.

 ----------------------------------------------------------------------
 #N Geom=AllCheck Guess=TCheck SCRF=Check GenChk RB3LYP/6-31G(2df,p) Fr
 eq
 ----------------------------------------------------------------------

 Structure from the checkpoint file:  "C.CCCCCCqCrqCCOCCrCOC.chk"
 -------------------
 Title Card Required
 -------------------
 Charge =  0 Multiplicity = 1

                         Standard orientation:
 ---------------------------------------------------------------------
 Center     Atomic      Atomic             Coordinates (Angstroms)
 Number     Number       Type             X           Y           Z
 ---------------------------------------------------------------------
      1          6           0        8.442297    0.272989   -1.928631
      2          6           0        5.036885   -0.351891    1.105324
      3          6           0        3.580962    0.114477    1.191524
      4          6           0        2.588423   -0.894294    0.603610
      5          6           0        1.126918   -0.436566    0.690837
      6          6           0        0.159213   -1.455159    0.075034
      7          6           0       -1.363184   -1.181094    0.193046
      8          6           0       -1.826603   -1.286134    1.658984
      9          6           0       -1.775358    0.167047   -0.463108
     10          6           0       -1.755666    1.415511    0.416086
     11          8           0       -2.072156    2.517874   -0.411246
     12          6           0       -2.143866    3.740019    0.289619
     13          6           0       -2.485802    4.845712   -0.695412
     14          6           0       -2.045214   -2.308422   -0.609163
     15          8           0       -3.448978   -2.209328   -0.494969
     16          6           0       -4.132956   -3.193002   -1.230903
     17          1           0        8.042111   -0.279515   -2.781177
     18          1           0        7.732075    0.229840   -1.100284
     19          1           0        8.605543    1.314179   -2.214123
     20          1           0        9.389783   -0.172537   -1.618804
     21          1           0        5.720744    0.388489    1.532463
     22          1           0        5.336340   -0.522166    0.064842
     23          1           0        5.184613   -1.292737    1.647361
     24          1           0        3.472107    1.074897    0.670417
     25          1           0        3.320395    0.309039    2.240495
     26          1           0        2.699942   -1.857079    1.122081
     27          1           0        2.847518   -1.087137   -0.447100
     28          1           0        1.028961    0.528849    0.180109
     29          1           0        0.873237   -0.257566    1.743413
     30          1           0        0.360353   -2.437047    0.526834
     31          1           0        0.407819   -1.559348   -0.990840
     32          1           0       -1.358677   -0.529968    2.294840
     33          1           0       -1.566255   -2.268824    2.069043
     34          1           0       -2.910710   -1.173964    1.732103
     35          1           0       -2.795379    0.066197   -0.844994
     36          1           0       -1.133305    0.356961   -1.332217
     37          1           0       -0.776037    1.573581    0.893926
     38          1           0       -2.496392    1.329536    1.227576
     39          1           0       -1.182312    3.952231    0.789158
     40          1           0       -2.908020    3.680992    1.084177
     41          1           0       -1.719973    4.916561   -1.473164
     42          1           0       -2.550477    5.809794   -0.181925
     43          1           0       -3.445790    4.643965   -1.179168
     44          1           0       -1.706679   -3.290174   -0.234752
     45          1           0       -1.748075   -2.243482   -1.670608
     46          1           0       -5.203301   -3.029565   -1.082526
     47          1           0       -3.878172   -4.209568   -0.890813
     48          1           0       -3.909208   -3.127965   -2.307709
 ---------------------------------------------------------------------

 SCF Done:  E(RB3LYP) =  -703.258091692     A.U. after    1 cycles

 The electronic state is 1-A.
 Alpha  occ. eigenvalues --  -19.13806 -19.12703 -10.22260 -10.22011 -10.21955
 Alpha  occ. eigenvalues --  -10.21476 -10.19121 -10.17629 -10.17501 -10.17477
 Alpha  occ. eigenvalues --  -10.17444 -10.17057 -10.16956 -10.16633 -10.16620
 Alpha  occ. eigenvalues --  -10.16452  -1.03140  -1.02162  -0.82463  -0.79138
 Alpha  occ. eigenvalues --   -0.75980  -0.73874  -0.71052  -0.69382  -0.68991
 Alpha  occ. eigenvalues --   -0.67449  -0.64416  -0.61433  -0.59744  -0.59208
 Alpha  occ. eigenvalues --   -0.57285  -0.52685  -0.48752  -0.48590  -0.47689
 Alpha  occ. eigenvalues --   -0.47568  -0.47002  -0.45783  -0.44126  -0.43104
 Alpha  occ. eigenvalues --   -0.41957  -0.41827  -0.41101  -0.39904  -0.39585
 Alpha  occ. eigenvalues --   -0.38775  -0.38765  -0.38763  -0.38386  -0.37964
 Alpha  occ. eigenvalues --   -0.37587  -0.36244  -0.35773  -0.34874  -0.34489
 Alpha  occ. eigenvalues --   -0.33527  -0.33161  -0.32843  -0.32010  -0.31927
 Alpha  occ. eigenvalues --   -0.31208  -0.30757  -0.29736  -0.29214  -0.25255
 Alpha  occ. eigenvalues --   -0.24414
 Alpha virt. eigenvalues --    0.07887   0.08776   0.09146   0.10276   0.10802
 Alpha virt. eigenvalues --    0.11143   0.11657   0.12837   0.13427   0.13523
 Alpha virt. eigenvalues --    0.14313   0.14611   0.14888   0.15447   0.16055

 Mulliken charges:
               1
     1  C   -0.543620
     2  C   -0.385132
     3  C   -0.167320
     4  C   -0.155812
     5  C   -0.209671
     6  C   -0.207733
     7  C    0.204369
     8  C   -0.421257
     9  C   -0.223887
    10  C   -0.076276
    11  O   -0.242960
    12  C   -0.025925
    13  C   -0.384098
    14  C   -0.067360
    15  O   -0.238539
    16  C   -0.227702
    17  H    0.133281
    18  H    0.141301
    19  H    0.133865
    20  H    0.133937
    21  H    0.110464
    22  H    0.118507
    23  H    0.113169
    24  H    0.094563
    25  H    0.093271
    26  H    0.090298
    27  H    0.091212
    28  H    0.104505
    29  H    0.094638
    30  H    0.086884
    31  H    0.088770
    32  H    0.112732
    33  H    0.101265
    34  H    0.131578
    35  H    0.119204
    36  H    0.095210
    37  H    0.083797
    38  H    0.085771
    39  H    0.080271
    40  H    0.081908
    41  H    0.124113
    42  H    0.111306
    43  H    0.125506
    44  H    0.078588
    45  H    0.080695
    46  H    0.125953
    47  H    0.102535
    48  H    0.103828
 Sum of Mulliken charges =  -0.00000

 Dipole moment (field-independent basis, Debye):
    X=              0.4375    Y=             -0.7729    Z=              0.3175  Tot=              0.9432
 Quadrupole moment (field-independent basis, Debye-Ang):
   XX=           -107.2289   YY=            -99.5763   ZZ=           -105.1738
   XY=              2.7905   XZ=              0.4971   YZ=              4.1765

  Exact polarizability: 185.916   4.017 175.823   7.128   1.664 146.010
 Approx polarizability: 224.304   0.541 225.935   0.786   0.518 220.432

                      1                      2                      3
                      A                      A                      A
 Frequencies --      2.8461                 3.4084                10.0841
 Red. masses --      3.2999                 3.3182                 1.0105
 Frc consts  --      0.0000                 0.0000                 0.0001
 IR Inten    --      0.0055                 0.0032                 0.0001

                      4                      5                      6
                      A                      A                      A
 Frequencies --     20.8935                25.6433                35.0468
 Red. masses --      2.9473                 3.2881                 1.0355
 Frc consts  --      0.0008                 0.0013                 0.0007
 IR Inten    --      0.0018                 0.0063                 0.0024

                      7                      8                      9
                      A                      A                      A
 Frequencies --     42.9604                46.3751                52.0571
 Red. masses --      1.0873                 3.0635                 1.6358
 Frc consts  --      0.0012                 0.0039                 0.0026
 IR Inten    --      0.0177                 0.2659                 0.1963

                     10                     11                     12
                      A                      A                      A
 Frequencies --     60.5244                64.2226                74.5454
 Red. masses --      1.7074                 3.0827                 2.7696
 Frc consts  --      0.0037                 0.0075                 0.0091
 IR Inten    --      1.2090                 0.4027                 1.8660

                     13                     14                     15
                      A                      A                      A
 Frequencies --    106.9140               109.7404               117.3275
 Red. masses --      3.0405                 3.0878                 2.2888
 Frc consts  --      0.0205                 0.0219                 0.0186
 IR Inten    --      0.4249                 0.9489                 0.5985

                     16                     17                     18
                      A                      A                      A
 Frequencies --    138.6077               142.6104               148.6368
 Red. masses --      1.9604                 1.8426                 2.4556
 Frc consts  --      0.0222                 0.0221                 0.0320
 IR Inten    --      1.5349                 0.4029                 0.6879

                     19                     20                     21
                      A                      A                      A
 Frequencies --    172.9609               216.9657               230.9133
 Red. masses --      2.4149                 3.1659                 2.9190
 Frc consts  --      0.0426                 0.0878                 0.0917
 IR Inten    --      0.1299                 0.2964                 0.2293

                     22                     23                     24
                      A                      A                      A
 Frequencies --    233.8842               247.8129               248.4101
 Red. masses --      1.4072                 1.1760                 1.1298
 Frc consts  --      0.0454                 0.0426                 0.0411
 IR Inten    --      2.5777                 0.5163                 0.1038

                     25                     26                     27
                      A                      A                      A
 Frequencies --    271.3108               276.8335               297.1733
 Red. masses --      1.6597                 1.9169                 2.5992
 Frc consts  --      0.0720                 0.0866                 0.1352
 IR Inten    --      0.3309                 1.1492                 1.7686

                     28                     29                     30
                      A                      A                      A
 Frequencies --    331.9891               351.4008               366.9939
 Red. masses --      2.1668                 2.7718                 2.6808
 Frc consts  --      0.1407                 0.2017                 0.2127
 IR Inten    --      0.2903                 0.4215                 1.6259

                     31                     32                     33
                      A                      A                      A
 Frequencies --    432.0261               457.5863               482.0647
 Red. masses --      2.8043                 2.9376                 2.8400
 Frc consts  --      0.3084                 0.3624                 0.3889
 IR Inten    --      0.7877                 1.3503                 1.1850

                     34                     35                     36
                      A                      A                      A
 Frequencies --    516.6244               622.8622               735.9543
 Red. masses --      2.8491                 2.6976                 1.0707
 Frc consts  --      0.4480                 0.6166                 0.3417
 IR Inten    --      2.7001                 0.0602                 3.2368

                     37                     38                     39
                      A                      A                      A
 Frequencies --    757.3982               775.0448               800.3601
 Red. masses --      1.2634                 2.1819                 1.3524
 Frc consts  --      0.4270                 0.7722                 0.5104
 IR Inten    --      0.0171                 0.9585                 1.7901

                     40                     41                     42
                      A                      A                      A
 Frequencies --    821.7927               844.3259               890.5508
 Red. masses --      1.0909                 1.2712                 2.1167
 Frc consts  --      0.4341                 0.5339                 0.9891
 IR Inten    --      0.6946                 1.6650                 8.3706

                     43                     44                     45
                      A                      A                      A
 Frequencies --    900.6852               923.7035               950.5132
 Red. masses --      1.9922                 1.9537                 1.7964
 Frc consts  --      0.9522                 0.9822                 0.9562
 IR Inten    --      0.3926                 1.6868                 3.0596

                     46                     47                     48
                      A                      A                      A
 Frequencies --    968.8754               983.6230              1002.5606
 Red. masses --      1.3783                 2.1249                 2.0707
 Frc consts  --      0.7623                 1.2113                 1.2263
 IR Inten    --      1.9639                 6.3471                 7.4792

                     49                     50                     51
                      A                      A                      A
 Frequencies --   1019.5110              1037.3949              1052.9244
 Red. masses --      3.0437                 3.4684                 1.5213
 Frc consts  --      1.8640                 2.1992                 0.9937
 IR Inten    --      5.1830                11.0918                 0.5519

                     52                     53                     54
                      A                      A                      A
 Frequencies --   1060.4839              1066.6210              1072.6292
 Red. masses --      2.8831                 2.2682                 2.5412
 Frc consts  --      1.9104                 1.5204                 1.7226
 IR Inten    --      9.8966                 0.9680                 1.6135

                     55                     56                     57
                      A                      A                      A
 Frequencies --   1101.1883              1122.4187              1140.6698
 Red. masses --      1.7094                 1.9545                 3.1025
 Frc consts  --      1.2213                 1.4508                 2.3784
 IR Inten    --      8.4479                 7.6132                89.0863

                     58                     59                     60
                      A                      A                      A
 Frequencies --   1157.7677              1167.3046              1180.5378
 Red. masses --      4.6435                 4.0220                 1.5177
 Frc consts  --      3.6672                 3.2289                 1.2463
 IR Inten    --    169.8942               174.5922                 1.0993

                     61                     62                     63
                      A                      A                      A
 Frequencies --   1184.6822              1196.0071              1210.1046
 Red. masses --      1.3544                 2.0134                 2.3248
 Frc consts  --      1.1200                 1.6969                 2.0058
 IR Inten    --      2.5249                 6.2311                56.4841

                     64                     65                     66
                      A                      A                      A
 Frequencies --   1221.4889              1232.3964              1245.9756
 Red. masses --      1.9100                 1.6195                 1.4487
 Frc consts  --      1.6790                 1.4492                 1.3251
 IR Inten    --      7.6368                 9.4501                 0.8610

                     67                     68                     69
                      A                      A                      A
 Frequencies --   1269.8578              1274.8128              1288.9025
 Red. masses --      1.3669                 1.3712                 1.2431
 Frc consts  --      1.2987                 1.3130                 1.2167
 IR Inten    --      1.3184                 1.8283                 2.7606

                     70                     71                     72
                      A                      A                      A
 Frequencies --   1295.4858              1319.0220              1324.7965
 Red. masses --      1.1092                 1.2873                 1.2667
 Frc consts  --      1.0968                 1.3196                 1.3098
 IR Inten    --      1.9451                 4.2297                 4.9369

                     73                     74                     75
                      A                      A                      A
 Frequencies --   1331.7019              1335.2002              1340.7145
 Red. masses --      1.0587                 1.2029                 1.1799
 Frc consts  --      1.1063                 1.2635                 1.2496
 IR Inten    --      0.2225                 0.3347                 8.8700

                     76                     77                     78
                      A                      A                      A
 Frequencies --   1340.9604              1341.9506              1356.0740
 Red. masses --      1.1800                 1.1799                 1.3460
 Frc consts  --      1.2501                 1.2519                 1.4584
 IR Inten    --      9.0047                10.3791                 6.9547

                     79                     80                     81
                      A                      A                      A
 Frequencies --   1361.1658              1390.3575              1394.9454
 Red. masses --      1.2473                 1.2906                 1.4158
 Frc consts  --      1.3616                 1.4699                 1.6231
 IR Inten    --      4.4186                27.9150                 6.2010

                     82                     83                     84
                      A                      A                      A
 Frequencies --   1399.1719              1402.6508              1408.9333
 Red. masses --      1.4937                 1.3328                 1.3205
 Frc consts  --      1.7228                 1.5450                 1.5445
 IR Inten    --      0.8046                 5.6603                24.7370

                     85                     86                     87
                      A                      A                      A
 Frequencies --   1411.9978              1424.9622              1451.6946
 Red. masses --      1.2507                 1.2936                 1.4684
 Frc consts  --      1.4692                 1.5476                 1.8233
 IR Inten    --      2.6406                21.3357                 7.4065

                     88                     89                     90
                      A                      A                      A
 Frequencies --   1476.0387              1481.2416              1483.3105
 Red. masses --      1.0973                 1.1334                 1.0461
 Frc consts  --      1.4085                 1.4652                 1.3560
 IR Inten    --      5.1204                 0.7280                 3.9100

                     91                     92                     93
                      A                      A                      A
 Frequencies --   1483.4133              1485.2941              1489.4707
 Red. masses --      1.0647                 1.0472                 1.0681
 Frc consts  --      1.3804                 1.3612                 1.3961
 IR Inten    --      0.2039                 4.9620                 0.2123

                     94                     95                     96
                      A                      A                      A
 Frequencies --   1493.9364              1496.7259              1499.0688
 Red. masses --      1.0748                 1.0635                 1.0405
 Frc consts  --      1.4133                 1.4037                 1.3776
 IR Inten    --      1.6847                 5.2586                 7.4162

                     97                     98                     99
                      A                      A                      A
 Frequencies --   1499.9065              1501.3780              1505.0115
 Red. masses --      1.0483                 1.0667                 1.0655
 Frc consts  --      1.3896                 1.4167                 1.4219
 IR Inten    --      1.5619                 9.5320                 1.2532

                    100                    101                    102
                      A                      A                      A
 Frequencies --   1507.5970              1514.1693              1520.4559
 Red. masses --      1.0669                 1.0919                 1.0852
 Frc consts  --      1.4287                 1.4750                 1.4782
 IR Inten    --      3.2847                 5.5733                 6.8137

                    103                    104                    105
                      A                      A                      A
 Frequencies --   1525.4288              1541.9212              1562.4216
 Red. masses --      1.0880                 1.0935                 1.0078
 Frc consts  --      1.4916                 1.5318                 1.4496
 IR Inten    --      3.6903                 0.4712                 0.3276

                    106                    107                    108
                      A                      A                      A
 Frequencies --   1562.7060              2939.5190              2943.9769
 Red. masses --      1.0079                 1.0526                 1.0544
 Frc consts  --      1.4501                 5.3589                 5.3842
 IR Inten    --      0.0267                33.2234                39.1261

                    109                    110                    111
                      A                      A                      A
 Frequencies --   2967.4627              2968.6260              2969.4390
 Red. masses --      1.1048                 1.0383                 1.0620
 Frc consts  --      5.7317                 5.3912                 5.5173
 IR Inten    --     64.1298                89.0405                17.3050

                    112                    113                    114
                      A                      A                      A
 Frequencies --   2972.2813              2993.4961              2995.3176
 Red. masses --      1.0996                 1.0583                 1.1007
 Frc consts  --      5.7235                 5.5873                 5.8183
 IR Inten    --     76.1378                15.6459                51.2256

                    115                    116                    117
                      A                      A                      A
 Frequencies --   3001.0577              3010.8509              3012.8674
 Red. masses --      1.0576                 1.1030                 1.0593
 Frc consts  --      5.6123                 5.8913                 5.6655
 IR Inten    --     17.7362                51.7458                15.9749

                    118                    119                    120
                      A                      A                      A
 Frequencies --   3023.5294              3025.8844              3026.2281
 Red. masses --      1.0834                 1.0933                 1.0704
 Frc consts  --      5.8353                 5.8981                 5.7758
 IR Inten    --     24.8875                11.1641                14.3597

                    121                    122                    123
                      A                      A                      A
 Frequencies --   3027.1513              3032.9206              3035.8836
 Red. masses --      1.0429                 1.0610                 1.0468
 Frc consts  --      5.6305                 5.7505                 5.6845
 IR Inten    --     64.3450                60.6369                 3.7468

                    124                    125                    126
                      A                      A                      A
 Frequencies --   3038.3216              3043.2039              3047.7129
 Red. masses --      1.0078                 1.0347                 1.1031
 Frc consts  --      5.4816                 5.6456                 6.0368
 IR Inten    --      0.0170                19.8642                 4.2723

                    127                    128                    129
                      A                      A                      A
 Frequencies --   3071.9841              3091.6091              3093.0401
 Red. masses --      1.1042                 1.0979                 1.1019
 Frc consts  --      6.1398                 6.1827                 6.2111
 IR Inten    --     67.7414                18.7370                67.9262

                    130                    131                    132
                      A                      A                      A
 Frequencies --   3098.4491              3099.6852              3111.1319
 Red. masses --      1.1010                 1.0961                 1.0958
 Frc consts  --      6.2274                 6.2051                 6.2491
 IR Inten    --     33.4795                37.6348                30.5039

                    133                    134                    135
                      A                      A                      A
 Frequencies --   3117.1706              3119.5658              3126.4564
 Red. masses --      1.1014                 1.1025                 1.1008
 Frc consts  --      6.3057                 6.3217                 6.3398
 IR Inten    --     26.8624                26.3899                20.5471

                    136                    137                    138
                      A                      A                      A
 Frequencies --   3151.7980              3151.8437              3152.0833
 Red. masses --      1.1008                 1.1007                 1.1008
 Frc consts  --      6.4425                 6.4425                 6.4438
 IR Inten    --     20.3209                23.9618                20.6382

 - Thermochemistry -
 -------------------
 Temperature   298.150 Kelvin.  Pressure   1.00000 Atm.
 Atom     1 has atomic number  6 and mass  12.00000

 Molecular mass:   232.24023 amu.
 Principal axes and moments of inertia in atomic units:
                           1         2         3
     Eigenvalues --  4768.57937********************
           X            0.99996  -0.00041  -0.00847
           Y            0.00044   1.00000   0.00306
           Z            0.00847  -0.00306   0.99996
 This molecule is an asymmetric top.
 Rotational symmetry number  1.
 Warning -- assumption of classical behavior for rotation
           may cause significant error
 Rotational temperatures (Kelvin)      0.01816     0.00820     0.00632
 Rotational constants (GHZ):           0.37847     0.17088     0.13163
 Zero-point vibrational energy    1156436.9 (Joules/Mol)
                                  276.39505 (Kcal/Mol)
 Warning -- explicit consideration of  34 degrees of freedom as
           vibrations may cause significant error
 Vibrational temperatures:      4.09     4.90    14.51    30.06    36.89
          (Kelvin)             50.42    61.81    66.72    74.90    87.08
                               92.40   107.25   153.83   157.89   168.81
                              199.43   205.18   213.86   248.85   312.17
                              332.23   336.51   356.55   357.41   390.36
                              398.30   427.57   477.66   505.59   528.02
                              621.59   658.36   693.58   743.31   896.16
                             1058.87  1089.73  1115.12  1151.54  1182.38
                             1214.80  1281.30  1295.89  1329.00  1367.58
                             1394.00  1415.21  1442.46  1466.85  1492.58
                             1514.92  1525.80  1534.63  1543.27  1584.36
                             1614.91  1641.17  1665.77  1679.49  1698.53
                             1704.49  1720.79  1741.07  1757.45  1773.14
                             1792.68  1827.04  1834.17  1854.44  1863.92
                             1897.78  1906.09  1916.02  1921.06  1928.99
                             1929.34  1930.77  1951.09  1958.41  2000.41
                             2007.02  2013.10  2018.10  2027.14  2031.55
                             2050.20  2088.66  2123.69  2131.18  2134.15
                             2134.30  2137.01  2143.02  2149.44  2153.45
                             2156.83  2158.03  2160.15  2165.38  2169.10
                             2178.55  2187.60  2194.75  2218.48  2247.98
                             2248.39  4229.31  4235.73  4269.52  4271.19
                             4272.36  4276.45  4306.97  4309.59  4317.85
                             4331.94  4334.84  4350.18  4353.57  4354.07
                             4355.40  4363.70  4367.96  4371.47  4378.49
                             4384.98  4419.90  4448.14  4450.19  4457.98
                             4459.76  4476.22  4484.91  4488.36  4498.27
                             4534.73  4534.80  4535.14

 Zero-point correction=                           0.440464 (Hartree/Particle)
 Thermal correction to Energy=                    0.465963
 Thermal correction to Enthalpy=                  0.466907
 Thermal correction to Gibbs Free Energy=         0.373557
 Sum of electronic and zero-point Energies=           -702.817628
 Sum of electronic and thermal Energies=              -702.792129
 Sum of electronic and thermal Enthalpies=            -702.791184
 Sum of electronic and thermal Free Energies=         -702.884534

                     E (Thermal)             CV                S
                      KCal/Mol        Cal/Mol-Kelvin    Cal/Mol-Kelvin
 Total                  292.396             83.880            196.471
 Electronic               0.000              0.000              0.000
 Translational            0.889              2.981             42.230
 Rotational               0.889              2.981             34.889
 Vibrational            290.619             77.918            119.353
 Vibration     1          0.592              1.987             10.508
 Vibration     2          0.592              1.987             10.150
 Vibration     3          0.593              1.987              7.994
 Vibration     4          0.593              1.986              6.547
 Vibration     5          0.593              1.985              6.141
 Vibration     6          0.594              1.982              5.521
 Vibration     7          0.595              1.980              5.118
 Vibration     8          0.595              1.979              4.966
 Vibration     9          0.596              1.977              4.738
 Vibration    10          0.597              1.973              4.440
 Vibration    11          0.597              1.971              4.323
 Vibration    12          0.599              1.966              4.030
 Vibration    13          0.606              1.944              3.324
 Vibration    14          0.606              1.941              3.274
 Vibration    15          0.608              1.935              3.144
 Vibration    16          0.614              1.915              2.823
 Vibration    17          0.616              1.911              2.769
 Vibration    18          0.618              1.904              2.690
 Vibration    19          0.626              1.876              2.403
 Vibration    20          0.646              1.815              1.984
 Vibration    21          0.653              1.794              1.872
 Vibration    22          0.654              1.789              1.849
 Vibration    23          0.661              1.766              1.746
 Vibration    24          0.662              1.765              1.742
 Vibration    25          0.675              1.726              1.588
 Vibration    26          0.678              1.716              1.553
 Vibration    27          0.691              1.679              1.433
 Vibration    28          0.714              1.612              1.250
 Vibration    29          0.728              1.572              1.160
 Vibration    30          0.740              1.540              1.092
 Vibration    31          0.793              1.400              0.852
 Vibration    32          0.816              1.344              0.773
 Vibration    33          0.838              1.290              0.705
 Vibration    34          0.872              1.213              0.618

                           ! Non-Optimized Parameters !
 Normal termination of Gaussian 16 at Tue May 23 00:24:55 2023.
