 Gaussian 16, Revision A.03,
 Gaussian 16:  ES64L-G16RevA.03 25-Dec-2016

 -----------------------------
 # opt freq b3lyp/6-31g(2df,p)
 -----------------------------

 -------------------
 Title Card Required
 -------------------
 Symbolic Z-matrix:
 Charge =  0 Multiplicity = 1

 SCF Done:  E(RB3LYP) =  -468.292570304     A.U. after   13 cycles
 SCF Done:  E(RB3LYP) =  -468.315424057     A.U. after   11 cycles
 SCF Done:  E(RB3LYP) =  -468.328589258     A.U. after   11 cycles
 SCF Done:  E(RB3LYP) =  -468.332513709     A.U. after   11 cycles
 SCF Done:  E(RB3LYP) =  -468.334755392     A.U. after   12 cycles
 SCF Done:  E(RB3LYP) =  -468.335587549     A.U. after   11 cycles
 SCF Done:  E(RB3LYP) =  -468.335872787     A.U. after   10 cycles
 SCF Done:  E(RB3LYP) =  -468.336125281     A.U. after   10 cycles
 SCF Done:  E(RB3LYP) =  -468.336319169     A.U. after   10 cycles
 SCF Done:  E(RB3LYP) =  -468.336527090     A.U. after   11 cycles
 SCF Done:  E(RB3LYP) =  -468.338895219     A.U. after    8 cycles
 SCF Done:  E(RB3LYP) =  -468.338896177     A.U. after    8 cycles
 SCF Done:  E(RB3LYP) =  -468.338897198     A.U. after    7 cycles
 SCF Done:  E(RB3LYP) =  -468.338898369     A.U. after    8 cycles
 SCF Done:  E(RB3LYP) =  -468.338898646     A.U. after    6 cycles
 SCF Done:  E(RB3LYP) =  -468.338898908     A.U. after    7 cycles
 SCF Done:  E(RB3LYP) =  -468.338898994     A.U. after    7 cycles
 SCF Done:  E(RB3LYP) =  -468.338899016     A.U. after    6 cycles
 SCF Done:  E(RB3LYP) =  -468.338899048     A.U. after    5 cycles
 Optimization completed.
    -- Stationary point found.
 Normal termination of Gaussian 16 at Sun May 28 04:20:57 2023.

 ----------------------------------------------------------------------
 #N Geom=AllCheck Guess=TCheck SCRF=Check GenChk RB3LYP/6-31G(2df,p) Fr
 eq
 ----------------------------------------------------------------------

 Structure from the checkpoint file:  "C.CdCqOrCCqdCrCqCrCC.chk"
 -------------------
 Title Card Required
 -------------------
 Charge =  0 Multiplicity = 1

                         Standard orientation:
 ---------------------------------------------------------------------
 Center     Atomic      Atomic             Coordinates (Angstroms)
 Number     Number       Type             X           Y           Z
 ---------------------------------------------------------------------
      1          6           0        3.875660   -3.106037    0.138029
      2          6           0        2.612675    2.208776    0.265794
      3          6           0        1.928038    1.081256    0.066318
      4          8           0        2.314522    0.096126   -0.799442
      5          6           0        0.646582    0.715466    0.758917
      6          6           0       -0.596598    0.732705   -0.131031
      7          6           0       -0.692269    1.564965   -1.166245
      8          6           0       -1.695759   -0.229131    0.294882
      9          6           0       -2.270733    0.192466    1.664885
     10          6           0       -2.804681   -0.416735   -0.755356
     11          6           0       -3.760962   -1.577256   -0.458119
     12          1           0        3.328975   -2.189049   -0.091721
     13          1           0        4.442267   -2.974943    1.062611
     14          1           0        4.564003   -3.339484   -0.677523
     15          1           0        3.170107   -3.930765    0.260152
     16          1           0        3.539844    2.420355   -0.257661
     17          1           0        2.256759    2.952517    0.965379
     18          1           0        3.127664    0.366917   -1.240560
     19          1           0        0.505228    1.390261    1.609894
     20          1           0        0.767448   -0.291263    1.179664
     21          1           0        0.118479    2.239043   -1.421150
     22          1           0       -1.572329    1.609285   -1.795630
     23          1           0       -1.213932   -1.209848    0.435591
     24          1           0       -2.772067    1.163432    1.585056
     25          1           0       -1.487659    0.281646    2.423118
     26          1           0       -2.996750   -0.537261    2.033345
     27          1           0       -2.334238   -0.588309   -1.730068
     28          1           0       -3.381174    0.512613   -0.850144
     29          1           0       -3.215145   -2.521021   -0.345785
     30          1           0       -4.477760   -1.705936   -1.275176
     31          1           0       -4.337610   -1.416042    0.457700
 ---------------------------------------------------------------------

 SCF Done:  E(RB3LYP) =  -468.338899048     A.U. after    1 cycles

 The electronic state is 1-A.
 Alpha  occ. eigenvalues --  -19.16750 -10.24022 -10.18836 -10.18697 -10.18600
 Alpha  occ. eigenvalues --  -10.17482 -10.17278 -10.17065 -10.16174 -10.16008
 Alpha  occ. eigenvalues --  -10.15899  -1.05480  -0.82578  -0.78101  -0.74012
 Alpha  occ. eigenvalues --   -0.71276  -0.68393  -0.68310  -0.63695  -0.60210
 Alpha  occ. eigenvalues --   -0.57418  -0.51310  -0.48895  -0.46954  -0.46232
 Alpha  occ. eigenvalues --   -0.45017  -0.43007  -0.41600  -0.40252  -0.39195
 Alpha  occ. eigenvalues --   -0.38264  -0.38152  -0.38127  -0.37849  -0.37257
 Alpha  occ. eigenvalues --   -0.36434  -0.36078  -0.35579  -0.35069  -0.32475
 Alpha  occ. eigenvalues --   -0.31689  -0.30675  -0.24099  -0.22579
 Alpha virt. eigenvalues --    0.02642   0.03753   0.06699   0.09301   0.11979
 Alpha virt. eigenvalues --    0.12661   0.13022   0.13193   0.14050   0.14931
 Alpha virt. eigenvalues --    0.15184   0.16076   0.17239   0.17330   0.18049

 Mulliken charges:
               1
     1  C   -0.559051
     2  C   -0.465212
     3  C    0.423695
     4  O   -0.417315
     5  C   -0.352004
     6  C    0.339235
     7  C   -0.404347
     8  C   -0.044582
     9  C   -0.393990
    10  C   -0.184544
    11  C   -0.394628
    12  H    0.154918
    13  H    0.128544
    14  H    0.126595
    15  H    0.130137
    16  H    0.089403
    17  H    0.110698
    18  H    0.295569
    19  H    0.124112
    20  H    0.116482
    21  H    0.105636
    22  H    0.101394
    23  H    0.077181
    24  H    0.117911
    25  H    0.116192
    26  H    0.115299
    27  H    0.102601
    28  H    0.097064
    29  H    0.113774
    30  H    0.111815
    31  H    0.117419
 Sum of Mulliken charges =  -0.00000

 Dipole moment (field-independent basis, Debye):
    X=              0.2675    Y=              0.3080    Z=              0.0560  Tot=              0.4118
 Quadrupole moment (field-independent basis, Debye-Ang):
   XX=            -66.7726   YY=            -72.9557   ZZ=            -70.2729
   XY=              2.5895   XZ=             -3.0149   YZ=             -0.3759

  Exact polarizability: 127.756  17.011 114.946  -0.236  -2.508 104.232
 Approx polarizability: 156.888  15.995 172.007   0.389  -8.297 157.965

 ******    1 imaginary frequencies (negative Signs) ******

                      1                      2                      3
                      A                      A                      A
 Frequencies --     -4.0171                 8.1464                15.8992
 Red. masses --      1.0125                 3.3274                 3.0077
 Frc consts  --      0.0000                 0.0001                 0.0004
 IR Inten    --      0.0004                 0.0228                 0.0544

                      4                      5                      6
                      A                      A                      A
 Frequencies --     31.0608                49.2919                68.8617
 Red. masses --      3.4549                 3.3238                 3.0193
 Frc consts  --      0.0020                 0.0048                 0.0084
 IR Inten    --      0.1864                 0.0062                 0.0222

                      7                      8                      9
                      A                      A                      A
 Frequencies --     90.5761               102.4763               135.6945
 Red. masses --      3.7450                 1.7622                 1.0580
 Frc consts  --      0.0181                 0.0109                 0.0115
 IR Inten    --      0.7880                 0.0714                 0.1033

                     10                     11                     12
                      A                      A                      A
 Frequencies --    143.7241               160.9733               210.7251
 Red. masses --      3.1085                 1.0948                 1.6662
 Frc consts  --      0.0378                 0.0167                 0.0436
 IR Inten    --      0.3449                 0.2561                 0.2937

                     13                     14                     15
                      A                      A                      A
 Frequencies --    218.1513               222.1235               279.8037
 Red. masses --      1.5046                 1.6440                 2.2859
 Frc consts  --      0.0422                 0.0478                 0.1054
 IR Inten    --      0.0249                 0.1870                 0.3336

                     16                     17                     18
                      A                      A                      A
 Frequencies --    314.0346               355.7216               395.9046
 Red. masses --      2.0001                 2.8004                 1.9704
 Frc consts  --      0.1162                 0.2088                 0.1820
 IR Inten    --      0.3796                 0.3042                 2.8041

                     19                     20                     21
                      A                      A                      A
 Frequencies --    433.1243               444.1863               485.8187
 Red. masses --      2.2809                 1.2005                 2.3251
 Frc consts  --      0.2521                 0.1396                 0.3233
 IR Inten    --      3.7577                86.7475                 7.2586

                     22                     23                     24
                      A                      A                      A
 Frequencies --    504.2807               555.5577               670.0360
 Red. masses --      2.4553                 2.6299                 2.2299
 Frc consts  --      0.3679                 0.4782                 0.5898
 IR Inten    --     20.1640                 0.8679                 3.1754

                     25                     26                     27
                      A                      A                      A
 Frequencies --    730.6164               739.2062               776.0303
 Red. masses --      1.2908                 1.1777                 1.5488
 Frc consts  --      0.4060                 0.3792                 0.5495
 IR Inten    --      1.1149                 0.5707                 3.5353

                     28                     29                     30
                      A                      A                      A
 Frequencies --    819.0400               821.8117               877.7407
 Red. masses --      1.3854                 1.5101                 3.1377
 Frc consts  --      0.5476                 0.6009                 1.4243
 IR Inten    --     33.9164                17.8783                 2.5706

                     31                     32                     33
                      A                      A                      A
 Frequencies --    903.1616               936.5975               947.5274
 Red. masses --      2.8270                 1.3924                 1.7180
 Frc consts  --      1.3586                 0.7197                 0.9088
 IR Inten    --     11.3768                18.3634                10.1303

                     34                     35                     36
                      A                      A                      A
 Frequencies --    957.6140               974.9521               986.8598
 Red. masses --      1.6781                 1.3673                 1.6639
 Frc consts  --      0.9067                 0.7658                 0.9548
 IR Inten    --      1.1217                 7.1798                 4.7564

                     37                     38                     39
                      A                      A                      A
 Frequencies --    993.2786              1036.9955              1109.1688
 Red. masses --      1.7492                 2.4561                 1.6822
 Frc consts  --      1.0168                 1.5562                 1.2193
 IR Inten    --     14.2560                 3.5408                10.5394

                     40                     41                     42
                      A                      A                      A
 Frequencies --   1132.7648              1169.3832              1185.0188
 Red. masses --      2.1022                 1.7463                 1.5940
 Frc consts  --      1.5893                 1.4070                 1.3188
 IR Inten    --      3.3296                20.5233                92.7101

                     43                     44                     45
                      A                      A                      A
 Frequencies --   1225.6294              1242.7945              1296.4610
 Red. masses --      1.5651                 1.3222                 1.2436
 Frc consts  --      1.3852                 1.2032                 1.2316
 IR Inten    --     32.7895                12.2874                 0.4090

                     46                     47                     48
                      A                      A                      A
 Frequencies --   1317.1207              1338.1069              1343.7704
 Red. masses --      1.3562                 1.1811                 1.5763
 Frc consts  --      1.3862                 1.2460                 1.6770
 IR Inten    --      3.1118                 7.7978                 0.9829

                     49                     50                     51
                      A                      A                      A
 Frequencies --   1344.8668              1349.5420              1353.4197
 Red. masses --      1.2861                 1.1785                 1.1784
 Frc consts  --      1.3705                 1.2646                 1.2718
 IR Inten    --      0.6187                 8.5965                 8.5822

                     52                     53                     54
                      A                      A                      A
 Frequencies --   1389.2869              1392.1369              1404.0626
 Red. masses --      2.1354                 1.6482                 1.2470
 Frc consts  --      2.4284                 1.8820                 1.4484
 IR Inten    --     16.0066                 4.6123                 3.5709

                     55                     56                     57
                      A                      A                      A
 Frequencies --   1414.0261              1446.2242              1454.9206
 Red. masses --      1.2138                 1.1548                 1.1505
 Frc consts  --      1.4300                 1.4231                 1.4349
 IR Inten    --      1.0323                 9.8975                 7.6020

                     58                     59                     60
                      A                      A                      A
 Frequencies --   1475.5054              1488.4100              1496.1175
 Red. masses --      1.1414                 1.0629                 1.0433
 Frc consts  --      1.4641                 1.3873                 1.3759
 IR Inten    --      2.7621                 0.8252                 4.5756

                     61                     62                     63
                      A                      A                      A
 Frequencies --   1500.1405              1508.3759              1512.6995
 Red. masses --      1.0541                 1.0758                 1.0453
 Frc consts  --      1.3976                 1.4421                 1.4093
 IR Inten    --      2.8888                 3.4311                 3.0549

                     64                     65                     66
                      A                      A                      A
 Frequencies --   1567.8449              1570.3428              1713.4727
 Red. masses --      1.0080                 1.0081                 5.4320
 Frc consts  --      1.4598                 1.4647                 9.3964
 IR Inten    --      0.0201                 0.1019                24.7358

                     67                     68                     69
                      A                      A                      A
 Frequencies --   1723.2112              2974.8273              3021.3564
 Red. masses --      5.6376                 1.0807                 1.0612
 Frc consts  --      9.8633                 5.6349                 5.7074
 IR Inten    --    122.4012                16.8239                10.1735

                     70                     71                     72
                      A                      A                      A
 Frequencies --   3024.4552              3031.9434              3034.6842
 Red. masses --      1.0623                 1.0365                 1.0079
 Frc consts  --      5.7251                 5.6137                 5.4687
 IR Inten    --     28.7376                29.2960                 5.1931

                     73                     74                     75
                      A                      A                      A
 Frequencies --   3037.0680              3061.6716              3069.5328
 Red. masses --      1.0369                 1.0995                 1.0975
 Frc consts  --      5.6352                 6.0722                 6.0923
 IR Inten    --     22.3075                10.2055                12.8917

                     76                     77                     78
                      A                      A                      A
 Frequencies --   3097.3666              3104.1307              3106.8351
 Red. masses --      1.1007                 1.1015                 1.0999
 Frc consts  --      6.2218                 6.2531                 6.2550
 IR Inten    --     34.4365                37.0654                37.5381

                     79                     80                     81
                      A                      A                      A
 Frequencies --   3114.9211              3144.8873              3147.1183
 Red. masses --      1.1003                 1.1003                 1.1004
 Frc consts  --      6.2898                 6.4115                 6.4215
 IR Inten    --     33.3457                22.6956                21.7666

                     82                     83                     84
                      A                      A                      A
 Frequencies --   3153.2195              3155.7667              3158.4432
 Red. masses --      1.0650                 1.1015                 1.0614
 Frc consts  --      6.2388                 6.4633                 6.2385
 IR Inten    --      5.9266                 4.1722                 5.0745

                     85                     86                     87
                      A                      A                      A
 Frequencies --   3238.6821              3250.8586              3806.9849
 Red. masses --      1.1132                 1.1114                 1.0654
 Frc consts  --      6.8795                 6.9201                 9.0977
 IR Inten    --      9.5718                 7.3934                27.2474

 - Thermochemistry -
 -------------------
 Temperature   298.150 Kelvin.  Pressure   1.00000 Atm.
 Atom     1 has atomic number  6 and mass  12.00000

 Molecular mass:   156.15142 amu.
 Principal axes and moments of inertia in atomic units:
                           1         2         3
     Eigenvalues --  1619.791453781.724164612.43413
           X            0.99979  -0.02058   0.00120
           Y            0.02058   0.99979  -0.00157
           Z           -0.00117   0.00159   1.00000
 This molecule is an asymmetric top.
 Rotational symmetry number  1.
 Warning -- assumption of classical behavior for rotation
           may cause significant error
 Rotational temperatures (Kelvin)      0.05347     0.02290     0.01878
 Rotational constants (GHZ):           1.11418     0.47723     0.39128
    1 imaginary frequencies ignored.
 Zero-point vibrational energy     727312.7 (Joules/Mol)
                                  173.83190 (Kcal/Mol)
 Warning -- explicit consideration of  22 degrees of freedom as
           vibrations may cause significant error
 Vibrational temperatures:     11.72    22.88    44.69    70.92    99.08
          (Kelvin)            130.32   147.44   195.23   206.79   231.60
                              303.19   313.87   319.59   402.58   451.83
                              511.80   569.62   623.17   639.08   698.98
                              725.55   799.32   964.03  1051.19  1063.55
                             1116.53  1178.42  1182.40  1262.87  1299.45
                             1347.55  1363.28  1377.79  1402.74  1419.87
                             1429.11  1492.01  1595.85  1629.80  1682.48
                             1704.98  1763.41  1788.10  1865.32  1895.04
                             1925.24  1933.39  1934.96  1941.69  1947.27
                             1998.87  2002.97  2020.13  2034.47  2080.79
                             2093.31  2122.92  2141.49  2152.58  2158.37
                             2170.22  2176.44  2255.78  2259.37  2465.31
                             2479.32  4280.11  4347.06  4351.52  4362.29
                             4366.23  4369.66  4405.06  4416.37  4456.42
                             4466.15  4470.04  4481.68  4524.79  4528.00
                             4536.78  4540.44  4544.30  4659.74  4677.26
                             5477.40

 Zero-point correction=                           0.277019 (Hartree/Particle)
 Thermal correction to Energy=                    0.293148
 Thermal correction to Enthalpy=                  0.294092
 Thermal correction to Gibbs Free Energy=         0.229521
 Sum of electronic and zero-point Energies=           -468.061880
 Sum of electronic and thermal Energies=              -468.045751
 Sum of electronic and thermal Enthalpies=            -468.044807
 Sum of electronic and thermal Free Energies=         -468.109378

                     E (Thermal)             CV                S
                      KCal/Mol        Cal/Mol-Kelvin    Cal/Mol-Kelvin
 Total                  183.953             55.461            135.902
 Electronic               0.000              0.000              0.000
 Translational            0.889              2.981             41.046
 Rotational               0.889              2.981             31.713
 Vibrational            182.176             49.499             63.143
 Vibration     1          0.593              1.987              8.418
 Vibration     2          0.593              1.986              7.090
 Vibration     3          0.594              1.983              5.760
 Vibration     4          0.595              1.978              4.846
 Vibration     5          0.598              1.969              4.186
 Vibration     6          0.602              1.956              3.648
 Vibration     7          0.605              1.947              3.407
 Vibration     8          0.614              1.918              2.864
 Vibration     9          0.616              1.909              2.754
 Vibration    10          0.622              1.890              2.538
 Vibration    11          0.643              1.824              2.037
 Vibration    12          0.646              1.813              1.974
 Vibration    13          0.648              1.807              1.942
 Vibration    14          0.680              1.711              1.535
 Vibration    15          0.702              1.647              1.341
 Vibration    16          0.731              1.564              1.141
 Vibration    17          0.763              1.479              0.978
 Vibration    18          0.794              1.398              0.849
 Vibration    19          0.804              1.374              0.814
 Vibration    20          0.842              1.281              0.695
 Vibration    21          0.860              1.241              0.648
 Vibration    22          0.911              1.128              0.533

 Optimization completed on the basis of negligible forces.
    -- Stationary point found.
 Normal termination of Gaussian 16 at Sun May 28 05:21:29 2023.
