 Gaussian 16, Revision A.03,
 Gaussian 16:  ES64L-G16RevA.03 25-Dec-2016

 -----------------------------
 # opt freq b3lyp/6-31g(2df,p)
 -----------------------------

 -------------------
 Title Card Required
 -------------------
 Symbolic Z-matrix:
 Charge =  0 Multiplicity = 1

 SCF Done:  E(RB3LYP) =  -40.5236803426     A.U. after    8 cycles
 Optimization completed.
    -- Stationary point found.
 Normal termination of Gaussian 16 at Sat May 27 17:45:52 2023.

 ----------------------------------------------------------------------
 #N Geom=AllCheck Guess=TCheck SCRF=Check GenChk RB3LYP/6-31G(2df,p) Fr
 eq
 ----------------------------------------------------------------------

 Structure from the checkpoint file:  "C.chk"
 -------------------
 Title Card Required
 -------------------
 Charge =  0 Multiplicity = 1

                         Standard orientation:
 ---------------------------------------------------------------------
 Center     Atomic      Atomic             Coordinates (Angstroms)
 Number     Number       Type             X           Y           Z
 ---------------------------------------------------------------------
      1          6           0       -0.000000    0.000002    0.000001
      2          1           0        0.511179    0.649538   -0.713931
      3          1           0        0.708277   -0.727817    0.401914
      4          1           0       -0.814735   -0.524716   -0.503775
      5          1           0       -0.404718    0.602986    0.815784
 ---------------------------------------------------------------------

 SCF Done:  E(RB3LYP) =  -40.5236803426     A.U. after    1 cycles

 The electronic state is 1-A.
 Alpha  occ. eigenvalues --  -10.16666  -0.68997  -0.38771  -0.38771  -0.38771
 Alpha virt. eigenvalues --    0.11700   0.17630   0.17630   0.17631   0.50819
 Alpha virt. eigenvalues --    0.50819   0.50819   0.75569   0.75569   0.75569
 Alpha virt. eigenvalues --    0.76419   0.76419   0.87800   1.04085   1.69001

 Mulliken charges:
               1
     1  C   -0.535678
     2  H    0.133920
     3  H    0.133919
     4  H    0.133919
     5  H    0.133921
 Sum of Mulliken charges =   0.00000

 Dipole moment (field-independent basis, Debye):
    X=              0.0000    Y=              0.0000    Z=              0.0000  Tot=              0.0000
 Quadrupole moment (field-independent basis, Debye-Ang):
   XX=             -8.2198   YY=             -8.2198   ZZ=             -8.2198
   XY=             -0.0000   XZ=             -0.0000   YZ=              0.0000

  Exact polarizability:  13.215   0.000  13.215   0.000  -0.000  13.215
 Approx polarizability:  16.427   0.000  16.427   0.000  -0.000  16.427

                      1                      2                      3
                      A                      A                      A
 Frequencies --   1342.0097              1342.0220              1342.0902
 Red. masses --      1.1800                 1.1800                 1.1800
 Frc consts  --      1.2521                 1.2521                 1.2523
 IR Inten    --     10.8080                10.8079                10.8078

                      4                      5                      6
                      A                      A                      A
 Frequencies --   1563.1067              1563.1186              3035.9657
 Red. masses --      1.0078                 1.0078                 1.0078
 Frc consts  --      1.4508                 1.4508                 5.4730
 IR Inten    --      0.0000                 0.0000                 0.0000

                      7                      8                      9
                      A                      A                      A
 Frequencies --   3149.1536              3149.1753              3149.1884
 Red. masses --      1.1008                 1.1008                 1.1008
 Frc consts  --      6.4318                 6.4319                 6.4320
 IR Inten    --     22.0844                22.0831                22.0814

 - Thermochemistry -
 -------------------
 Temperature   298.150 Kelvin.  Pressure   1.00000 Atm.
 Atom     1 has atomic number  6 and mass  12.00000

 Molecular mass:    16.03130 amu.
 Principal axes and moments of inertia in atomic units:
                           1         2         3
     Eigenvalues --    11.44867  11.44872  11.44876
           X            1.00000   0.00000   0.00000
           Y           -0.00000   1.00000  -0.00000
           Z           -0.00000   0.00000   1.00000
 This molecule is an asymmetric top.
 Rotational symmetry number  1.
 Rotational temperatures (Kelvin)      7.56542     7.56538     7.56536
 Rotational constants (GHZ):         157.63770   157.63695   157.63645
 Zero-point vibrational energy     117448.3 (Joules/Mol)
                                   28.07083 (Kcal/Mol)
 Vibrational temperatures:   1930.85  1930.87  1930.97  2248.96  2248.98
          (Kelvin)           4368.08  4530.93  4530.96  4530.98

 Zero-point correction=                           0.044734 (Hartree/Particle)
 Thermal correction to Energy=                    0.047602
 Thermal correction to Enthalpy=                  0.048546
 Thermal correction to Gibbs Free Energy=         0.025066
 Sum of electronic and zero-point Energies=            -40.478947
 Sum of electronic and thermal Energies=               -40.476078
 Sum of electronic and thermal Enthalpies=             -40.475134
 Sum of electronic and thermal Free Energies=          -40.498614

                     E (Thermal)             CV                S
                      KCal/Mol        Cal/Mol-Kelvin    Cal/Mol-Kelvin
 Total                   29.871              6.468             49.418
 Electronic               0.000              0.000              0.000
 Translational            0.889              2.981             34.261
 Rotational               0.889              2.981             15.070
 Vibrational             28.093              0.507              0.087

 Optimization completed.
    -- Stationary point found.
 Normal termination of Gaussian 16 at Sat May 27 17:47:37 2023.
