 Gaussian 16, Revision A.03,
 Gaussian 16:  ES64L-G16RevA.03 25-Dec-2016

 -----------------------------
 # opt freq b3lyp/6-31g(2df,p)
 -----------------------------

 -------------------
 Title Card Required
 -------------------
 Symbolic Z-matrix:
 Charge =  0 Multiplicity = 1

 SCF Done:  E(RB3LYP) =  -233.110351614     A.U. after   13 cycles
 SCF Done:  E(RB3LYP) =  -233.156497453     A.U. after   12 cycles
 SCF Done:  E(RB3LYP) =  -233.198847435     A.U. after   12 cycles
 SCF Done:  E(RB3LYP) =  -233.208311092     A.U. after   11 cycles
 SCF Done:  E(RB3LYP) =  -233.237812321     A.U. after   11 cycles
 SCF Done:  E(RB3LYP) =  -233.268336930     A.U. after   11 cycles
 SCF Done:  E(RB3LYP) =  -233.269097699     A.U. after   11 cycles
 SCF Done:  E(RB3LYP) =  -233.273598056     A.U. after   11 cycles
 SCF Done:  E(RB3LYP) =  -233.280686945     A.U. after   10 cycles
 SCF Done:  E(RB3LYP) =  -233.293299320     A.U. after   11 cycles
 SCF Done:  E(RB3LYP) =  -233.335147213     A.U. after   10 cycles
 SCF Done:  E(RB3LYP) =  -233.337210443     A.U. after   10 cycles
 SCF Done:  E(RB3LYP) =  -233.337963422     A.U. after    9 cycles
 SCF Done:  E(RB3LYP) =  -233.338644266     A.U. after   10 cycles
 SCF Done:  E(RB3LYP) =  -233.339026568     A.U. after    9 cycles
 SCF Done:  E(RB3LYP) =  -233.339163588     A.U. after    8 cycles
 SCF Done:  E(RB3LYP) =  -233.339209089     A.U. after    8 cycles
 SCF Done:  E(RB3LYP) =  -233.339212373     A.U. after    7 cycles
 SCF Done:  E(RB3LYP) =  -233.339212164     A.U. after    6 cycles
 Optimization completed.
    -- Stationary point found.
 Normal termination of Gaussian 16 at Sun May 28 02:21:46 2023.

 ----------------------------------------------------------------------
 #N Geom=AllCheck Guess=TCheck SCRF=Check GenChk RB3LYP/6-31G(2df,p) Fr
 eq
 ----------------------------------------------------------------------

 Structure from the checkpoint file:  "C1C2C3CC2C13.chk"
 -------------------
 Title Card Required
 -------------------
 Charge =  0 Multiplicity = 1

                         Standard orientation:
 ---------------------------------------------------------------------
 Center     Atomic      Atomic             Coordinates (Angstroms)
 Number     Number       Type             X           Y           Z
 ---------------------------------------------------------------------
      1          6           0        1.632728   -0.000043   -0.000014
      2          6           0        0.413544   -0.537187    0.774958
      3          6           0       -0.413490    0.775027    0.537165
      4          6           0       -1.632717    0.000019   -0.000009
      5          6           0       -0.413592   -0.775041   -0.537126
      6          6           0        0.413563    0.537170   -0.775032
      7          1           0        2.257399   -0.739316   -0.512434
      8          1           0        2.256829    0.739598    0.512629
      9          1           0        0.381889   -1.158639    1.671741
     10          1           0       -0.381959    1.671806    1.158635
     11          1           0       -2.257198    0.512516   -0.739399
     12          1           0       -2.256981   -0.512484    0.739569
     13          1           0       -0.382028   -1.671805   -1.158620
     14          1           0        0.381828    1.158661   -1.671770
 ---------------------------------------------------------------------

 SCF Done:  E(RB3LYP) =  -233.339212164     A.U. after    1 cycles

 The electronic state is 1-A.
 Alpha  occ. eigenvalues --  -10.19350 -10.19330 -10.19330 -10.19315 -10.17773
 Alpha  occ. eigenvalues --  -10.17773  -0.93256  -0.73606  -0.62548  -0.62546
 Alpha  occ. eigenvalues --   -0.60370  -0.49889  -0.49457  -0.45725  -0.42512
 Alpha  occ. eigenvalues --   -0.42511  -0.31641  -0.31640  -0.29632  -0.29251
 Alpha  occ. eigenvalues --   -0.29249  -0.28937
 Alpha virt. eigenvalues --    0.10642   0.12630   0.13056   0.13291   0.13292
 Alpha virt. eigenvalues --    0.15786   0.16320   0.18190   0.18190   0.20017
 Alpha virt. eigenvalues --    0.20030   0.20223   0.20224   0.24228   0.24229

 Mulliken charges:
               1
     1  C   -0.256394
     2  C   -0.027054
     3  C   -0.027067
     4  C   -0.256371
     5  C   -0.027065
     6  C   -0.027077
     7  H    0.088887
     8  H    0.088868
     9  H    0.066377
    10  H    0.066385
    11  H    0.088878
    12  H    0.088865
    13  H    0.066379
    14  H    0.066388
 Sum of Mulliken charges =  -0.00000

 Dipole moment (field-independent basis, Debye):
    X=              0.0000    Y=              0.0001    Z=             -0.0000  Tot=              0.0001
 Quadrupole moment (field-independent basis, Debye-Ang):
   XX=            -37.3261   YY=            -36.2840   ZZ=            -36.2843
   XY=             -0.0007   XZ=             -0.0001   YZ=              0.0000

  Exact polarizability:  64.085  -0.000  53.925  -0.000   0.000  53.924
 Approx polarizability:  86.830  -0.000  83.049  -0.000   0.000  83.045

                      1                      2                      3
                      A                      A                      A
 Frequencies --    403.9148               403.9338               714.4172
 Red. masses --      1.8934                 1.8934                 3.3681
 Frc consts  --      0.1820                 0.1820                 1.0129
 IR Inten    --      0.6748                 0.6756                 0.0000

                      4                      5                      6
                      A                      A                      A
 Frequencies --    760.8761               848.3503               848.4756
 Red. masses --      4.0928                 2.0543                 2.0538
 Frc consts  --      1.3960                 0.8711                 0.8711
 IR Inten    --      0.0000                 0.8530                 0.8540

                      7                      8                      9
                      A                      A                      A
 Frequencies --    863.9869               863.9959               898.0479
 Red. masses --      2.0671                 2.0672                 1.8447
 Frc consts  --      0.9091                 0.9092                 0.8765
 IR Inten    --      1.0163                 1.0159                 0.0000

                     10                     11                     12
                      A                      A                      A
 Frequencies --    932.1456               961.5161              1007.0976
 Red. masses --      2.6653                 1.0459                 2.9725
 Frc consts  --      1.3645                 0.5697                 1.7763
 IR Inten    --      0.0904                 0.0000                 0.7024

                     13                     14                     15
                      A                      A                      A
 Frequencies --   1023.1863              1027.6074              1027.6240
 Red. masses --      1.0180                 1.3017                 1.3017
 Frc consts  --      0.6279                 0.8099                 0.8099
 IR Inten    --      0.0000                 0.4350                 0.4351

                     16                     17                     18
                      A                      A                      A
 Frequencies --   1124.5762              1125.0107              1147.1683
 Red. masses --      1.2284                 5.0034                 1.7426
 Frc consts  --      0.9153                 3.7310                 1.3511
 IR Inten    --      0.0000                 0.0000                 0.0680

                     19                     20                     21
                      A                      A                      A
 Frequencies --   1147.2122              1166.3918              1191.7463
 Red. masses --      1.7428                 1.4031                 1.6001
 Frc consts  --      1.3514                 1.1247                 1.3390
 IR Inten    --      0.0687                 0.0000                 4.3438

                     22                     23                     24
                      A                      A                      A
 Frequencies --   1191.7646              1248.0470              1248.0747
 Red. masses --      1.5999                 1.6662                 1.6664
 Frc consts  --      1.3388                 1.5291                 1.5293
 IR Inten    --      4.3424                14.8806                14.8806

                     25                     26                     27
                      A                      A                      A
 Frequencies --   1286.3678              1317.7474              1508.3466
 Red. masses --      1.7024                 2.0570                 1.1264
 Frc consts  --      1.6597                 2.1045                 1.5099
 IR Inten    --      3.0981                 0.0000                 0.0000

                     28                     29                     30
                      A                      A                      A
 Frequencies --   1509.4107              3031.8112              3033.6318
 Red. masses --      1.1421                 1.0544                 1.0540
 Frc consts  --      1.5331                 5.7102                 5.7151
 IR Inten    --      0.0105               123.0270                 0.0086

                     31                     32                     33
                      A                      A                      A
 Frequencies --   3087.0663              3088.8240              3088.8664
 Red. masses --      1.0857                 1.1095                 1.1095
 Frc consts  --      6.0961                 6.2366                 6.2368
 IR Inten    --      1.2473                30.6045                30.7092

                     34                     35                     36
                      A                      A                      A
 Frequencies --   3092.7272              3092.8216              3108.2649
 Red. masses --      1.0895                 1.0895                 1.0980
 Frc consts  --      6.1399                 6.1402                 6.2504
 IR Inten    --    126.1531               126.0586                 0.0008

 - Thermochemistry -
 -------------------
 Temperature   298.150 Kelvin.  Pressure   1.00000 Atm.
 Atom     1 has atomic number  6 and mass  12.00000

 Molecular mass:    80.06260 amu.
 Principal axes and moments of inertia in atomic units:
                           1         2         3
     Eigenvalues --   223.63113 445.03897 445.04825
           X            1.00000   0.00000   0.00000
           Y           -0.00000   0.99975   0.02235
           Z           -0.00000  -0.02235   0.99975
 This molecule is an asymmetric top.
 Rotational symmetry number  1.
 Rotational temperatures (Kelvin)      0.38731     0.19462     0.19462
 Rotational constants (GHZ):           8.07017     4.05524     4.05516
 Zero-point vibrational energy     319528.9 (Joules/Mol)
                                   76.36923 (Kcal/Mol)
 Warning -- explicit consideration of   2 degrees of freedom as
           vibrations may cause significant error
 Vibrational temperatures:    581.14   581.17  1027.89  1094.73  1220.59
          (Kelvin)           1220.77  1243.08  1243.10  1292.09  1341.15
                             1383.41  1448.99  1472.14  1478.50  1478.52
                             1618.01  1618.64  1650.52  1650.58  1678.18
                             1714.66  1714.68  1795.66  1795.70  1850.80
                             1895.94  2170.17  2171.71  4362.10  4364.72
                             4441.60  4444.13  4444.19  4449.74  4449.88
                             4472.10

 Zero-point correction=                           0.121702 (Hartree/Particle)
 Thermal correction to Energy=                    0.126078
 Thermal correction to Enthalpy=                  0.127023
 Thermal correction to Gibbs Free Energy=         0.094403
 Sum of electronic and zero-point Energies=           -233.217510
 Sum of electronic and thermal Energies=              -233.213134
 Sum of electronic and thermal Enthalpies=            -233.212190
 Sum of electronic and thermal Free Energies=         -233.244809

                     E (Thermal)             CV                S
                      KCal/Mol        Cal/Mol-Kelvin    Cal/Mol-Kelvin
 Total                   79.115             17.898             68.654
 Electronic               0.000              0.000              0.000
 Translational            0.889              2.981             39.055
 Rotational               0.889              2.981             25.297
 Vibrational             77.338             11.936              4.302
 Vibration     1          0.769              1.462              0.948
 Vibration     2          0.769              1.462              0.948

 Optimization completed.
    -- Stationary point found.
 Normal termination of Gaussian 16 at Sun May 28 02:33:18 2023.
