 Gaussian 16, Revision A.03,
 Gaussian 16:  ES64L-G16RevA.03 25-Dec-2016

 -----------------------------
 # opt freq b3lyp/6-31g(2df,p)
 -----------------------------

 -------------------
 Title Card Required
 -------------------
 Symbolic Z-matrix:
 Charge =  0 Multiplicity = 1

 SCF Done:  E(RB3LYP) =  -349.992227377     A.U. after   12 cycles
 SCF Done:  E(RB3LYP) =  -350.021499823     A.U. after   10 cycles
 SCF Done:  E(RB3LYP) =  -350.031952022     A.U. after   10 cycles
 SCF Done:  E(RB3LYP) =  -350.033932100     A.U. after   10 cycles
 SCF Done:  E(RB3LYP) =  -350.034295361     A.U. after   10 cycles
 SCF Done:  E(RB3LYP) =  -350.034345173     A.U. after    8 cycles
 SCF Done:  E(RB3LYP) =  -350.034351123     A.U. after    7 cycles
 SCF Done:  E(RB3LYP) =  -350.034355190     A.U. after    6 cycles
 Optimization completed.
    -- Stationary point found.
 Normal termination of Gaussian 16 at Sun May 28 00:29:57 2023.

 ----------------------------------------------------------------------
 #N Geom=AllCheck Guess=TCheck SCRF=Check GenChk RB3LYP/6-31G(2df,p) Fr
 eq
 ----------------------------------------------------------------------

 Structure from the checkpoint file:  "C1C2CC1C21C2CC1C2.chk"
 -------------------
 Title Card Required
 -------------------
 Charge =  0 Multiplicity = 1

                         Standard orientation:
 ---------------------------------------------------------------------
 Center     Atomic      Atomic             Coordinates (Angstroms)
 Number     Number       Type             X           Y           Z
 ---------------------------------------------------------------------
      1          6           0        1.845743    1.025264   -0.317969
      2          6           0        1.228455    0.280581    0.904711
      3          6           0        1.845481   -1.025494    0.317928
      4          6           0        1.228427   -0.280530   -0.904816
      5          6           0        0.000012    0.000066   -0.000110
      6          6           0       -1.228440   -0.904721    0.280597
      7          6           0       -1.845991   -0.317979   -1.025184
      8          6           0       -1.228413    0.904685   -0.280678
      9          6           0       -1.845355    0.318107    1.025442
     10          1           0        2.937183    1.091359   -0.338554
     11          1           0        1.382437    1.970282   -0.611005
     12          1           0        1.241874    0.603867    1.946611
     13          1           0        1.381766   -1.970315    0.610901
     14          1           0        2.936884   -1.091956    0.338580
     15          1           0        1.241828   -0.603412   -1.946846
     16          1           0       -1.241564   -1.946693    0.603774
     17          1           0       -2.937427   -0.338445   -1.091131
     18          1           0       -1.382644   -0.611100   -1.970120
     19          1           0       -1.241671    1.946652   -0.603881
     20          1           0       -2.936745    0.338752    1.092005
     21          1           0       -1.381431    0.611131    1.970130
 ---------------------------------------------------------------------

 SCF Done:  E(RB3LYP) =  -350.034355190     A.U. after    1 cycles

 The electronic state is 1-A.
 Alpha  occ. eigenvalues --  -10.19684 -10.19177 -10.19177 -10.19175 -10.19175
 Alpha  occ. eigenvalues --  -10.18193 -10.18192 -10.18191 -10.18191  -0.92382
 Alpha  occ. eigenvalues --   -0.87811  -0.66153  -0.66153  -0.64405  -0.61539
 Alpha  occ. eigenvalues --   -0.61538  -0.56794  -0.49413  -0.49367  -0.48441
 Alpha  occ. eigenvalues --   -0.45044  -0.41653  -0.41652  -0.36974  -0.33275
 Alpha  occ. eigenvalues --   -0.33275  -0.32858  -0.31562  -0.30536  -0.30534
 Alpha  occ. eigenvalues --   -0.28918  -0.28122  -0.28119
 Alpha virt. eigenvalues --    0.10689   0.11612   0.11613   0.11844   0.13672
 Alpha virt. eigenvalues --    0.14921   0.14953   0.16209   0.16398   0.16399
 Alpha virt. eigenvalues --    0.18030   0.18119   0.18119   0.18789   0.19045

 Mulliken charges:
               1
     1  C   -0.224636
     2  C   -0.161748
     3  C   -0.224693
     4  C   -0.161816
     5  C    0.568839
     6  C   -0.161751
     7  C   -0.224683
     8  C   -0.161797
     9  C   -0.224645
    10  H    0.086286
    11  H    0.090952
    12  H    0.066983
    13  H    0.090977
    14  H    0.086304
    15  H    0.066972
    16  H    0.066972
    17  H    0.086323
    18  H    0.090951
    19  H    0.066959
    20  H    0.086289
    21  H    0.090962
 Sum of Mulliken charges =  -0.00000

 Dipole moment (field-independent basis, Debye):
    X=              0.0000    Y=              0.0000    Z=              0.0000  Tot=              0.0001
 Quadrupole moment (field-independent basis, Debye-Ang):
   XX=            -55.1974   YY=            -55.0002   ZZ=            -55.0000
   XY=              0.0001   XZ=              0.0005   YZ=             -0.0001

  Exact polarizability: 100.703   0.000  80.191   0.001  -0.001  80.188
 Approx polarizability: 133.962   0.001 126.484   0.002  -0.002 126.479

                      1                      2                      3
                      A                      A                      A
 Frequencies --    204.4381               219.5499               219.6033
 Red. masses --      2.8384                 2.9011                 2.9013
 Frc consts  --      0.0699                 0.0824                 0.0824
 IR Inten    --      0.0000                 0.0777                 0.0778

                      4                      5                      6
                      A                      A                      A
 Frequencies --    407.3823               531.8066               531.8270
 Red. masses --      3.0578                 2.7286                 2.7287
 Frc consts  --      0.2990                 0.4547                 0.4547
 IR Inten    --      0.0000                 0.0274                 0.0273

                      7                      8                      9
                      A                      A                      A
 Frequencies --    551.0243               609.2458               792.8904
 Red. masses --      1.7752                 2.1277                 3.0417
 Frc consts  --      0.3176                 0.4653                 1.1267
 IR Inten    --      1.5271                 0.0000                 0.0000

                     10                     11                     12
                      A                      A                      A
 Frequencies --    808.8121               808.8193               813.1523
 Red. masses --      2.7834                 2.7832                 2.6789
 Frc consts  --      1.0728                 1.0728                 1.0437
 IR Inten    --      0.3273                 0.3283                 0.0001

                     13                     14                     15
                      A                      A                      A
 Frequencies --    897.1897               897.2343               897.6605
 Red. masses --      1.9842                 1.9814                 2.9520
 Frc consts  --      0.9410                 0.9398                 1.4015
 IR Inten    --      0.0973                 0.0967                 0.0008

                     16                     17                     18
                      A                      A                      A
 Frequencies --    899.6782               939.6296               939.6369
 Red. masses --      2.4315                 1.8374                 1.8375
 Frc consts  --      1.1596                 0.9558                 0.9559
 IR Inten    --      0.8189                 3.6088                 3.6098

                     19                     20                     21
                      A                      A                      A
 Frequencies --   1010.3446              1011.9366              1019.0752
 Red. masses --      2.3303                 1.0138                 1.0125
 Frc consts  --      1.4016                 0.6116                 0.6195
 IR Inten    --      6.1378                 0.0000                 0.0000

                     22                     23                     24
                      A                      A                      A
 Frequencies --   1025.0801              1025.1116              1079.1306
 Red. masses --      1.1721                 1.1725                 1.3315
 Frc consts  --      0.7257                 0.7259                 0.9136
 IR Inten    --      1.9285                 1.9327                 0.0000

                     25                     26                     27
                      A                      A                      A
 Frequencies --   1085.7937              1087.3929              1087.4578
 Red. masses --      1.8307                 1.7701                 1.7693
 Frc consts  --      1.2717                 1.2332                 1.2327
 IR Inten    --      0.0000                 0.1967                 0.1954

                     28                     29                     30
                      A                      A                      A
 Frequencies --   1098.2448              1111.5760              1124.3354
 Red. masses --      1.4102                 2.3942                 2.7417
 Frc consts  --      1.0021                 1.7429                 2.0421
 IR Inten    --      0.0000                 0.6982                 0.0000

                     31                     32                     33
                      A                      A                      A
 Frequencies --   1181.4631              1181.4901              1185.8435
 Red. masses --      1.4552                 1.4553                 2.2362
 Frc consts  --      1.1967                 1.1969                 1.8528
 IR Inten    --      1.7763                 1.7805                 1.4184

                     34                     35                     36
                      A                      A                      A
 Frequencies --   1193.4007              1195.6501              1242.2713
 Red. masses --      1.3606                 1.3871                 1.6471
 Frc consts  --      1.1417                 1.1683                 1.4976
 IR Inten    --      0.0000                 0.0001                 8.0408

                     37                     38                     39
                      A                      A                      A
 Frequencies --   1242.3340              1250.2191              1250.6624
 Red. masses --      1.6470                 1.6956                 1.7541
 Frc consts  --      1.4977                 1.5616                 1.6165
 IR Inten    --      8.0588                 0.0083                 2.1821

                     40                     41                     42
                      A                      A                      A
 Frequencies --   1250.7429              1366.4276              1496.6040
 Red. masses --      1.7541                 3.3645                 1.0970
 Frc consts  --      1.6167                 3.7012                 1.4477
 IR Inten    --      2.1667                25.3825                 0.5802

                     43                     44                     45
                      A                      A                      A
 Frequencies --   1496.6511              1532.0958              1535.8038
 Red. masses --      1.0970                 1.1286                 1.1564
 Frc consts  --      1.4478                 1.5609                 1.6071
 IR Inten    --      0.5788                 0.0000                 1.6131

                     46                     47                     48
                      A                      A                      A
 Frequencies --   3050.2626              3050.3748              3051.9891
 Red. masses --      1.0545                 1.0545                 1.0537
 Frc consts  --      5.7806                 5.7810                 5.7828
 IR Inten    --     51.3272                51.3502                 0.3594

                     49                     50                     51
                      A                      A                      A
 Frequencies --   3052.7399              3096.0443              3096.3494
 Red. masses --      1.0538                 1.0903                 1.0903
 Frc consts  --      5.7860                 6.1574                 6.1587
 IR Inten    --     92.4547                88.3488                88.1463

                     52                     53                     54
                      A                      A                      A
 Frequencies --   3100.7387              3104.1695              3116.4122
 Red. masses --      1.0932                 1.0932                 1.1103
 Frc consts  --      6.1927                 6.2062                 6.3532
 IR Inten    --      3.4242                 0.0063                39.1593

                     55                     56                     57
                      A                      A                      A
 Frequencies --   3116.6113              3119.0074              3119.2242
 Red. masses --      1.1103                 1.1098                 1.1097
 Frc consts  --      6.3540                 6.3611                 6.3611
 IR Inten    --     39.2741                83.2270                30.0256

 - Thermochemistry -
 -------------------
 Temperature   298.150 Kelvin.  Pressure   1.00000 Atm.
 Atom     1 has atomic number  6 and mass  12.00000

 Molecular mass:   120.09390 amu.
 Principal axes and moments of inertia in atomic units:
                           1         2         3
     Eigenvalues --   491.211351262.043621262.05201
           X            1.00000   0.00000  -0.00000
           Y           -0.00000   0.99545  -0.09527
           Z            0.00000   0.09527   0.99545
 This molecule is an asymmetric top.
 Rotational symmetry number  1.
 Warning -- assumption of classical behavior for rotation
           may cause significant error
 Rotational temperatures (Kelvin)      0.17633     0.06863     0.06863
 Rotational constants (GHZ):           3.67406     1.43001     1.43001
 Zero-point vibrational energy     486943.8 (Joules/Mol)
                                  116.38236 (Kcal/Mol)
 Warning -- explicit consideration of   8 degrees of freedom as
           vibrations may cause significant error
 Vibrational temperatures:    294.14   315.88   315.96   586.13   765.15
          (Kelvin)            765.18   792.80   876.57  1140.79  1163.70
                             1163.71  1169.94  1290.86  1290.92  1291.53
                             1294.44  1351.92  1351.93  1453.66  1455.95
                             1466.22  1474.86  1474.91  1552.63  1562.21
                             1564.52  1564.61  1580.13  1599.31  1617.67
                             1699.86  1699.90  1706.16  1717.04  1720.27
                             1787.35  1787.44  1798.79  1799.42  1799.54
                             1965.98  2153.28  2153.35  2204.34  2209.68
                             4388.65  4388.81  4391.13  4392.21  4454.52
                             4454.96  4461.27  4466.21  4483.82  4484.11
                             4487.56  4487.87

 Zero-point correction=                           0.185467 (Hartree/Particle)
 Thermal correction to Energy=                    0.192115
 Thermal correction to Enthalpy=                  0.193060
 Thermal correction to Gibbs Free Energy=         0.154834
 Sum of electronic and zero-point Energies=           -349.848888
 Sum of electronic and thermal Energies=              -349.842240
 Sum of electronic and thermal Enthalpies=            -349.841296
 Sum of electronic and thermal Free Energies=         -349.879522

                     E (Thermal)             CV                S
                      KCal/Mol        Cal/Mol-Kelvin    Cal/Mol-Kelvin
 Total                  120.554             28.976             80.453
 Electronic               0.000              0.000              0.000
 Translational            0.889              2.981             40.264
 Rotational               0.889              2.981             28.150
 Vibrational            118.777             23.014             12.040
 Vibration     1          0.640              1.834              2.093
 Vibration     2          0.647              1.811              1.963
 Vibration     3          0.647              1.811              1.962
 Vibration     4          0.772              1.454              0.936
 Vibration     5          0.887              1.180              0.583
 Vibration     6          0.887              1.180              0.583
 Vibration     7          0.906              1.137              0.542
 Vibration     8          0.968              1.012              0.434

 Optimization completed.
    -- Stationary point found.
 Normal termination of Gaussian 16 at Sun May 28 01:04:50 2023.
