 Gaussian 16, Revision A.03,
 Gaussian 16:  ES64L-G16RevA.03 25-Dec-2016

 -----------------------------
 # opt freq b3lyp/6-31g(2df,p)
 -----------------------------

 -------------------
 Title Card Required
 -------------------
 Symbolic Z-matrix:
 Charge =  0 Multiplicity = 1

 SCF Done:  E(RB3LYP) =  -195.259430632     A.U. after   11 cycles
 SCF Done:  E(RB3LYP) =  -195.274507961     A.U. after   10 cycles
 SCF Done:  E(RB3LYP) =  -195.275502611     A.U. after   10 cycles
 SCF Done:  E(RB3LYP) =  -195.275583152     A.U. after    8 cycles
 SCF Done:  E(RB3LYP) =  -195.275585895     A.U. after    6 cycles
 Optimization completed.
    -- Stationary point found.
 Normal termination of Gaussian 16 at Sat May 27 20:56:55 2023.

 ----------------------------------------------------------------------
 #N Geom=AllCheck Guess=TCheck SCRF=Check GenChk RB3LYP/6-31G(2df,p) Fr
 eq
 ----------------------------------------------------------------------

 Structure from the checkpoint file:  "C1C2CC1C2.chk"
 -------------------
 Title Card Required
 -------------------
 Charge =  0 Multiplicity = 1

                         Standard orientation:
 ---------------------------------------------------------------------
 Center     Atomic      Atomic             Coordinates (Angstroms)
 Number     Number       Type             X           Y           Z
 ---------------------------------------------------------------------
      1          6           0       -0.908627   -0.845203   -0.000034
      2          6           0        0.000015   -0.000019   -0.939763
      3          6           0        1.186469   -0.363956   -0.000112
      4          6           0        0.000125   -0.000140    0.939818
      5          6           0       -0.278029    1.209133    0.000116
      6          1           0       -0.744434   -1.926596   -0.000108
      7          1           0       -1.975307   -0.602973    0.000152
      8          1           0        0.000046    0.000329   -2.030856
      9          1           0        2.040382    0.319660   -0.000028
     10          1           0        1.510962   -1.408515   -0.000285
     11          1           0        0.000494   -0.000266    2.030906
     12          1           0        0.464879    2.011982    0.000041
     13          1           0       -1.296737    1.607489    0.000029
 ---------------------------------------------------------------------

 SCF Done:  E(RB3LYP) =  -195.275585895     A.U. after    1 cycles

 The electronic state is 1-A.
 Alpha  occ. eigenvalues --  -10.19627 -10.19624 -10.18170 -10.18169 -10.18167
 Alpha  occ. eigenvalues --   -0.90465  -0.65934  -0.65927  -0.61788  -0.53057
 Alpha  occ. eigenvalues --   -0.49063  -0.44407  -0.44401  -0.34643  -0.32208
 Alpha  occ. eigenvalues --   -0.32203  -0.31036  -0.31027  -0.29739
 Alpha virt. eigenvalues --    0.10818   0.12501   0.15071   0.15073   0.15082
 Alpha virt. eigenvalues --    0.16569   0.16576   0.16726   0.16732   0.22034
 Alpha virt. eigenvalues --    0.22041   0.23622   0.24457   0.25066   0.47418

 Mulliken charges:
               1
     1  C   -0.201517
     2  C   -0.023817
     3  C   -0.201540
     4  C   -0.023847
     5  C   -0.201437
     6  H    0.086435
     7  H    0.086497
     8  H    0.066696
     9  H    0.086481
    10  H    0.086473
    11  H    0.066710
    12  H    0.086403
    13  H    0.086465
 Sum of Mulliken charges =  -0.00000

 Dipole moment (field-independent basis, Debye):
    X=             -0.0001    Y=              0.0001    Z=             -0.0000  Tot=              0.0002
 Quadrupole moment (field-independent basis, Debye-Ang):
   XX=            -31.5447   YY=            -31.5473   ZZ=            -31.7748
   XY=             -0.0012   XZ=              0.0003   YZ=             -0.0005

  Exact polarizability:  51.648  -0.000  51.640   0.001  -0.001  46.162
 Approx polarizability:  73.337  -0.001  73.324   0.001  -0.000  69.085

                      1                      2                      3
                      A                      A                      A
 Frequencies --    538.3904               538.4376               782.4406
 Red. masses --      1.7817                 1.7816                 2.7602
 Frc consts  --      0.3043                 0.3043                 0.9956
 IR Inten    --      0.2610                 0.2617                 0.0000

                      4                      5                      6
                      A                      A                      A
 Frequencies --    782.6551               852.2623               906.2672
 Red. masses --      2.7607                 2.2965                 2.0071
 Frc consts  --      0.9964                 0.9828                 0.9713
 IR Inten    --      0.0000                 2.7446                 0.1928

                      7                      8                      9
                      A                      A                      A
 Frequencies --    906.4687               906.8956               961.4260
 Red. masses --      2.0262                 5.0765                 1.2548
 Frc consts  --      0.9809                 2.4600                 0.6834
 IR Inten    --      0.1915                 0.0089                 0.0000

                     10                     11                     12
                      A                      A                      A
 Frequencies --    998.9360              1026.9993              1027.0717
 Red. masses --      1.0078                 1.0327                 1.0327
 Frc consts  --      0.5925                 0.6417                 0.6419
 IR Inten    --      0.0000                 0.0000                 0.0000

                     13                     14                     15
                      A                      A                      A
 Frequencies --   1116.1096              1116.2165              1120.8971
 Red. masses --      1.5945                 1.5949                 4.4007
 Frc consts  --      1.1703                 1.1708                 3.2577
 IR Inten    --      0.5184                 0.5232                 0.0001

                     16                     17                     18
                      A                      A                      A
 Frequencies --   1147.0961              1147.2536              1209.4283
 Red. masses --      1.3358                 1.3352                 1.4169
 Frc consts  --      1.0356                 1.0354                 1.2211
 IR Inten    --      0.0000                 0.0000                 0.0000

                     19                     20                     21
                      A                      A                      A
 Frequencies --   1209.4845              1257.8523              1265.6326
 Red. masses --      1.4170                 1.6476                 1.7595
 Frc consts  --      1.2213                 1.5359                 1.6606
 IR Inten    --      0.0000                23.5347                 0.7679

                     22                     23                     24
                      A                      A                      A
 Frequencies --   1265.7305              1499.1077              1499.1675
 Red. masses --      1.7603                 1.0982                 1.0982
 Frc consts  --      1.6616                 1.4541                 1.4543
 IR Inten    --      0.7702                 0.0070                 0.0072

                     25                     26                     27
                      A                      A                      A
 Frequencies --   1550.9611              3042.0968              3042.2483
 Red. masses --      1.1486                 1.0537                 1.0537
 Frc consts  --      1.6279                 5.7455                 5.7460
 IR Inten    --      0.0000                76.3009                76.9145

                     28                     29                     30
                      A                      A                      A
 Frequencies --   3047.5274              3095.4221              3102.1638
 Red. masses --      1.0532                 1.0896                 1.0942
 Frc consts  --      5.7633                 6.1512                 6.2041
 IR Inten    --      0.0119               133.2021                 0.0059

                     31                     32                     33
                      A                      A                      A
 Frequencies --   3104.1045              3109.8282              3109.9884
 Red. masses --      1.1124                 1.1102                 1.1102
 Frc consts  --      6.3153                 6.3259                 6.3265
 IR Inten    --      0.0351                65.2666                65.8845

 - Thermochemistry -
 -------------------
 Temperature   298.150 Kelvin.  Pressure   1.00000 Atm.
 Atom     1 has atomic number  6 and mass  12.00000

 Molecular mass:    68.06260 amu.
 Principal axes and moments of inertia in atomic units:
                           1         2         3
     Eigenvalues --   250.36773 250.46652 290.06675
           X            0.99999   0.00487   0.00002
           Y           -0.00487   0.99999  -0.00005
           Z           -0.00002   0.00005   1.00000
 This molecule is an asymmetric top.
 Rotational symmetry number  1.
 Rotational temperatures (Kelvin)      0.34595     0.34581     0.29860
 Rotational constants (GHZ):           7.20836     7.20552     6.22181
 Zero-point vibrational energy     306761.8 (Joules/Mol)
                                   73.31783 (Kcal/Mol)
 Warning -- explicit consideration of   2 degrees of freedom as
           vibrations may cause significant error
 Vibrational temperatures:    774.62   774.69  1125.76  1126.07  1226.22
          (Kelvin)           1303.92  1304.21  1304.82  1383.28  1437.25
                             1477.62  1477.73  1605.83  1605.99  1612.72
                             1650.42  1650.64  1740.10  1740.18  1809.77
                             1820.96  1821.10  2156.88  2156.97  2231.49
                             4376.90  4377.12  4384.71  4453.62  4463.32
                             4466.11  4474.35  4474.58

 Zero-point correction=                           0.116839 (Hartree/Particle)
 Thermal correction to Energy=                    0.120799
 Thermal correction to Enthalpy=                  0.121743
 Thermal correction to Gibbs Free Energy=         0.090385
 Sum of electronic and zero-point Energies=           -195.158746
 Sum of electronic and thermal Energies=              -195.154787
 Sum of electronic and thermal Enthalpies=            -195.153843
 Sum of electronic and thermal Free Energies=         -195.185201

                     E (Thermal)             CV                S
                      KCal/Mol        Cal/Mol-Kelvin    Cal/Mol-Kelvin
 Total                   75.802             15.583             65.998
 Electronic               0.000              0.000              0.000
 Translational            0.889              2.981             38.571
 Rotational               0.889              2.981             24.412
 Vibrational             74.025              9.621              3.014
 Vibration     1          0.893              1.165              0.569
 Vibration     2          0.893              1.165              0.569

 Optimization completed.
    -- Stationary point found.
 Normal termination of Gaussian 16 at Sat May 27 21:05:03 2023.
