 Gaussian 16, Revision A.03,
 Gaussian 16:  ES64L-G16RevA.03 25-Dec-2016

 -----------------------------
 # opt freq b3lyp/6-31g(2df,p)
 -----------------------------

 -------------------
 Title Card Required
 -------------------
 Symbolic Z-matrix:
 Charge =  0 Multiplicity = 1

 SCF Done:  E(RB3LYP) =  -312.046179520     A.U. after   11 cycles
 SCF Done:  E(RB3LYP) =  -312.053650904     A.U. after   10 cycles
 SCF Done:  E(RB3LYP) =  -312.054258294     A.U. after    9 cycles
 SCF Done:  E(RB3LYP) =  -312.054387685     A.U. after    9 cycles
 SCF Done:  E(RB3LYP) =  -312.054440014     A.U. after    7 cycles
 SCF Done:  E(RB3LYP) =  -312.054435680     A.U. after    6 cycles
 SCF Done:  E(RB3LYP) =  -312.054434718     A.U. after    6 cycles
 Optimization completed.
    -- Stationary point found.
 Normal termination of Gaussian 16 at Sun May 28 09:27:08 2023.

 ----------------------------------------------------------------------
 #N Geom=AllCheck Guess=TCheck SCRF=Check GenChk RB3LYP/6-31G(2df,p) Fr
 eq
 ----------------------------------------------------------------------

 Structure from the checkpoint file:  "C1C2CC3CC2CC13.chk"
 -------------------
 Title Card Required
 -------------------
 Charge =  0 Multiplicity = 1

                         Standard orientation:
 ---------------------------------------------------------------------
 Center     Atomic      Atomic             Coordinates (Angstroms)
 Number     Number       Type             X           Y           Z
 ---------------------------------------------------------------------
      1          6           0        1.155634    1.159195    0.000239
      2          6           0       -0.001416    0.811261   -0.967424
      3          6           0       -1.159656    1.155244   -0.000114
      4          6           0       -0.811069   -0.001479    0.967573
      5          6           0       -1.155051   -1.159471    0.000032
      6          6           0        0.001474   -0.810659   -0.967792
      7          6           0        1.159157   -1.155289   -0.000191
      8          6           0        0.810874    0.001419    0.967680
      9          1           0        1.054855    2.165821    0.413495
     10          1           0        2.162602    1.061392   -0.412954
     11          1           0       -0.001976    1.285101   -1.948785
     12          1           0       -2.166246    1.053770   -0.413379
     13          1           0       -1.062654    2.162206    0.413185
     14          1           0       -1.284843   -0.002254    1.948982
     15          1           0       -2.162068   -1.062479   -0.413164
     16          1           0       -1.053355   -2.166079    0.413196
     17          1           0        0.002133   -1.284166   -1.949328
     18          1           0        2.165855   -1.054227   -0.413269
     19          1           0        1.061471   -2.162307    0.412886
     20          1           0        1.284544    0.001896    1.949126
 ---------------------------------------------------------------------

 SCF Done:  E(RB3LYP) =  -312.054434718     A.U. after    1 cycles

 The electronic state is 1-A.
 Alpha  occ. eigenvalues --  -10.18084 -10.18083 -10.18071 -10.18071 -10.16880
 Alpha  occ. eigenvalues --  -10.16878 -10.16877 -10.16876  -0.88870  -0.73999
 Alpha  occ. eigenvalues --   -0.73997  -0.68432  -0.62892  -0.57276  -0.52434
 Alpha  occ. eigenvalues --   -0.52433  -0.50289  -0.48307  -0.43371  -0.43370
 Alpha  occ. eigenvalues --   -0.35860  -0.35857  -0.35161  -0.33454  -0.31908
 Alpha  occ. eigenvalues --   -0.31907  -0.30795  -0.29950  -0.29852  -0.27752
 Alpha virt. eigenvalues --    0.09738   0.11394   0.13111   0.13111   0.14287
 Alpha virt. eigenvalues --    0.14289   0.14479   0.16065   0.17938   0.18206
 Alpha virt. eigenvalues --    0.18207   0.20297   0.21789   0.22190   0.22190

 Mulliken charges:
               1
     1  C   -0.195033
     2  C   -0.029281
     3  C   -0.195049
     4  C   -0.029257
     5  C   -0.194974
     6  C   -0.029212
     7  C   -0.194967
     8  C   -0.029236
     9  H    0.084551
    10  H    0.084648
    11  H    0.055077
    12  H    0.084636
    13  H    0.084581
    14  H    0.055090
    15  H    0.084534
    16  H    0.084592
    17  H    0.055100
    18  H    0.084532
    19  H    0.084575
    20  H    0.055092
 Sum of Mulliken charges =  -0.00000

 Dipole moment (field-independent basis, Debye):
    X=             -0.0000    Y=              0.0001    Z=              0.0000  Tot=              0.0001
 Quadrupole moment (field-independent basis, Debye-Ang):
   XX=            -49.7799   YY=            -49.7817   ZZ=            -49.5781
   XY=              0.0000   XZ=             -0.0001   YZ=             -0.0000

  Exact polarizability:  78.690  -0.000  78.688  -0.000   0.000  71.269
 Approx polarizability: 114.394  -0.000 114.390  -0.000  -0.001 109.939

                      1                      2                      3
                      A                      A                      A
 Frequencies --    312.1789               519.5851               519.6835
 Red. masses --      2.1592                 1.8670                 1.8672
 Frc consts  --      0.1240                 0.2970                 0.2971
 IR Inten    --      0.0000                 0.0156                 0.0156

                      4                      5                      6
                      A                      A                      A
 Frequencies --    547.1735               618.9796               653.6002
 Red. masses --      4.1603                 1.9353                 4.4560
 Frc consts  --      0.7339                 0.4369                 1.1216
 IR Inten    --      0.0000                 0.8349                 0.0000

                      7                      8                      9
                      A                      A                      A
 Frequencies --    762.9323               792.5260               792.5738
 Red. masses --      2.5556                 4.3522                 4.3532
 Frc consts  --      0.8764                 1.6106                 1.6111
 IR Inten    --      1.0337                 0.1600                 0.1594

                     10                     11                     12
                      A                      A                      A
 Frequencies --    868.8005               886.2764               902.7202
 Red. masses --      2.1963                 3.0313                 1.5874
 Frc consts  --      0.9767                 1.4029                 0.7621
 IR Inten    --      0.0000                 0.7926                 0.0000

                     13                     14                     15
                      A                      A                      A
 Frequencies --    904.7973               911.5460               911.5809
 Red. masses --      1.9557                 2.6896                 2.6895
 Frc consts  --      0.9433                 1.3167                 1.3168
 IR Inten    --      0.0001                 0.4656                 0.4661

                     16                     17                     18
                      A                      A                      A
 Frequencies --    932.0958               944.8741               944.8974
 Red. masses --      3.6152                 1.8122                 1.8122
 Frc consts  --      1.8506                 0.9532                 0.9533
 IR Inten    --      0.0000                 0.5040                 0.5039

                     19                     20                     21
                      A                      A                      A
 Frequencies --    989.9510              1021.4529              1021.4680
 Red. masses --      1.2610                 1.4542                 1.4543
 Frc consts  --      0.7281                 0.8939                 0.8941
 IR Inten    --      0.0000                 1.3752                 1.3762

                     22                     23                     24
                      A                      A                      A
 Frequencies --   1075.0272              1082.3715              1120.6099
 Red. masses --      1.1154                 1.0611                 1.1194
 Frc consts  --      0.7595                 0.7324                 0.8282
 IR Inten    --      0.6719                 0.0000                 0.0285

                     25                     26                     27
                      A                      A                      A
 Frequencies --   1120.6371              1165.6017              1167.7893
 Red. masses --      1.1194                 1.2150                 2.0763
 Frc consts  --      0.8282                 0.9726                 1.6683
 IR Inten    --      0.0285                 0.0000                 0.2850

                     28                     29                     30
                      A                      A                      A
 Frequencies --   1198.2565              1211.4605              1211.4701
 Red. masses --      2.6985                 1.6291                 1.6292
 Frc consts  --      2.2828                 1.4087                 1.4088
 IR Inten    --      0.0000                 0.0768                 0.0766

                     31                     32                     33
                      A                      A                      A
 Frequencies --   1266.5518              1272.4082              1272.4225
 Red. masses --      1.3346                 1.3628                 1.3622
 Frc consts  --      1.2613                 1.2999                 1.2994
 IR Inten    --      0.0000                 0.2314                 0.2323

                     34                     35                     36
                      A                      A                      A
 Frequencies --   1273.1406              1305.4368              1310.1311
 Red. masses --      1.5270                 1.7164                 1.5869
 Frc consts  --      1.4582                 1.7234                 1.6049
 IR Inten    --      0.0008                 0.0000                 0.0076

                     37                     38                     39
                      A                      A                      A
 Frequencies --   1310.1388              1336.4599              1489.1212
 Red. masses --      1.5870                 1.4938                 1.0950
 Frc consts  --      1.6050                 1.5721                 1.4306
 IR Inten    --      0.0078                 8.3393                 0.0000

                     40                     41                     42
                      A                      A                      A
 Frequencies --   1522.8819              1522.9041              1553.8973
 Red. masses --      1.0951                 1.0951                 1.0903
 Frc consts  --      1.4964                 1.4965                 1.5511
 IR Inten    --      3.8426                 3.8422                 0.0001

                     43                     44                     45
                      A                      A                      A
 Frequencies --   3051.6797              3057.4549              3057.4972
 Red. masses --      1.0575                 1.0606                 1.0606
 Frc consts  --      5.8022                 5.8416                 5.8416
 IR Inten    --      0.0108                52.0579                52.2752

                     46                     47                     48
                      A                      A                      A
 Frequencies --   3066.5242              3089.1577              3103.4325
 Red. masses --      1.0597                 1.1085                 1.1035
 Frc consts  --      5.8710                 6.2325                 6.2620
 IR Inten    --      0.0000                 0.0041                94.5980

                     49                     50                     51
                      A                      A                      A
 Frequencies --   3103.4728              3109.2760              3109.2853
 Red. masses --      1.1035                 1.0901                 1.0901
 Frc consts  --      6.2620                 6.2093                 6.2093
 IR Inten    --     94.7819                13.5254                13.5848

                     52                     53                     54
                      A                      A                      A
 Frequencies --   3109.8837              3117.9531              3124.1028
 Red. masses --      1.1045                 1.0885                 1.0914
 Frc consts  --      6.2939                 6.2348                 6.2759
 IR Inten    --      0.3657               149.9509                 0.0006

 - Thermochemistry -
 -------------------
 Temperature   298.150 Kelvin.  Pressure   1.00000 Atm.
 Atom     1 has atomic number  6 and mass  12.00000

 Molecular mass:   108.09390 amu.
 Principal axes and moments of inertia in atomic units:
                           1         2         3
     Eigenvalues --   601.45072 601.49228 762.75742
           X            0.99998  -0.00704   0.00000
           Y            0.00704   0.99998   0.00000
           Z           -0.00000  -0.00000   1.00000
 This molecule is an asymmetric top.
 Rotational symmetry number  1.
 Warning -- assumption of classical behavior for rotation
           may cause significant error
 Rotational temperatures (Kelvin)      0.14401     0.14400     0.11355
 Rotational constants (GHZ):           3.00065     3.00044     2.36607
 Zero-point vibrational energy     482382.9 (Joules/Mol)
                                  115.29229 (Kcal/Mol)
 Warning -- explicit consideration of   5 degrees of freedom as
           vibrations may cause significant error
 Vibrational temperatures:    449.16   747.57   747.71   787.26   890.57
          (Kelvin)            940.38  1097.69  1140.27  1140.34  1250.01
                             1275.15  1298.81  1301.80  1311.51  1311.56
                             1341.08  1359.46  1359.50  1424.32  1469.64
                             1469.66  1546.72  1557.29  1612.31  1612.35
                             1677.04  1680.19  1724.02  1743.02  1743.04
                             1822.29  1830.71  1830.73  1831.77  1878.23
                             1884.99  1885.00  1922.87  2142.51  2191.09
                             2191.12  2235.71  4390.69  4399.00  4399.06
                             4412.04  4444.61  4465.15  4465.21  4473.55
                             4473.57  4474.43  4486.04  4494.89

 Zero-point correction=                           0.183730 (Hartree/Particle)
 Thermal correction to Energy=                    0.188983
 Thermal correction to Enthalpy=                  0.189927
 Thermal correction to Gibbs Free Energy=         0.154841
 Sum of electronic and zero-point Energies=           -311.870705
 Sum of electronic and thermal Energies=              -311.865452
 Sum of electronic and thermal Enthalpies=            -311.864508
 Sum of electronic and thermal Free Energies=         -311.899594

                     E (Thermal)             CV                S
                      KCal/Mol        Cal/Mol-Kelvin    Cal/Mol-Kelvin
 Total                  118.589             24.256             73.845
 Electronic               0.000              0.000              0.000
 Translational            0.889              2.981             39.950
 Rotational               0.889              2.981             27.114
 Vibrational            116.811             18.295              6.781
 Vibration     1          0.701              1.650              1.351
 Vibration     2          0.875              1.207              0.611
 Vibration     3          0.875              1.206              0.611
 Vibration     4          0.902              1.146              0.550
 Vibration     5          0.979              0.992              0.418

 Optimization completed.
    -- Stationary point found.
 Normal termination of Gaussian 16 at Sun May 28 09:55:34 2023.
