 Gaussian 16, Revision A.03,
 Gaussian 16:  ES64L-G16RevA.03 25-Dec-2016

 -----------------------------
 # opt freq b3lyp/6-31g(2df,p)
 -----------------------------

 -------------------
 Title Card Required
 -------------------
 Symbolic Z-matrix:
 Charge =  0 Multiplicity = 1

 SCF Done:  E(RB3LYP) =  -272.681805910     A.U. after   12 cycles
 SCF Done:  E(RB3LYP) =  -272.701005526     A.U. after   10 cycles
 SCF Done:  E(RB3LYP) =  -272.703634324     A.U. after   10 cycles
 SCF Done:  E(RB3LYP) =  -272.703859704     A.U. after    9 cycles
 SCF Done:  E(RB3LYP) =  -272.703873231     A.U. after    7 cycles
 SCF Done:  E(RB3LYP) =  -272.703874972     A.U. after    6 cycles
 Optimization completed.
    -- Stationary point found.
 Normal termination of Gaussian 16 at Sun May 28 14:10:38 2023.

 ----------------------------------------------------------------------
 #N Geom=AllCheck Guess=TCheck SCRF=Check GenChk RB3LYP/6-31G(2df,p) Fr
 eq
 ----------------------------------------------------------------------

 Structure from the checkpoint file:  "C1C2CC3C1CC23.chk"
 -------------------
 Title Card Required
 -------------------
 Charge =  0 Multiplicity = 1

                         Standard orientation:
 ---------------------------------------------------------------------
 Center     Atomic      Atomic             Coordinates (Angstroms)
 Number     Number       Type             X           Y           Z
 ---------------------------------------------------------------------
      1          6           0        0.000167    1.427788   -0.000163
      2          6           0       -0.773289    0.384024    0.834222
      3          6           0       -1.619266   -0.313021   -0.265194
      4          6           0       -0.254778   -0.831882   -0.738583
      5          6           0        0.773296    0.383621   -0.834391
      6          6           0        1.619173   -0.313084    0.265190
      7          6           0        0.254606   -0.831462    0.738944
      8          1           0        0.667954    2.067215    0.584962
      9          1           0       -0.667372    2.067249   -0.585482
     10          1           0       -1.209957    0.698808    1.781684
     11          1           0       -2.228230    0.316966   -0.922664
     12          1           0       -2.229034   -1.131728    0.129283
     13          1           0       -0.114563   -1.668919   -1.421981
     14          1           0        1.209867    0.697772   -1.782111
     15          1           0        2.228438    0.316963    0.922369
     16          1           0        2.228744   -1.132073   -0.129053
     17          1           0        0.114690   -1.668151    1.422837
 ---------------------------------------------------------------------

 SCF Done:  E(RB3LYP) =  -272.703874972     A.U. after    1 cycles

 The electronic state is 1-A.
 Alpha  occ. eigenvalues --  -10.18421 -10.18421 -10.18220 -10.18201 -10.17381
 Alpha  occ. eigenvalues --  -10.17380 -10.17292  -0.90492  -0.74348  -0.70674
 Alpha  occ. eigenvalues --   -0.65042  -0.59896  -0.53944  -0.50955  -0.50342
 Alpha  occ. eigenvalues --   -0.45534  -0.44837  -0.42038  -0.36298  -0.34946
 Alpha  occ. eigenvalues --   -0.32800  -0.32576  -0.29726  -0.29408  -0.29077
 Alpha  occ. eigenvalues --   -0.26854
 Alpha virt. eigenvalues --    0.10426   0.11301   0.13016   0.13017   0.13978
 Alpha virt. eigenvalues --    0.14583   0.16237   0.17290   0.18370   0.18454
 Alpha virt. eigenvalues --    0.18768   0.19729   0.21867   0.22313   0.23334

 Mulliken charges:
               1
     1  C   -0.197678
     2  C   -0.036645
     3  C   -0.232288
     4  C   -0.016515
     5  C   -0.036654
     6  C   -0.232249
     7  C   -0.016464
     8  H    0.088521
     9  H    0.088500
    10  H    0.057343
    11  H    0.084482
    12  H    0.092677
    13  H    0.061266
    14  H    0.057345
    15  H    0.084463
    16  H    0.092657
    17  H    0.061239
 Sum of Mulliken charges =  -0.00000

 Dipole moment (field-independent basis, Debye):
    X=             -0.0001    Y=             -0.0706    Z=             -0.0000  Tot=              0.0706
 Quadrupole moment (field-independent basis, Debye-Ang):
   XX=            -43.4861   YY=            -42.7536   ZZ=            -43.0671
   XY=             -0.0001   XZ=             -0.2607   YZ=              0.0005

  Exact polarizability:  71.655   0.000  66.520   0.274   0.000  62.308
 Approx polarizability: 100.411   0.002  97.941   0.589   0.002  96.319

                      1                      2                      3
                      A                      A                      A
 Frequencies --    377.0911               423.8892               482.3906
 Red. masses --      2.0551                 1.8359                 1.7085
 Frc consts  --      0.1722                 0.1944                 0.2342
 IR Inten    --      0.2970                 0.1270                 0.4985

                      4                      5                      6
                      A                      A                      A
 Frequencies --    630.9379               701.1680               778.5418
 Red. masses --      3.9859                 3.8331                 2.4510
 Frc consts  --      0.9349                 1.1103                 0.8753
 IR Inten    --      0.0653                 2.0396                 1.5539

                      7                      8                      9
                      A                      A                      A
 Frequencies --    826.4764               829.6586               837.2499
 Red. masses --      3.2541                 2.0094                 2.1337
 Frc consts  --      1.3096                 0.8149                 0.8812
 IR Inten    --      2.0612                 0.0182                 1.0154

                     10                     11                     12
                      A                      A                      A
 Frequencies --    887.0319               915.6383               935.8974
 Red. masses --      2.0837                 2.2057                 1.8815
 Frc consts  --      0.9660                 1.0895                 0.9710
 IR Inten    --      0.1436                 0.9370                 0.0005

                     13                     14                     15
                      A                      A                      A
 Frequencies --    949.7648               975.4684               994.3903
 Red. masses --      2.1391                 1.2483                 1.3261
 Frc consts  --      1.1369                 0.6998                 0.7726
 IR Inten    --      0.1969                 0.9504                 0.0972

                     16                     17                     18
                      A                      A                      A
 Frequencies --    999.4555              1016.0953              1034.5261
 Red. masses --      2.3044                 2.6201                 1.1954
 Frc consts  --      1.3562                 1.5938                 0.7538
 IR Inten    --      1.4078                 0.0030                 0.1077

                     19                     20                     21
                      A                      A                      A
 Frequencies --   1073.3614              1093.1896              1095.9343
 Red. masses --      1.6289                 1.1777                 1.2137
 Frc consts  --      1.1057                 0.8292                 0.8588
 IR Inten    --      0.0377                 0.5669                 0.0182

                     22                     23                     24
                      A                      A                      A
 Frequencies --   1163.3107              1178.1273              1195.0119
 Red. masses --      1.8875                 1.3118                 1.5235
 Frc consts  --      1.5050                 1.0727                 1.2818
 IR Inten    --      0.6273                 0.0119                 1.4552

                     25                     26                     27
                      A                      A                      A
 Frequencies --   1217.0872              1226.9733              1239.4517
 Red. masses --      1.9446                 1.6193                 1.5266
 Frc consts  --      1.6971                 1.4363                 1.3817
 IR Inten    --      0.4602                 0.8929                 0.6760

                     28                     29                     30
                      A                      A                      A
 Frequencies --   1259.9313              1275.2366              1287.5021
 Red. masses --      1.3560                 1.6497                 1.7516
 Frc consts  --      1.2682                 1.5806                 1.7108
 IR Inten    --      0.2033                 8.8441                 0.7360

                     31                     32                     33
                      A                      A                      A
 Frequencies --   1322.0970              1324.0226              1486.3185
 Red. masses --      1.5770                 1.7356                 1.1046
 Frc consts  --      1.6241                 1.7927                 1.4377
 IR Inten    --      4.5722                 0.1414                 0.7391

                     34                     35                     36
                      A                      A                      A
 Frequencies --   1497.4848              1517.0507              3034.3121
 Red. masses --      1.1239                 1.1053                 1.0582
 Frc consts  --      1.4850                 1.4987                 5.7404
 IR Inten    --      0.7910                 0.3729                97.8958

                     37                     38                     39
                      A                      A                      A
 Frequencies --   3034.8053              3047.7158              3087.9406
 Red. masses --      1.0572                 1.0581                 1.1062
 Frc consts  --      5.7370                 5.7906                 6.2147
 IR Inten    --      4.7046                35.5408                14.3684

                     40                     41                     42
                      A                      A                      A
 Frequencies --   3091.2307              3094.1921              3109.5263
 Red. masses --      1.1063                 1.1069                 1.0887
 Frc consts  --      6.2286                 6.2439                 6.2023
 IR Inten    --     45.0367                33.8248                 3.1857

                     43                     44                     45
                      A                      A                      A
 Frequencies --   3111.8287              3116.7079              3126.0273
 Red. masses --      1.0895                 1.0881                 1.0939
 Frc consts  --      6.2162                 6.2275                 6.2981
 IR Inten    --     46.2082               129.2101                16.5395

 - Thermochemistry -
 -------------------
 Temperature   298.150 Kelvin.  Pressure   1.00000 Atm.
 Atom     1 has atomic number  6 and mass  12.00000

 Molecular mass:    94.07825 amu.
 Principal axes and moments of inertia in atomic units:
                           1         2         3
     Eigenvalues --   390.49038 525.44934 598.77448
           X            0.99998  -0.00002   0.00563
           Y            0.00002   1.00000  -0.00001
           Z           -0.00563   0.00001   0.99998
 This molecule is an asymmetric top.
 Rotational symmetry number  1.
 Rotational temperatures (Kelvin)      0.22181     0.16484     0.14465
 Rotational constants (GHZ):           4.62173     3.43466     3.01406
 Zero-point vibrational energy     400163.1 (Joules/Mol)
                                   95.64128 (Kcal/Mol)
 Warning -- explicit consideration of   3 degrees of freedom as
           vibrations may cause significant error
 Vibrational temperatures:    542.55   609.88   694.05   907.78  1008.82
          (Kelvin)           1120.15  1189.12  1193.69  1204.62  1276.24
                             1317.40  1346.55  1366.50  1403.48  1430.71
                             1437.99  1461.93  1488.45  1544.33  1572.86
                             1576.80  1673.74  1695.06  1719.36  1751.12
                             1765.34  1783.29  1812.76  1834.78  1852.43
                             1902.20  1904.97  2138.48  2154.55  2182.70
                             4365.70  4366.41  4384.98  4442.86  4447.59
                             4451.85  4473.91  4477.23  4484.25  4497.66

 Zero-point correction=                           0.152414 (Hartree/Particle)
 Thermal correction to Energy=                    0.157286
 Thermal correction to Enthalpy=                  0.158230
 Thermal correction to Gibbs Free Energy=         0.124232
 Sum of electronic and zero-point Energies=           -272.551461
 Sum of electronic and thermal Energies=              -272.546589
 Sum of electronic and thermal Enthalpies=            -272.545645
 Sum of electronic and thermal Free Energies=         -272.579643

                     E (Thermal)             CV                S
                      KCal/Mol        Cal/Mol-Kelvin    Cal/Mol-Kelvin
 Total                   98.698             21.301             71.554
 Electronic               0.000              0.000              0.000
 Translational            0.889              2.981             39.536
 Rotational               0.889              2.981             26.310
 Vibrational             96.921             15.339              5.708
 Vibration     1          0.748              1.519              1.051
 Vibration     2          0.786              1.418              0.879
 Vibration     3          0.839              1.289              0.704

 Optimization completed.
    -- Stationary point found.
 Normal termination of Gaussian 16 at Sun May 28 14:28:52 2023.
