 Gaussian 16, Revision A.03,
 Gaussian 16:  ES64L-G16RevA.03 25-Dec-2016

 -----------------------------
 # opt freq b3lyp/6-31g(2df,p)
 -----------------------------

 -------------------
 Title Card Required
 -------------------
 Symbolic Z-matrix:
 Charge =  0 Multiplicity = 1

 SCF Done:  E(RB3LYP) =  -349.541127498     A.U. after   17 cycles
 SCF Done:  E(RB3LYP) =  -349.656685498     A.U. after   15 cycles
 SCF Done:  E(RB3LYP) =  -349.812051391     A.U. after   14 cycles
 SCF Done:  E(RB3LYP) =  -349.896662831     A.U. after   14 cycles
 SCF Done:  E(RB3LYP) =  -349.990665542     A.U. after   13 cycles
 SCF Done:  E(RB3LYP) =  -350.074213762     A.U. after   12 cycles
 SCF Done:  E(RB3LYP) =  -350.105363759     A.U. after   11 cycles
 SCF Done:  E(RB3LYP) =  -350.128190540     A.U. after   11 cycles
 SCF Done:  E(RB3LYP) =  -350.134240522     A.U. after   10 cycles
 SCF Done:  E(RB3LYP) =  -350.135968981     A.U. after   10 cycles
 SCF Done:  E(RB3LYP) =  -350.136393785     A.U. after   10 cycles
 SCF Done:  E(RB3LYP) =  -350.136592009     A.U. after    9 cycles
 SCF Done:  E(RB3LYP) =  -350.136642192     A.U. after    8 cycles
 SCF Done:  E(RB3LYP) =  -350.136650134     A.U. after    7 cycles
 SCF Done:  E(RB3LYP) =  -350.136652644     A.U. after    7 cycles
 SCF Done:  E(RB3LYP) =  -350.136652902     A.U. after    6 cycles
 Optimization completed.
    -- Stationary point found.
 Normal termination of Gaussian 16 at Sun May 28 15:35:09 2023.

 ----------------------------------------------------------------------
 #N Geom=AllCheck Guess=TCheck SCRF=Check GenChk RB3LYP/6-31G(2df,p) Fr
 eq
 ----------------------------------------------------------------------

 Structure from the checkpoint file:  "C1C2CC3C1C1CC3C21.chk"
 -------------------
 Title Card Required
 -------------------
 Charge =  0 Multiplicity = 1

                         Standard orientation:
 ---------------------------------------------------------------------
 Center     Atomic      Atomic             Coordinates (Angstroms)
 Number     Number       Type             X           Y           Z
 ---------------------------------------------------------------------
      1          6           0        1.754618   -0.137273   -0.599459
      2          6           0        0.832489   -1.173751    0.056994
      3          6           0        0.575670    1.016547    1.101063
      4          6           0        0.104282   -0.437163    1.260498
      5          6           0        0.775531    1.048581   -0.430904
      6          6           0       -0.537153    0.502596   -1.085224
      7          6           0       -1.790421    0.636006   -0.173494
      8          6           0       -1.297378   -0.631499    0.557721
      9          6           0       -0.495008   -1.036449   -0.712300
     10          1           0        1.961839   -0.382862   -1.647230
     11          1           0        2.706907    0.021555   -0.082708
     12          1           0        1.224986   -2.174228    0.237717
     13          1           0       -0.143362    1.746887    1.479815
     14          1           0        1.526934    1.192686    1.615215
     15          1           0        0.205174   -0.854648    2.262402
     16          1           0        1.106537    2.008935   -0.831181
     17          1           0       -0.631448    0.784221   -2.135509
     18          1           0       -2.700701    0.406631   -0.736572
     19          1           0       -1.952634    1.567828    0.377264
     20          1           0       -2.007439   -1.284082    1.068081
     21          1           0       -0.832571   -1.758498   -1.456665
 ---------------------------------------------------------------------

 SCF Done:  E(RB3LYP) =  -350.136652902     A.U. after    1 cycles

 The electronic state is 1-A.
 Alpha  occ. eigenvalues --  -10.17878 -10.17853 -10.17787 -10.17530 -10.17336
 Alpha  occ. eigenvalues --  -10.17263 -10.17148 -10.16976 -10.16972  -0.90079
 Alpha  occ. eigenvalues --   -0.77769  -0.73076  -0.71553  -0.63364  -0.58937
 Alpha  occ. eigenvalues --   -0.57455  -0.53878  -0.51560  -0.47982  -0.46644
 Alpha  occ. eigenvalues --   -0.44978  -0.41701  -0.40967  -0.37553  -0.35575
 Alpha  occ. eigenvalues --   -0.34895  -0.32707  -0.31874  -0.30917  -0.29287
 Alpha  occ. eigenvalues --   -0.27800  -0.26825  -0.25982
 Alpha virt. eigenvalues --    0.08816   0.10869   0.12075   0.13241   0.13933
 Alpha virt. eigenvalues --    0.14177   0.15099   0.16049   0.17193   0.17442
 Alpha virt. eigenvalues --    0.18262   0.18865   0.18950   0.20584   0.21048

 Mulliken charges:
               1
     1  C   -0.216785
     2  C   -0.031607
     3  C   -0.214479
     4  C   -0.041824
     5  C   -0.028976
     6  C   -0.033751
     7  C   -0.246821
     8  C   -0.033127
     9  C   -0.015862
    10  H    0.087672
    11  H    0.087263
    12  H    0.053900
    13  H    0.093056
    14  H    0.085666
    15  H    0.057020
    16  H    0.051984
    17  H    0.059921
    18  H    0.092173
    19  H    0.088317
    20  H    0.053087
    21  H    0.053172
 Sum of Mulliken charges =  -0.00000

 Dipole moment (field-independent basis, Debye):
    X=              0.0867    Y=             -0.0377    Z=             -0.0405  Tot=              0.1029
 Quadrupole moment (field-independent basis, Debye-Ang):
   XX=            -54.9176   YY=            -54.6556   ZZ=            -54.3004
   XY=              0.2246   XZ=              0.4007   YZ=             -0.0283

  Exact polarizability:  88.533  -0.126  80.480   0.364   0.243  80.785
 Approx polarizability: 126.262  -0.639 122.326   0.245   0.601 123.491

                      1                      2                      3
                      A                      A                      A
 Frequencies --    369.8504               400.4625               437.9008
 Red. masses --      2.4950                 2.2412                 1.8575
 Frc consts  --      0.2011                 0.2118                 0.2099
 IR Inten    --      0.0583                 0.2271                 0.4725

                      4                      5                      6
                      A                      A                      A
 Frequencies --    476.7234               583.0022               611.8043
 Red. masses --      1.8010                 4.3015                 4.4502
 Frc consts  --      0.2412                 0.8614                 0.9814
 IR Inten    --      0.2862                 0.5877                 0.4490

                      7                      8                      9
                      A                      A                      A
 Frequencies --    694.4195               745.2642               776.3993
 Red. masses --      4.1264                 3.9239                 2.4209
 Frc consts  --      1.1724                 1.2841                 0.8598
 IR Inten    --      1.2082                 1.0344                 1.0843

                     10                     11                     12
                      A                      A                      A
 Frequencies --    806.4266               823.7791               848.7951
 Red. masses --      2.4316                 2.1308                 2.1897
 Frc consts  --      0.9317                 0.8520                 0.9295
 IR Inten    --      0.4975                 0.0742                 0.5675

                     13                     14                     15
                      A                      A                      A
 Frequencies --    890.6742               891.4721               907.5220
 Red. masses --      1.8916                 2.7414                 1.9423
 Frc consts  --      0.8841                 1.2836                 0.9425
 IR Inten    --      0.2193                 0.1466                 0.3190

                     16                     17                     18
                      A                      A                      A
 Frequencies --    919.7063               936.9651               955.7104
 Red. masses --      2.4374                 1.9824                 2.2213
 Frc consts  --      1.2147                 1.0254                 1.1954
 IR Inten    --      0.6687                 1.1875                 0.1699

                     19                     20                     21
                      A                      A                      A
 Frequencies --    969.3105               983.1016               992.4545
 Red. masses --      1.6667                 1.4082                 2.1920
 Frc consts  --      0.9226                 0.8019                 1.2721
 IR Inten    --      0.4648                 0.5232                 0.5374

                     22                     23                     24
                      A                      A                      A
 Frequencies --   1017.3532              1033.9793              1062.0685
 Red. masses --      1.6077                 1.4032                 1.1219
 Frc consts  --      0.9804                 0.8839                 0.7456
 IR Inten    --      0.2613                 0.4312                 0.9296

                     25                     26                     27
                      A                      A                      A
 Frequencies --   1085.3423              1114.9361              1124.8223
 Red. masses --      2.3270                 1.1364                 1.6342
 Frc consts  --      1.6151                 0.8323                 1.2182
 IR Inten    --      1.2689                 0.0509                 0.2166

                     28                     29                     30
                      A                      A                      A
 Frequencies --   1137.0823              1165.2388              1178.9449
 Red. masses --      1.5422                 1.5693                 1.6529
 Frc consts  --      1.1748                 1.2554                 1.3536
 IR Inten    --      0.1548                 0.1560                 0.1288

                     31                     32                     33
                      A                      A                      A
 Frequencies --   1217.0559              1220.5548              1238.8848
 Red. masses --      1.6185                 1.7957                 1.4268
 Frc consts  --      1.4125                 1.5761                 1.2903
 IR Inten    --      0.1696                 1.0911                 0.1107

                     34                     35                     36
                      A                      A                      A
 Frequencies --   1253.4639              1261.6139              1283.0260
 Red. masses --      1.6564                 1.4387                 1.7368
 Frc consts  --      1.5333                 1.3492                 1.6845
 IR Inten    --      0.8350                 0.8426                 0.8680

                     37                     38                     39
                      A                      A                      A
 Frequencies --   1285.7478              1292.8019              1302.8205
 Red. masses --      1.3629                 1.7441                 1.5614
 Frc consts  --      1.3274                 1.7174                 1.5614
 IR Inten    --      0.2113                 0.7102                 0.8017

                     40                     41                     42
                      A                      A                      A
 Frequencies --   1317.8785              1341.9902              1345.2724
 Red. masses --      1.7434                 1.5488                 1.5463
 Frc consts  --      1.7840                 1.6434                 1.6488
 IR Inten    --      0.9128                 0.4222                 2.1147

                     43                     44                     45
                      A                      A                      A
 Frequencies --   1479.3198              1495.8498              1519.9661
 Red. masses --      1.1075                 1.1126                 1.0918
 Frc consts  --      1.4279                 1.4668                 1.4862
 IR Inten    --      2.2728                 2.8861                 1.3458

                     46                     47                     48
                      A                      A                      A
 Frequencies --   3035.5301              3038.8447              3045.2167
 Red. masses --      1.0586                 1.0581                 1.0647
 Frc consts  --      5.7470                 5.7572                 5.8170
 IR Inten    --     21.3593                59.1668                26.7151

                     49                     50                     51
                      A                      A                      A
 Frequencies --   3078.8520              3082.2531              3085.2486
 Red. masses --      1.0924                 1.1029                 1.0981
 Frc consts  --      6.1011                 6.1733                 6.1584
 IR Inten    --      3.2468                 2.6744                48.5555

                     52                     53                     54
                      A                      A                      A
 Frequencies --   3086.6600              3093.2331              3098.3267
 Red. masses --      1.0934                 1.0903                 1.0976
 Frc consts  --      6.1375                 6.1461                 6.2078
 IR Inten    --     34.8487                83.8349                50.3209

                     55                     56                     57
                      A                      A                      A
 Frequencies --   3099.8114              3102.5129              3118.5345
 Red. masses --      1.0892                 1.0892                 1.0921
 Frc consts  --      6.1662                 6.1772                 6.2578
 IR Inten    --     97.1181                26.6491                43.8587

 - Thermochemistry -
 -------------------
 Temperature   298.150 Kelvin.  Pressure   1.00000 Atm.
 Atom     1 has atomic number  6 and mass  12.00000

 Molecular mass:   120.09390 amu.
 Principal axes and moments of inertia in atomic units:
                           1         2         3
     Eigenvalues --   639.33089 860.24104 882.07278
           X            0.99997  -0.00616   0.00372
           Y            0.00560   0.99075   0.13555
           Z           -0.00452  -0.13553   0.99076
 This molecule is an asymmetric top.
 Rotational symmetry number  1.
 Warning -- assumption of classical behavior for rotation
           may cause significant error
 Rotational temperatures (Kelvin)      0.13548     0.10069     0.09819
 Rotational constants (GHZ):           2.82286     2.09795     2.04602
 Zero-point vibrational energy     495031.4 (Joules/Mol)
                                  118.31534 (Kcal/Mol)
 Warning -- explicit consideration of   6 degrees of freedom as
           vibrations may cause significant error
 Vibrational temperatures:    532.13   576.18   630.04   685.90   838.81
          (Kelvin)            880.25   999.11  1072.27  1117.07  1160.27
                             1185.23  1221.23  1281.48  1282.63  1305.72
                             1323.25  1348.08  1375.05  1394.62  1414.46
                             1427.92  1463.74  1487.67  1528.08  1561.57
                             1604.14  1618.37  1636.01  1676.52  1696.24
                             1751.07  1756.11  1782.48  1803.45  1815.18
                             1845.99  1849.90  1860.05  1874.47  1896.13
                             1930.82  1935.55  2128.41  2152.19  2186.89
                             4367.45  4372.22  4381.39  4429.78  4434.67
                             4438.98  4441.02  4450.47  4457.80  4459.94
                             4463.82  4486.88

 Zero-point correction=                           0.188547 (Hartree/Particle)
 Thermal correction to Energy=                    0.194191
 Thermal correction to Enthalpy=                  0.195136
 Thermal correction to Gibbs Free Energy=         0.159094
 Sum of electronic and zero-point Energies=           -349.948105
 Sum of electronic and thermal Energies=              -349.942461
 Sum of electronic and thermal Enthalpies=            -349.941517
 Sum of electronic and thermal Free Energies=         -349.977559

                     E (Thermal)             CV                S
                      KCal/Mol        Cal/Mol-Kelvin    Cal/Mol-Kelvin
 Total                  121.857             26.564             75.855
 Electronic               0.000              0.000              0.000
 Translational            0.889              2.981             40.264
 Rotational               0.889              2.981             27.675
 Vibrational            120.080             20.603              7.917
 Vibration     1          0.742              1.534              1.080
 Vibration     2          0.766              1.469              0.961
 Vibration     3          0.798              1.388              0.833
 Vibration     4          0.833              1.302              0.719
 Vibration     5          0.940              1.068              0.480
 Vibration     6          0.971              1.007              0.430

 Optimization completed.
    -- Stationary point found.
 Normal termination of Gaussian 16 at Sun May 28 16:13:37 2023.
