 Gaussian 16, Revision A.03,
 Gaussian 16:  ES64L-G16RevA.03 25-Dec-2016

 -----------------------------
 # opt freq b3lyp/6-31g(2df,p)
 -----------------------------

 -------------------
 Title Card Required
 -------------------
 Symbolic Z-matrix:
 Charge =  0 Multiplicity = 1

 SCF Done:  E(RB3LYP) =  -272.598947924     A.U. after   12 cycles
 SCF Done:  E(RB3LYP) =  -272.633433632     A.U. after   11 cycles
 SCF Done:  E(RB3LYP) =  -272.650135778     A.U. after   11 cycles
 SCF Done:  E(RB3LYP) =  -272.656570265     A.U. after   10 cycles
 SCF Done:  E(RB3LYP) =  -272.659935734     A.U. after   10 cycles
 SCF Done:  E(RB3LYP) =  -272.660599756     A.U. after   10 cycles
 SCF Done:  E(RB3LYP) =  -272.660762667     A.U. after    9 cycles
 SCF Done:  E(RB3LYP) =  -272.660778128     A.U. after    7 cycles
 SCF Done:  E(RB3LYP) =  -272.660782338     A.U. after    7 cycles
 SCF Done:  E(RB3LYP) =  -272.660784763     A.U. after    7 cycles
 SCF Done:  E(RB3LYP) =  -272.660785491     A.U. after    7 cycles
 Optimization completed.
    -- Stationary point found.
 Normal termination of Gaussian 16 at Sun May 28 17:33:45 2023.

 ----------------------------------------------------------------------
 #N Geom=AllCheck Guess=TCheck SCRF=Check GenChk RB3LYP/6-31G(2df,p) Fr
 eq
 ----------------------------------------------------------------------

 Structure from the checkpoint file:  "C1C2CC1C21CC1.chk"
 -------------------
 Title Card Required
 -------------------
 Charge =  0 Multiplicity = 1

                         Standard orientation:
 ---------------------------------------------------------------------
 Center     Atomic      Atomic             Coordinates (Angstroms)
 Number     Number       Type             X           Y           Z
 ---------------------------------------------------------------------
      1          6           0       -1.337298   -1.075902   -0.000127
      2          6           0       -0.717672   -0.000090    0.944705
      3          6           0       -1.337106    1.075908   -0.000010
      4          6           0       -0.717453    0.000055   -0.944650
      5          6           0        0.500222   -0.000042    0.000196
      6          6           0        1.775641   -0.765739    0.000008
      7          6           0        1.775405    0.765745   -0.000032
      8          1           0       -2.428502   -1.149236   -0.000292
      9          1           0       -0.862966   -2.060021   -0.000129
     10          1           0       -0.709815   -0.000117    2.035873
     11          1           0       -0.862720    2.060021    0.000151
     12          1           0       -2.428304    1.149604   -0.000112
     13          1           0       -0.709268    0.000088   -2.035818
     14          1           0        2.087669   -1.268395   -0.910566
     15          1           0        2.087960   -1.268156    0.910617
     16          1           0        2.087528    1.268265   -0.910674
     17          1           0        2.087978    1.268334    0.910413
 ---------------------------------------------------------------------

 SCF Done:  E(RB3LYP) =  -272.660785491     A.U. after    1 cycles

 The electronic state is 1-A.
 Alpha  occ. eigenvalues --  -10.19600 -10.19597 -10.19379 -10.18178 -10.18177
 Alpha  occ. eigenvalues --  -10.17687 -10.17665  -0.91263  -0.82323  -0.65891
 Alpha  occ. eigenvalues --   -0.62292  -0.60738  -0.59235  -0.50971  -0.49329
 Alpha  occ. eigenvalues --   -0.46416  -0.46333  -0.41491  -0.36018  -0.35537
 Alpha  occ. eigenvalues --   -0.32856  -0.32080  -0.31085  -0.29826  -0.27583
 Alpha  occ. eigenvalues --   -0.26454
 Alpha virt. eigenvalues --    0.10605   0.11028   0.12415   0.12586   0.13294
 Alpha virt. eigenvalues --    0.15051   0.15094   0.16722   0.16725   0.18109
 Alpha virt. eigenvalues --    0.18869   0.21152   0.21468   0.22948   0.23205

 Mulliken charges:
               1
     1  C   -0.212964
     2  C   -0.120856
     3  C   -0.212950
     4  C   -0.120759
     5  C    0.485439
     6  C   -0.375186
     7  C   -0.375136
     8  H    0.085211
     9  H    0.092715
    10  H    0.068208
    11  H    0.092710
    12  H    0.085199
    13  H    0.068202
    14  H    0.110046
    15  H    0.110043
    16  H    0.110040
    17  H    0.110038
 Sum of Mulliken charges =  -0.00000

 Dipole moment (field-independent basis, Debye):
    X=             -0.0472    Y=              0.0001    Z=             -0.0000  Tot=              0.0472
 Quadrupole moment (field-independent basis, Debye-Ang):
   XX=            -43.9651   YY=            -43.4667   ZZ=            -41.8827
   XY=              0.0001   XZ=              0.0003   YZ=              0.0002

  Exact polarizability:  77.658  -0.001  67.975   0.001   0.000  61.324
 Approx polarizability: 103.382  -0.002 100.447   0.001  -0.000  94.187

                      1                      2                      3
                      A                      A                      A
 Frequencies --    220.6122               257.2414               281.7624
 Red. masses --      2.8615                 1.9781                 2.3565
 Frc consts  --      0.0821                 0.0771                 0.1102
 IR Inten    --      0.0162                 0.0000                 0.0000

                      4                      5                      6
                      A                      A                      A
 Frequencies --    473.5069               604.6406               610.5454
 Red. masses --      2.5295                 2.8025                 2.3625
 Frc consts  --      0.3341                 0.6037                 0.5189
 IR Inten    --      0.0271                 0.8211                 1.6992

                      7                      8                      9
                      A                      A                      A
 Frequencies --    753.4625               783.0419               788.4007
 Red. masses --      1.7684                 1.2558                 2.7177
 Frc consts  --      0.5915                 0.4537                 0.9953
 IR Inten    --      0.0492                 0.5016                 0.0000

                     10                     11                     12
                      A                      A                      A
 Frequencies --    865.9705               894.3106               902.1412
 Red. masses --      2.0625                 1.9863                 2.7232
 Frc consts  --      0.9113                 0.9360                 1.3058
 IR Inten    --      1.3209                 0.0000                 0.0500

                     13                     14                     15
                      A                      A                      A
 Frequencies --    910.3405               953.0899               965.4737
 Red. masses --      1.1935                 3.0782                 1.9912
 Frc consts  --      0.5828                 1.6475                 1.0935
 IR Inten    --      0.0000                 2.0417                10.9419

                     16                     17                     18
                      A                      A                      A
 Frequencies --   1016.9547              1029.9746              1043.2447
 Red. masses --      1.0161                 1.0473                 1.3647
 Frc consts  --      0.6191                 0.6546                 0.8751
 IR Inten    --      0.0000                 2.1996                 6.2354

                     19                     20                     21
                      A                      A                      A
 Frequencies --   1062.7339              1079.7619              1081.4089
 Red. masses --      2.1239                 1.7181                 1.9879
 Frc consts  --      1.4133                 1.1802                 1.3697
 IR Inten    --      9.6732                 0.7791                 1.3916

                     22                     23                     24
                      A                      A                      A
 Frequencies --   1097.9271              1117.9663              1170.2957
 Red. masses --      1.3827                 2.6123                 1.5120
 Frc consts  --      0.9820                 1.9237                 1.2201
 IR Inten    --      0.0000                 0.1282                 1.9789

                     25                     26                     27
                      A                      A                      A
 Frequencies --   1179.3004              1191.5803              1195.6517
 Red. masses --      1.2624                 1.4932                 1.3777
 Frc consts  --      1.0345                 1.2491                 1.1604
 IR Inten    --      0.0000                 0.1203                 0.0000

                     28                     29                     30
                      A                      A                      A
 Frequencies --   1232.1763              1245.5335              1260.3283
 Red. masses --      1.7277                 1.7234                 1.8957
 Frc consts  --      1.5455                 1.5752                 1.7741
 IR Inten    --      0.9484                 0.6857                13.2363

                     31                     32                     33
                      A                      A                      A
 Frequencies --   1408.9158              1461.8639              1491.9164
 Red. masses --      1.9393                 1.0896                 1.0986
 Frc consts  --      2.2681                 1.3719                 1.4407
 IR Inten    --      4.0413                 0.6297                 0.0739

                     34                     35                     36
                      A                      A                      A
 Frequencies --   1510.0814              1537.8078              3049.1827
 Red. masses --      1.4405                 1.4177                 1.0544
 Frc consts  --      1.9354                 1.9754                 5.7757
 IR Inten    --      1.5106                 1.5008                58.1099

                     37                     38                     39
                      A                      A                      A
 Frequencies --   3051.5404              3096.5817              3102.2892
 Red. masses --      1.0535                 1.0900                 1.0936
 Frc consts  --      5.7797                 6.1583                 6.2014
 IR Inten    --     43.8547               113.6921                 7.6394

                     40                     41                     42
                      A                      A                      A
 Frequencies --   3115.2241              3118.5795              3119.4562
 Red. masses --      1.0567                 1.1041                 1.0584
 Frc consts  --      6.0420                 6.3264                 6.0684
 IR Inten    --      6.5007                37.1708                18.9057

                     43                     44                     45
                      A                      A                      A
 Frequencies --   3120.6304              3191.2257              3205.5502
 Red. masses --      1.1098                 1.1173                 1.1149
 Frc consts  --      6.3679                 6.7038                 6.7495
 IR Inten    --     46.5100                 0.0015                19.8861

 - Thermochemistry -
 -------------------
 Temperature   298.150 Kelvin.  Pressure   1.00000 Atm.
 Atom     1 has atomic number  6 and mass  12.00000

 Molecular mass:    94.07825 amu.
 Principal axes and moments of inertia in atomic units:
                           1         2         3
     Eigenvalues --   330.93190 710.71877 805.14161
           X            1.00000  -0.00000   0.00000
           Y            0.00000   1.00000   0.00001
           Z           -0.00000  -0.00001   1.00000
 This molecule is an asymmetric top.
 Rotational symmetry number  1.
 Rotational temperatures (Kelvin)      0.26173     0.12187     0.10758
 Rotational constants (GHZ):           5.45351     2.53932     2.24152
 Zero-point vibrational energy     393871.8 (Joules/Mol)
                                   94.13762 (Kcal/Mol)
 Warning -- explicit consideration of   6 degrees of freedom as
           vibrations may cause significant error
 Vibrational temperatures:    317.41   370.11   405.39   681.27   869.94
          (Kelvin)            878.44  1084.06  1126.62  1134.33  1245.94
                             1286.71  1297.98  1309.78  1371.28  1389.10
                             1463.17  1481.90  1501.00  1529.04  1553.54
                             1555.91  1579.67  1608.50  1683.79  1696.75
                             1714.42  1720.28  1772.83  1792.04  1813.33
                             2027.12  2103.30  2146.53  2172.67  2212.56
                             4387.09  4390.49  4455.29  4463.50  4482.11
                             4486.94  4488.20  4489.89  4591.46  4612.07

 Zero-point correction=                           0.150018 (Hartree/Particle)
 Thermal correction to Energy=                    0.155792
 Thermal correction to Enthalpy=                  0.156736
 Thermal correction to Gibbs Free Energy=         0.120892
 Sum of electronic and zero-point Energies=           -272.510768
 Sum of electronic and thermal Energies=              -272.504994
 Sum of electronic and thermal Enthalpies=            -272.504050
 Sum of electronic and thermal Free Energies=         -272.539893

                     E (Thermal)             CV                S
                      KCal/Mol        Cal/Mol-Kelvin    Cal/Mol-Kelvin
 Total                   97.761             23.824             75.439
 Electronic               0.000              0.000              0.000
 Translational            0.889              2.981             39.536
 Rotational               0.889              2.981             26.740
 Vibrational             95.983             17.863              9.163
 Vibration     1          0.647              1.810              1.954
 Vibration     2          0.667              1.751              1.680
 Vibration     3          0.681              1.707              1.523
 Vibration     4          0.830              1.309              0.728
 Vibration     5          0.963              1.022              0.442
 Vibration     6          0.970              1.010              0.432

 Optimization completed.
    -- Stationary point found.
 Normal termination of Gaussian 16 at Sun May 28 17:50:34 2023.
