 Gaussian 16, Revision A.03,
 Gaussian 16:  ES64L-G16RevA.03 25-Dec-2016

 -----------------------------
 # opt freq b3lyp/6-31g(2df,p)
 -----------------------------

 -------------------
 Title Card Required
 -------------------
 Symbolic Z-matrix:
 Charge =  0 Multiplicity = 1

 SCF Done:  E(RB3LYP) =  -272.686517620     A.U. after   12 cycles
 SCF Done:  E(RB3LYP) =  -272.701393356     A.U. after   11 cycles
 SCF Done:  E(RB3LYP) =  -272.702694019     A.U. after   10 cycles
 SCF Done:  E(RB3LYP) =  -272.702802858     A.U. after    8 cycles
 SCF Done:  E(RB3LYP) =  -272.702816561     A.U. after    7 cycles
 SCF Done:  E(RB3LYP) =  -272.702821169     A.U. after    6 cycles
 SCF Done:  E(RB3LYP) =  -272.702821684     A.U. after    6 cycles
 Optimization completed.
    -- Stationary point found.
 Normal termination of Gaussian 16 at Sun May 28 00:06:45 2023.

 ----------------------------------------------------------------------
 #N Geom=AllCheck Guess=TCheck SCRF=Check GenChk RB3LYP/6-31G(2df,p) Fr
 eq
 ----------------------------------------------------------------------

 Structure from the checkpoint file:  "C1CC2C3CC2C13.chk"
 -------------------
 Title Card Required
 -------------------
 Charge =  0 Multiplicity = 1

                         Standard orientation:
 ---------------------------------------------------------------------
 Center     Atomic      Atomic             Coordinates (Angstroms)
 Number     Number       Type             X           Y           Z
 ---------------------------------------------------------------------
      1          6           0       -1.527698   -0.778411   -0.000061
      2          6           0       -1.527692    0.778498   -0.000036
      3          6           0       -0.020858    1.036897   -0.000287
      4          6           0        0.679024    0.000157    0.938750
      5          6           0        1.907916    0.000032    0.000150
      6          6           0        0.679191   -0.000175   -0.938757
      7          6           0       -0.020914   -1.037047    0.000122
      8          1           0       -2.019582   -1.200994   -0.882245
      9          1           0       -2.019806   -1.200891    0.882081
     10          1           0       -2.019245    1.200891    0.882465
     11          1           0       -2.020035    1.201230   -0.881875
     12          1           0        0.335270    2.069468   -0.000407
     13          1           0        0.668423    0.000481    2.031164
     14          1           0        2.528269   -0.901276    0.000372
     15          1           0        2.528218    0.901351    0.000022
     16          1           0        0.669533   -0.000339   -2.031172
     17          1           0        0.335138   -2.069621    0.000313
 ---------------------------------------------------------------------

 SCF Done:  E(RB3LYP) =  -272.702821684     A.U. after    1 cycles

 The electronic state is 1-A.
 Alpha  occ. eigenvalues --  -10.18950 -10.18947 -10.18455 -10.18453 -10.17803
 Alpha  occ. eigenvalues --  -10.17280 -10.17262  -0.91632  -0.76358  -0.68465
 Alpha  occ. eigenvalues --   -0.62892  -0.61960  -0.56250  -0.51039  -0.49062
 Alpha  occ. eigenvalues --   -0.46724  -0.44244  -0.40973  -0.36913  -0.33490
 Alpha  occ. eigenvalues --   -0.32958  -0.31643  -0.30816  -0.29740  -0.29106
 Alpha  occ. eigenvalues --   -0.28536
 Alpha virt. eigenvalues --    0.10425   0.11917   0.13110   0.14228   0.14361
 Alpha virt. eigenvalues --    0.15331   0.15719   0.16670   0.17093   0.17955
 Alpha virt. eigenvalues --    0.18528   0.19318   0.21835   0.22690   0.24208

 Mulliken charges:
               1
     1  C   -0.238904
     2  C   -0.238954
     3  C    0.014784
     4  C   -0.049495
     5  C   -0.235572
     6  C   -0.049527
     7  C    0.014685
     8  H    0.094758
     9  H    0.094748
    10  H    0.094759
    11  H    0.094754
    12  H    0.056427
    13  H    0.060444
    14  H    0.085093
    15  H    0.085104
    16  H    0.060443
    17  H    0.056455
 Sum of Mulliken charges =  -0.00000

 Dipole moment (field-independent basis, Debye):
    X=             -0.1451    Y=              0.0000    Z=             -0.0000  Tot=              0.1451
 Quadrupole moment (field-independent basis, Debye-Ang):
   XX=            -43.8852   YY=            -42.9312   ZZ=            -42.8093
   XY=             -0.0000   XZ=             -0.0008   YZ=              0.0001

  Exact polarizability:  75.290   0.001  65.527  -0.003   0.000  61.602
 Approx polarizability: 100.532   0.002  97.913  -0.005   0.000  97.050

                      1                      2                      3
                      A                      A                      A
 Frequencies --    237.8007               356.4504               421.0877
 Red. masses --      1.6451                 2.2941                 2.1068
 Frc consts  --      0.0548                 0.1717                 0.2201
 IR Inten    --      0.0000                 0.5468                 0.3909

                      4                      5                      6
                      A                      A                      A
 Frequencies --    663.2962               720.6183               736.8496
 Red. masses --      4.3681                 4.1698                 3.0346
 Frc consts  --      1.1323                 1.2758                 0.9707
 IR Inten    --      0.6252                 0.8402                 0.0000

                      7                      8                      9
                      A                      A                      A
 Frequencies --    807.4395               822.0608               871.1146
 Red. masses --      2.2759                 1.3772                 2.4345
 Frc consts  --      0.8742                 0.5483                 1.0885
 IR Inten    --      0.1797                 0.0289                 0.0758

                     10                     11                     12
                      A                      A                      A
 Frequencies --    887.4201               911.2961               928.8948
 Red. masses --      1.7782                 2.5465                 2.8720
 Frc consts  --      0.8251                 1.2460                 1.4601
 IR Inten    --      1.7201                 0.6705                 0.3569

                     13                     14                     15
                      A                      A                      A
 Frequencies --    958.7525               966.4490               992.6154
 Red. masses --      3.5528                 1.5079                 1.0830
 Frc consts  --      1.9241                 0.8298                 0.6287
 IR Inten    --      0.0023                 0.5788                 0.0000

                     16                     17                     18
                      A                      A                      A
 Frequencies --   1015.1957              1030.7185              1063.5361
 Red. masses --      1.1157                 1.9710                 1.4026
 Frc consts  --      0.6775                 1.2337                 0.9347
 IR Inten    --      0.0000                 0.9038                 0.1313

                     19                     20                     21
                      A                      A                      A
 Frequencies --   1083.9406              1109.6247              1112.7602
 Red. masses --      1.0774                 3.4951                 1.6628
 Frc consts  --      0.7459                 2.5355                 1.2131
 IR Inten    --      4.9852                 0.1072                 0.0000

                     22                     23                     24
                      A                      A                      A
 Frequencies --   1134.9464              1194.4526              1206.6128
 Red. masses --      1.5312                 1.4328                 1.3907
 Frc consts  --      1.1621                 1.2044                 1.1929
 IR Inten    --      0.0932                 0.0000                 0.5117

                     25                     26                     27
                      A                      A                      A
 Frequencies --   1234.9038              1241.4449              1251.2085
 Red. masses --      1.7083                 1.6866                 1.1383
 Frc consts  --      1.5349                 1.5315                 1.0500
 IR Inten    --      2.8276                 2.8224                 0.0000

                     28                     29                     30
                      A                      A                      A
 Frequencies --   1266.5787              1270.0586              1285.9097
 Red. masses --      1.6883                 1.7652                 1.8075
 Frc consts  --      1.5957                 1.6776                 1.7609
 IR Inten    --     12.2955                 0.2228                 0.0013

                     31                     32                     33
                      A                      A                      A
 Frequencies --   1318.3393              1374.8314              1488.0561
 Red. masses --      1.5906                 1.6261                 1.0809
 Frc consts  --      1.6288                 1.8109                 1.4102
 IR Inten    --      2.6681                 5.6374                 0.0989

                     34                     35                     36
                      A                      A                      A
 Frequencies --   1508.8983              1518.7841              3037.9878
 Red. masses --      1.1071                 1.1312                 1.0582
 Frc consts  --      1.4851                 1.5373                 5.7545
 IR Inten    --      0.7801                 0.0048                29.7280

                     37                     38                     39
                      A                      A                      A
 Frequencies --   3040.6867              3047.9267              3070.5074
 Red. masses --      1.0539                 1.0601                 1.1060
 Frc consts  --      5.7412                 5.8023                 6.1437
 IR Inten    --     59.4564                63.3169                 0.0011

                     40                     41                     42
                      A                      A                      A
 Frequencies --   3079.0166              3079.4171              3089.8635
 Red. masses --      1.0893                 1.0868                 1.0875
 Frc consts  --      6.0846                 6.0723                 6.1175
 IR Inten    --    120.0253                 0.9596                76.8857

                     43                     44                     45
                      A                      A                      A
 Frequencies --   3090.6322              3099.8495              3100.8510
 Red. masses --      1.1054                 1.1093                 1.0940
 Frc consts  --      6.2210                 6.2803                 6.1977
 IR Inten    --     58.0293                62.5582                 6.6128

 - Thermochemistry -
 -------------------
 Temperature   298.150 Kelvin.  Pressure   1.00000 Atm.
 Atom     1 has atomic number  6 and mass  12.00000

 Molecular mass:    94.07825 amu.
 Principal axes and moments of inertia in atomic units:
                           1         2         3
     Eigenvalues --   317.96698 620.73030 705.84036
           X            1.00000   0.00000  -0.00002
           Y           -0.00000   1.00000   0.00002
           Z            0.00002  -0.00002   1.00000
 This molecule is an asymmetric top.
 Rotational symmetry number  1.
 Rotational temperatures (Kelvin)      0.27240     0.13954     0.12271
 Rotational constants (GHZ):           5.67588     2.90745     2.55687
 Zero-point vibrational energy     399132.2 (Joules/Mol)
                                   95.39487 (Kcal/Mol)
 Warning -- explicit consideration of   3 degrees of freedom as
           vibrations may cause significant error
 Vibrational temperatures:    342.14   512.85   605.85   954.34  1036.81
          (Kelvin)           1060.16  1161.73  1182.76  1253.34  1276.80
                             1311.15  1336.47  1379.43  1390.50  1428.15
                             1460.64  1482.97  1530.19  1559.55  1596.50
                             1601.01  1632.93  1718.55  1736.05  1776.75
                             1786.16  1800.21  1822.32  1827.33  1850.14
                             1896.80  1978.08  2140.98  2170.97  2185.19
                             4370.99  4374.87  4385.29  4417.78  4430.02
                             4430.59  4445.62  4446.73  4459.99  4461.43

 Zero-point correction=                           0.152021 (Hartree/Particle)
 Thermal correction to Energy=                    0.157160
 Thermal correction to Enthalpy=                  0.158104
 Thermal correction to Gibbs Free Energy=         0.123503
 Sum of electronic and zero-point Energies=           -272.550800
 Sum of electronic and thermal Energies=              -272.545662
 Sum of electronic and thermal Enthalpies=            -272.544717
 Sum of electronic and thermal Free Energies=         -272.579318

                     E (Thermal)             CV                S
                      KCal/Mol        Cal/Mol-Kelvin    Cal/Mol-Kelvin
 Total                   98.619             21.677             72.824
 Electronic               0.000              0.000              0.000
 Translational            0.889              2.981             39.536
 Rotational               0.889              2.981             26.435
 Vibrational             96.842             15.715              6.853
 Vibration     1          0.656              1.783              1.819
 Vibration     2          0.732              1.562              1.138
 Vibration     3          0.784              1.424              0.888

 Optimization completed.
    -- Stationary point found.
 Normal termination of Gaussian 16 at Sun May 28 00:24:11 2023.
