 Gaussian 16, Revision A.03,
 Gaussian 16:  ES64L-G16RevA.03 25-Dec-2016

 -----------------------------
 # opt freq b3lyp/6-31g(2df,p)
 -----------------------------

 -------------------
 Title Card Required
 -------------------
 Symbolic Z-matrix:
 Charge =  0 Multiplicity = 1

 SCF Done:  E(RB3LYP) =  -351.243321738     A.U. after   12 cycles
 SCF Done:  E(RB3LYP) =  -351.271317589     A.U. after   11 cycles
 SCF Done:  E(RB3LYP) =  -351.286389070     A.U. after   11 cycles
 SCF Done:  E(RB3LYP) =  -351.289501076     A.U. after   10 cycles
 SCF Done:  E(RB3LYP) =  -351.290223781     A.U. after    9 cycles
 SCF Done:  E(RB3LYP) =  -351.290948038     A.U. after   10 cycles
 SCF Done:  E(RB3LYP) =  -351.291646839     A.U. after   13 cycles
 SCF Done:  E(RB3LYP) =  -351.292498711     A.U. after    9 cycles
 SCF Done:  E(RB3LYP) =  -351.293142367     A.U. after    9 cycles
 SCF Done:  E(RB3LYP) =  -351.293399999     A.U. after   10 cycles
 SCF Done:  E(RB3LYP) =  -351.296141960     A.U. after   10 cycles
 SCF Done:  E(RB3LYP) =  -351.297840816     A.U. after   10 cycles
 SCF Done:  E(RB3LYP) =  -351.297949457     A.U. after    9 cycles
 SCF Done:  E(RB3LYP) =  -351.297979855     A.U. after    9 cycles
 SCF Done:  E(RB3LYP) =  -351.297990800     A.U. after    8 cycles
 SCF Done:  E(RB3LYP) =  -351.297992555     A.U. after    7 cycles
 SCF Done:  E(RB3LYP) =  -351.297994012     A.U. after    8 cycles
 SCF Done:  E(RB3LYP) =  -351.297994297     A.U. after    6 cycles
 SCF Done:  E(RB3LYP) =  -351.297994447     A.U. after    5 cycles
 Optimization completed.
    -- Stationary point found.
 Normal termination of Gaussian 16 at Sun May 28 18:22:26 2023.

 ----------------------------------------------------------------------
 #N Geom=AllCheck Guess=TCheck SCRF=Check GenChk RB3LYP/6-31G(2df,p) Fr
 eq
 ----------------------------------------------------------------------

 Structure from the checkpoint file:  "C1CCqC2C3CC2C3rC1.chk"
 -------------------
 Title Card Required
 -------------------
 Charge =  0 Multiplicity = 1

                         Standard orientation:
 ---------------------------------------------------------------------
 Center     Atomic      Atomic             Coordinates (Angstroms)
 Number     Number       Type             X           Y           Z
 ---------------------------------------------------------------------
      1          6           0       -2.786123   -0.000122    0.540874
      2          6           0       -1.934118   -1.090685   -0.164807
      3          6           0       -0.886363    0.000153   -0.558889
      4          6           0        0.346970   -0.000032    0.324754
      5          6           0        1.570870   -0.940814    0.056289
      6          6           0        2.387687   -0.000324    0.989461
      7          6           0        1.570946    0.940814    0.056881
      8          6           0        1.987507    0.000331   -1.112453
      9          6           0       -1.934162    1.090724   -0.164414
     10          1           0       -2.651684   -0.000353    1.625971
     11          1           0       -3.859097   -0.000078    0.334488
     12          1           0       -2.437065   -1.517975   -1.036536
     13          1           0       -1.568293   -1.913729    0.455920
     14          1           0       -0.617570    0.000387   -1.617088
     15          1           0        0.036725   -0.000334    1.378845
     16          1           0        1.575879   -2.032486    0.057582
     17          1           0        3.472269   -0.000329    0.851208
     18          1           0        2.116979   -0.000667    2.049334
     19          1           0        1.576020    2.032483    0.058894
     20          1           0        3.049939    0.000354   -1.372238
     21          1           0        1.372256    0.000641   -2.013015
     22          1           0       -2.437163    1.518146   -1.036054
     23          1           0       -1.568470    1.913670    0.456517
 ---------------------------------------------------------------------

 SCF Done:  E(RB3LYP) =  -351.297994447     A.U. after    1 cycles

 The electronic state is 1-A.
 Alpha  occ. eigenvalues --  -10.19365 -10.19362 -10.18456 -10.18071 -10.17949
 Alpha  occ. eigenvalues --  -10.17648 -10.17418 -10.17270 -10.17268  -0.90439
 Alpha  occ. eigenvalues --   -0.83079  -0.69114  -0.65961  -0.65157  -0.61599
 Alpha  occ. eigenvalues --   -0.61480  -0.54377  -0.51216  -0.48942  -0.47990
 Alpha  occ. eigenvalues --   -0.46038  -0.43300  -0.40737  -0.38485  -0.36300
 Alpha  occ. eigenvalues --   -0.35066  -0.32992  -0.32067  -0.31539  -0.31219
 Alpha  occ. eigenvalues --   -0.30163  -0.28989  -0.28298  -0.27656
 Alpha virt. eigenvalues --    0.09180   0.09767   0.11097   0.12005   0.12608
 Alpha virt. eigenvalues --    0.14642   0.14730   0.14977   0.15659   0.16090
 Alpha virt. eigenvalues --    0.16890   0.18171   0.19185   0.19275   0.19734

 Mulliken charges:
               1
     1  C   -0.199716
     2  C   -0.221240
     3  C   -0.041695
     4  C    0.084973
     5  C   -0.062585
     6  C   -0.217878
     7  C   -0.062610
     8  C   -0.224524
     9  C   -0.221220
    10  H    0.101299
    11  H    0.094243
    12  H    0.094985
    13  H    0.093037
    14  H    0.062038
    15  H    0.052820
    16  H    0.064573
    17  H    0.086071
    18  H    0.085134
    19  H    0.064575
    20  H    0.086016
    21  H    0.093695
    22  H    0.094981
    23  H    0.093029
 Sum of Mulliken charges =  -0.00000

 Dipole moment (field-independent basis, Debye):
    X=             -0.1140    Y=             -0.0000    Z=             -0.0802  Tot=              0.1393
 Quadrupole moment (field-independent basis, Debye-Ang):
   XX=            -56.7088   YY=            -56.9524   ZZ=            -55.9501
   XY=             -0.0001   XZ=              0.4614   YZ=             -0.0001

  Exact polarizability: 105.941   0.000  81.726   0.141  -0.000  82.710
 Approx polarizability: 133.054   0.001 124.993  -0.111  -0.000 127.629

                      1                      2                      3
                      A                      A                      A
 Frequencies --     63.2244                84.5183               148.3187
 Red. masses --      2.8411                 2.0513                 2.6209
 Frc consts  --      0.0067                 0.0086                 0.0340
 IR Inten    --      0.0000                 0.0110                 0.0501

                      4                      5                      6
                      A                      A                      A
 Frequencies --    235.7219               307.2674               419.4553
 Red. masses --      2.4028                 3.3686                 2.7570
 Frc consts  --      0.0787                 0.1874                 0.2858
 IR Inten    --      0.2802                 0.0016                 0.0503

                      7                      8                      9
                      A                      A                      A
 Frequencies --    521.3317               568.6028               680.4083
 Red. masses --      2.4782                 1.8300                 1.4911
 Frc consts  --      0.3968                 0.3486                 0.4067
 IR Inten    --      0.5917                 0.9730                 2.4760

                     10                     11                     12
                      A                      A                      A
 Frequencies --    756.1062               777.7547               805.5134
 Red. masses --      1.4120                 2.3717                 2.7997
 Frc consts  --      0.4756                 0.8453                 1.0703
 IR Inten    --      0.0078                 0.0296                 0.4538

                     13                     14                     15
                      A                      A                      A
 Frequencies --    836.9940               856.4399               877.5895
 Red. masses --      2.1920                 2.1432                 2.3814
 Frc consts  --      0.9048                 0.9262                 1.0806
 IR Inten    --      0.2006                 1.2584                 1.7128

                     16                     17                     18
                      A                      A                      A
 Frequencies --    897.0481               903.3937               923.3000
 Red. masses --      2.5626                 2.0806                 2.4463
 Frc consts  --      1.2150                 1.0004                 1.2287
 IR Inten    --      0.0689                 0.2977                 0.3425

                     19                     20                     21
                      A                      A                      A
 Frequencies --    932.5211               960.2822               983.9878
 Red. masses --      1.8165                 2.2549                 2.9314
 Frc consts  --      0.9307                 1.2251                 1.6723
 IR Inten    --      0.8152                 0.0919                 2.4561

                     22                     23                     24
                      A                      A                      A
 Frequencies --   1008.9116              1023.5026              1029.0290
 Red. masses --      1.0169                 1.3998                 1.0236
 Frc consts  --      0.6099                 0.8640                 0.6386
 IR Inten    --      0.0654                 0.6199                 0.4595

                     25                     26                     27
                      A                      A                      A
 Frequencies --   1051.3940              1053.2291              1099.4154
 Red. masses --      2.5091                 1.2421                 1.4856
 Frc consts  --      1.6342                 0.8118                 1.0580
 IR Inten    --      0.4829                 0.1267                 0.0254

                     28                     29                     30
                      A                      A                      A
 Frequencies --   1112.1382              1129.2000              1145.6679
 Red. masses --      2.1875                 2.5125                 1.3308
 Frc consts  --      1.5941                 1.8876                 1.0291
 IR Inten    --      0.2462                 0.3393                 0.1937

                     31                     32                     33
                      A                      A                      A
 Frequencies --   1187.2058              1189.0839              1190.9199
 Red. masses --      2.2474                 1.2580                 1.3721
 Frc consts  --      1.8663                 1.0480                 1.1466
 IR Inten    --      0.6062                 0.3984                 0.7875

                     34                     35                     36
                      A                      A                      A
 Frequencies --   1215.6951              1229.1145              1248.8774
 Red. masses --      1.4229                 1.3793                 1.6388
 Frc consts  --      1.2390                 1.2277                 1.5060
 IR Inten    --      0.3322                 0.1332                16.3850

                     37                     38                     39
                      A                      A                      A
 Frequencies --   1252.3354              1254.4423              1260.1575
 Red. masses --      1.6739                 1.2101                 1.3513
 Frc consts  --      1.5467                 1.1219                 1.2643
 IR Inten    --      0.3522                 0.0055                 0.1782

                     40                     41                     42
                      A                      A                      A
 Frequencies --   1267.9510              1280.6538              1286.6683
 Red. masses --      1.7619                 1.4449                 1.5715
 Frc consts  --      1.6690                 1.3962                 1.5329
 IR Inten    --      0.9926                 0.0380                 0.1625

                     43                     44                     45
                      A                      A                      A
 Frequencies --   1331.5105              1440.4261              1476.1772
 Red. masses --      1.3650                 1.3905                 1.0863
 Frc consts  --      1.4259                 1.6999                 1.3947
 IR Inten    --      4.2698                 3.2714                 1.0353

                     46                     47                     48
                      A                      A                      A
 Frequencies --   1482.5193              1502.1602              1506.9780
 Red. masses --      1.0807                 1.1042                 1.1212
 Frc consts  --      1.3994                 1.4681                 1.5002
 IR Inten    --      0.8257                 0.2092                 1.6541

                     49                     50                     51
                      A                      A                      A
 Frequencies --   1541.1533              3004.0093              3044.6172
 Red. masses --      1.1388                 1.0823                 1.0538
 Frc consts  --      1.5937                 5.7545                 5.7556
 IR Inten    --      1.9555                32.6550                55.6585

                     52                     53                     54
                      A                      A                      A
 Frequencies --   3048.6818              3049.7017              3056.9946
 Red. masses --      1.0573                 1.0584                 1.0591
 Frc consts  --      5.7901                 5.7998                 5.8312
 IR Inten    --     68.5478                 5.9004                 8.0662

                     55                     56                     57
                      A                      A                      A
 Frequencies --   3060.1535              3076.0491              3088.2337
 Red. masses --      1.0619                 1.0886                 1.0895
 Frc consts  --      5.8588                 6.0689                 6.1218
 IR Inten    --     72.4994                15.4004               119.5400

                     58                     59                     60
                      A                      A                      A
 Frequencies --   3090.9249              3095.4325              3099.0908
 Red. masses --      1.1042                 1.0934                 1.1077
 Frc consts  --      6.2156                 6.1729                 6.2679
 IR Inten    --     20.5291                 6.4839                 5.5418

                     61                     62                     63
                      A                      A                      A
 Frequencies --   3110.4270              3116.3171              3126.2061
 Red. masses --      1.1103                 1.1067                 1.1042
 Frc consts  --      6.3291                 6.3326                 6.3583
 IR Inten    --     53.3252                64.6434                58.1245

 - Thermochemistry -
 -------------------
 Temperature   298.150 Kelvin.  Pressure   1.00000 Atm.
 Atom     1 has atomic number  6 and mass  12.00000

 Molecular mass:   122.10955 amu.
 Principal axes and moments of inertia in atomic units:
                           1         2         3
     Eigenvalues --   453.032811777.985961825.95888
           X            1.00000  -0.00000  -0.00105
           Y            0.00000   1.00000  -0.00006
           Z            0.00105   0.00006   1.00000
 This molecule is an asymmetric top.
 Rotational symmetry number  1.
 Warning -- assumption of classical behavior for rotation
           may cause significant error
 Rotational temperatures (Kelvin)      0.19119     0.04871     0.04743
 Rotational constants (GHZ):           3.98369     1.01505     0.98838
 Zero-point vibrational energy     546712.2 (Joules/Mol)
                                  130.66734 (Kcal/Mol)
 Warning -- explicit consideration of   8 degrees of freedom as
           vibrations may cause significant error
 Vibrational temperatures:     90.97   121.60   213.40   339.15   442.09
          (Kelvin)            603.50   750.08   818.09   978.96  1087.87
                             1119.02  1158.95  1204.25  1232.23  1262.66
                             1290.65  1299.78  1328.42  1341.69  1381.63
                             1415.74  1451.60  1472.59  1480.54  1512.72
                             1515.36  1581.81  1600.12  1624.67  1648.36
                             1708.12  1710.83  1713.47  1749.11  1768.42
                             1796.86  1801.83  1804.86  1813.09  1824.30
                             1842.58  1851.23  1915.75  2072.45  2123.89
                             2133.01  2161.27  2168.21  2217.38  4322.10
                             4380.53  4386.37  4387.84  4398.33  4402.88
                             4425.75  4443.28  4447.15  4453.64  4458.90
                             4475.21  4483.69  4497.91

 Zero-point correction=                           0.208232 (Hartree/Particle)
 Thermal correction to Energy=                    0.216200
 Thermal correction to Enthalpy=                  0.217144
 Thermal correction to Gibbs Free Energy=         0.175073
 Sum of electronic and zero-point Energies=           -351.089763
 Sum of electronic and thermal Energies=              -351.081795
 Sum of electronic and thermal Enthalpies=            -351.080851
 Sum of electronic and thermal Free Energies=         -351.122922

                     E (Thermal)             CV                S
                      KCal/Mol        Cal/Mol-Kelvin    Cal/Mol-Kelvin
 Total                  135.667             31.872             88.546
 Electronic               0.000              0.000              0.000
 Translational            0.889              2.981             40.313
 Rotational               0.889              2.981             28.777
 Vibrational            133.890             25.910             19.456
 Vibration     1          0.597              1.972              4.354
 Vibration     2          0.601              1.960              3.783
 Vibration     3          0.618              1.904              2.694
 Vibration     4          0.655              1.786              1.835
 Vibration     5          0.697              1.660              1.377
 Vibration     6          0.782              1.428              0.894
 Vibration     7          0.876              1.203              0.607
 Vibration     8          0.925              1.099              0.507

 Optimization completed.
    -- Stationary point found.
 Normal termination of Gaussian 16 at Sun May 28 19:04:15 2023.
