 Gaussian 16, Revision A.03,
 Gaussian 16:  ES64L-G16RevA.03 25-Dec-2016

 -----------------------------
 # opt freq b3lyp/6-31g(2df,p)
 -----------------------------

 -------------------
 Title Card Required
 -------------------
 Symbolic Z-matrix:
 Charge =  0 Multiplicity = 1

 SCF Done:  E(RB3LYP) =  -275.203508336     A.U. after   11 cycles
 SCF Done:  E(RB3LYP) =  -275.205360054     A.U. after    9 cycles
 SCF Done:  E(RB3LYP) =  -275.205513097     A.U. after    9 cycles
 SCF Done:  E(RB3LYP) =  -275.205556624     A.U. after    8 cycles
 SCF Done:  E(RB3LYP) =  -275.205567136     A.U. after    8 cycles
 SCF Done:  E(RB3LYP) =  -275.205574310     A.U. after    8 cycles
 SCF Done:  E(RB3LYP) =  -275.205575269     A.U. after    7 cycles
 SCF Done:  E(RB3LYP) =  -275.205575333     A.U. after    6 cycles
 Optimization completed.
    -- Stationary point found.
 Normal termination of Gaussian 16 at Sun May 28 07:38:24 2023.

 ----------------------------------------------------------------------
 #N Geom=AllCheck Guess=TCheck SCRF=Check GenChk RB3LYP/6-31G(2df,p) Fr
 eq
 ----------------------------------------------------------------------

 Structure from the checkpoint file:  "C1CCCCCC1.chk"
 -------------------
 Title Card Required
 -------------------
 Charge =  0 Multiplicity = 1

                         Standard orientation:
 ---------------------------------------------------------------------
 Center     Atomic      Atomic             Coordinates (Angstroms)
 Number     Number       Type             X           Y           Z
 ---------------------------------------------------------------------
      1          6           0       -1.775776    0.000045   -0.000035
      2          6           0       -0.968946    1.250873   -0.403070
      3          6           0        0.313825    1.527346    0.401900
      4          6           0        1.542179    0.758916   -0.114606
      5          6           0        1.542136   -0.759013    0.114578
      6          6           0        0.313716   -1.527375   -0.401869
      7          6           0       -0.969037   -1.250795    0.403106
      8          1           0       -2.439506   -0.254730   -0.835814
      9          1           0       -2.439628    0.254815    0.835648
     10          1           0       -1.637681    2.116859   -0.332854
     11          1           0       -0.692444    1.181861   -1.463284
     12          1           0        0.151806    1.315329    1.467653
     13          1           0        0.538844    2.598892    0.340888
     14          1           0        2.445378    1.173964    0.350260
     15          1           0        1.639683    0.959034   -1.191195
     16          1           0        1.639652   -0.959121    1.191166
     17          1           0        2.445299   -1.174127   -0.350304
     18          1           0        0.538695   -2.598927   -0.340835
     19          1           0        0.151689   -1.315375   -1.467623
     20          1           0       -0.692545   -1.181712    1.463315
     21          1           0       -1.637826   -2.116746    0.332950
 ---------------------------------------------------------------------

 SCF Done:  E(RB3LYP) =  -275.205575333     A.U. after    1 cycles

 The electronic state is 1-A.
 Alpha  occ. eigenvalues --  -10.17175 -10.17172 -10.17151 -10.17143 -10.17133
 Alpha  occ. eigenvalues --  -10.17092 -10.17088  -0.81348  -0.75056  -0.74996
 Alpha  occ. eigenvalues --   -0.63913  -0.63861  -0.55366  -0.53772  -0.46898
 Alpha  occ. eigenvalues --   -0.44614  -0.43894  -0.42129  -0.39451  -0.39122
 Alpha  occ. eigenvalues --   -0.36738  -0.36385  -0.32068  -0.31958  -0.31385
 Alpha  occ. eigenvalues --   -0.30207  -0.29665  -0.29652
 Alpha virt. eigenvalues --    0.07928   0.10773   0.11760   0.13532   0.13666
 Alpha virt. eigenvalues --    0.14162   0.16832   0.17372   0.17879   0.18368
 Alpha virt. eigenvalues --    0.18370   0.19120   0.20793   0.20890   0.23068

 Mulliken charges:
               1
     1  C   -0.182866
     2  C   -0.177833
     3  C   -0.181125
     4  C   -0.174754
     5  C   -0.174754
     6  C   -0.181122
     7  C   -0.177838
     8  H    0.091780
     9  H    0.091778
    10  H    0.087956
    11  H    0.091342
    12  H    0.088914
    13  H    0.088985
    14  H    0.086643
    15  H    0.089527
    16  H    0.089527
    17  H    0.086644
    18  H    0.088985
    19  H    0.088913
    20  H    0.091342
    21  H    0.087956
 Sum of Mulliken charges =  -0.00000

 Dipole moment (field-independent basis, Debye):
    X=              0.0018    Y=              0.0000    Z=              0.0000  Tot=              0.0018
 Quadrupole moment (field-independent basis, Debye-Ang):
   XX=            -46.6476   YY=            -46.3426   ZZ=            -46.0277
   XY=              0.0000   XZ=             -0.0001   YZ=              0.0747

  Exact polarizability:  78.182  -0.000  76.608  -0.000   0.081  65.431
 Approx polarizability: 102.019  -0.000 101.314  -0.000   0.002 102.858

                      1                      2                      3
                      A                      A                      A
 Frequencies --    111.7511               163.7485               274.8373
 Red. masses --      1.8177                 1.9331                 1.7264
 Frc consts  --      0.0134                 0.0305                 0.0768
 IR Inten    --      0.0172                 0.0069                 0.0767

                      4                      5                      6
                      A                      A                      A
 Frequencies --    309.8994               330.5315               389.1433
 Red. masses --      2.3725                 2.9345                 2.1569
 Frc consts  --      0.1342                 0.1889                 0.1924
 IR Inten    --      0.0046                 0.0558                 0.0015

                      7                      8                      9
                      A                      A                      A
 Frequencies --    486.6974               518.5179               734.2657
 Red. masses --      1.4555                 1.8486                 2.8698
 Frc consts  --      0.2031                 0.2928                 0.9116
 IR Inten    --      0.3537                 0.2202                 0.0160

                     10                     11                     12
                      A                      A                      A
 Frequencies --    737.7190               814.6403               831.4050
 Red. masses --      1.2490                 1.9091                 2.6770
 Frc consts  --      0.4005                 0.7465                 1.0902
 IR Inten    --      1.0257                 2.1165                 1.0443

                     13                     14                     15
                      A                      A                      A
 Frequencies --    851.8842               865.5866               960.0845
 Red. masses --      1.4745                 1.6219                 1.9871
 Frc consts  --      0.6305                 0.7160                 1.0792
 IR Inten    --      0.4894                 0.3064                 1.4332

                     16                     17                     18
                      A                      A                      A
 Frequencies --    964.2286              1012.7387              1018.9066
 Red. masses --      2.2150                 2.0983                 2.2139
 Frc consts  --      1.2133                 1.2680                 1.3542
 IR Inten    --      1.7828                 0.2859                 0.0110

                     19                     20                     21
                      A                      A                      A
 Frequencies --   1030.7150              1051.6760              1121.9531
 Red. masses --      1.3310                 1.3474                 2.0249
 Frc consts  --      0.8331                 0.8780                 1.5018
 IR Inten    --      0.4027                 0.1366                 0.0340

                     22                     23                     24
                      A                      A                      A
 Frequencies --   1138.7287              1206.0388              1217.3901
 Red. masses --      2.1504                 1.5654                 1.2436
 Frc consts  --      1.6429                 1.3415                 1.0859
 IR Inten    --      0.1250                 1.1221                 0.0545

                     25                     26                     27
                      A                      A                      A
 Frequencies --   1226.0630              1231.8687              1307.0309
 Red. masses --      1.2128                 1.4171                 1.1851
 Frc consts  --      1.0741                 1.2670                 1.1928
 IR Inten    --      0.5710                 0.8722                 1.5489

                     28                     29                     30
                      A                      A                      A
 Frequencies --   1309.2325              1314.9483              1359.2596
 Red. masses --      1.1689                 1.1224                 1.3005
 Frc consts  --      1.1805                 1.1434                 1.4157
 IR Inten    --      1.4194                 0.0006                 0.1473

                     31                     32                     33
                      A                      A                      A
 Frequencies --   1378.3781              1378.3834              1385.3957
 Red. masses --      1.3602                 1.3538                 1.5194
 Frc consts  --      1.5227                 1.5154                 1.7182
 IR Inten    --      2.1871                 1.0949                 0.0303

                     34                     35                     36
                      A                      A                      A
 Frequencies --   1393.7954              1400.1809              1401.1750
 Red. masses --      1.3858                 1.3531                 1.4169
 Frc consts  --      1.5862                 1.5630                 1.6390
 IR Inten    --      3.6280                 6.6491                 1.4622

                     37                     38                     39
                      A                      A                      A
 Frequencies --   1481.1923              1482.8877              1485.9034
 Red. masses --      1.0835                 1.0794                 1.0885
 Frc consts  --      1.4006                 1.3985                 1.4159
 IR Inten    --      0.5343                 0.4030                 0.0000

                     40                     41                     42
                      A                      A                      A
 Frequencies --   1487.4928              1493.6535              1501.7564
 Red. masses --      1.0929                 1.0973                 1.0796
 Frc consts  --      1.4248                 1.4424                 1.4345
 IR Inten    --      4.2466                 2.8095                11.7391

                     43                     44                     45
                      A                      A                      A
 Frequencies --   1509.2464              3001.9749              3003.1460
 Red. masses --      1.0918                 1.0689                 1.0609
 Frc consts  --      1.4653                 5.6754                 5.6372
 IR Inten    --      0.1542                12.7533                19.7467

                     46                     47                     48
                      A                      A                      A
 Frequencies --   3008.4506              3010.2231              3013.5298
 Red. masses --      1.0677                 1.0598                 1.0620
 Frc consts  --      5.6937                 5.6579                 5.6824
 IR Inten    --     17.1347                 8.2575                 1.3509

                     49                     50                     51
                      A                      A                      A
 Frequencies --   3014.9428              3022.5109              3038.4216
 Red. masses --      1.0630                 1.0668                 1.0976
 Frc consts  --      5.6929                 5.7422                 5.9704
 IR Inten    --     34.8151                19.9820                 9.7386

                     52                     53                     54
                      A                      A                      A
 Frequencies --   3043.1590              3048.7794              3049.4432
 Red. masses --      1.0927                 1.0975                 1.1030
 Frc consts  --      5.9623                 6.0106                 6.0433
 IR Inten    --     82.1218                52.2205                32.1553

                     55                     56                     57
                      A                      A                      A
 Frequencies --   3055.0962              3057.9684              3066.2339
 Red. masses --      1.1002                 1.0932                 1.1027
 Frc consts  --      6.0500                 6.0232                 6.1085
 IR Inten    --    106.7558                 5.1744               127.9641

 - Thermochemistry -
 -------------------
 Temperature   298.150 Kelvin.  Pressure   1.00000 Atm.
 Atom     1 has atomic number  6 and mass  12.00000

 Molecular mass:    98.10955 amu.
 Principal axes and moments of inertia in atomic units:
                           1         2         3
     Eigenvalues --   581.35458 635.683481061.90599
           X            1.00000  -0.00000   0.00000
           Y            0.00000   1.00000  -0.00226
           Z           -0.00000   0.00226   1.00000
 This molecule is an asymmetric top.
 Rotational symmetry number  1.
 Warning -- assumption of classical behavior for rotation
           may cause significant error
 Rotational temperatures (Kelvin)      0.14899     0.13625     0.08156
 Rotational constants (GHZ):           3.10437     2.83906     1.69953
 Zero-point vibrational energy     521002.5 (Joules/Mol)
                                  124.52258 (Kcal/Mol)
 Warning -- explicit consideration of   8 degrees of freedom as
           vibrations may cause significant error
 Vibrational temperatures:    160.78   235.60   395.43   445.88   475.56
          (Kelvin)            559.89   700.25   746.03  1056.44  1061.41
                             1172.09  1196.21  1225.67  1245.39  1381.35
                             1387.31  1457.11  1465.98  1482.97  1513.13
                             1614.24  1638.38  1735.22  1751.55  1764.03
                             1772.38  1880.53  1883.69  1891.92  1955.67
                             1983.18  1983.19  1993.28  2005.36  2014.55
                             2015.98  2131.11  2133.54  2137.88  2140.17
                             2149.03  2160.69  2171.47  4319.17  4320.86
                             4328.49  4331.04  4335.80  4337.83  4348.72
                             4371.61  4378.43  4386.51  4387.47  4395.60
                             4399.73  4411.63

 Zero-point correction=                           0.198439 (Hartree/Particle)
 Thermal correction to Energy=                    0.205528
 Thermal correction to Enthalpy=                  0.206472
 Thermal correction to Gibbs Free Energy=         0.167646
 Sum of electronic and zero-point Energies=           -275.007136
 Sum of electronic and thermal Energies=              -275.000047
 Sum of electronic and thermal Enthalpies=            -274.999103
 Sum of electronic and thermal Free Energies=         -275.037930

                     E (Thermal)             CV                S
                      KCal/Mol        Cal/Mol-Kelvin    Cal/Mol-Kelvin
 Total                  128.971             27.888             81.717
 Electronic               0.000              0.000              0.000
 Translational            0.889              2.981             39.661
 Rotational               0.889              2.981             27.464
 Vibrational            127.193             21.927             14.592
 Vibration     1          0.607              1.940              3.238
 Vibration     2          0.623              1.887              2.506
 Vibration     3          0.677              1.720              1.566
 Vibration     4          0.699              1.655              1.363
 Vibration     5          0.713              1.615              1.257
 Vibration     6          0.757              1.493              1.003
 Vibration     7          0.843              1.280              0.692
 Vibration     8          0.874              1.209              0.613

 Optimization completed.
    -- Stationary point found.
 Normal termination of Gaussian 16 at Sun May 28 08:01:06 2023.
