 Gaussian 16, Revision A.03,
 Gaussian 16:  ES64L-G16RevA.03 25-Dec-2016

 -----------------------------
 # opt freq b3lyp/6-31g(2df,p)
 -----------------------------

 -------------------
 Title Card Required
 -------------------
 Symbolic Z-matrix:
 Charge =  0 Multiplicity = 1

 SCF Done:  E(RB3LYP) =  -117.905958194     A.U. after    9 cycles
 SCF Done:  E(RB3LYP) =  -117.906021828     A.U. after    7 cycles
 SCF Done:  E(RB3LYP) =  -117.906023769     A.U. after    6 cycles
 Optimization completed.
    -- Stationary point found.
 Normal termination of Gaussian 16 at Sat May 27 22:23:51 2023.

 ----------------------------------------------------------------------
 #N Geom=AllCheck Guess=TCheck SCRF=Check GenChk RB3LYP/6-31G(2df,p) Fr
 eq
 ----------------------------------------------------------------------

 Structure from the checkpoint file:  "C1CC1.chk"
 -------------------
 Title Card Required
 -------------------
 Charge =  0 Multiplicity = 1

                         Standard orientation:
 ---------------------------------------------------------------------
 Center     Atomic      Atomic             Coordinates (Angstroms)
 Number     Number       Type             X           Y           Z
 ---------------------------------------------------------------------
      1          6           0        0.869897   -0.025409    0.000330
      2          6           0       -0.456947   -0.740636   -0.000172
      3          6           0       -0.412936    0.766045   -0.000172
      4          1           0        1.459132   -0.042622   -0.909964
      5          1           0        1.461315   -0.042684    0.909052
      6          1           0       -0.767740   -1.242133    0.909755
      7          1           0       -0.766401   -1.244331   -0.909259
      8          1           0       -0.693926    1.284825    0.909756
      9          1           0       -0.692461    1.286944   -0.909260
 ---------------------------------------------------------------------

 SCF Done:  E(RB3LYP) =  -117.906023769     A.U. after    1 cycles

 The electronic state is 1-A.
 Alpha  occ. eigenvalues --  -10.18079 -10.18041 -10.18041  -0.84225  -0.59198
 Alpha  occ. eigenvalues --   -0.59198  -0.48694  -0.45997  -0.35794  -0.35794
 Alpha  occ. eigenvalues --   -0.28875  -0.28875
 Alpha virt. eigenvalues --    0.10422   0.11107   0.15030   0.15331   0.15331
 Alpha virt. eigenvalues --    0.23152   0.23152   0.25470   0.25470   0.44645
 Alpha virt. eigenvalues --    0.50257   0.50873   0.50874   0.53956   0.58070

 Mulliken charges:
               1
     1  C   -0.222992
     2  C   -0.222988
     3  C   -0.222990
     4  H    0.111477
     5  H    0.111516
     6  H    0.111484
     7  H    0.111505
     8  H    0.111484
     9  H    0.111505
 Sum of Mulliken charges =  -0.00000

 Dipole moment (field-independent basis, Debye):
    X=             -0.0001    Y=              0.0000    Z=              0.0000  Tot=              0.0001
 Quadrupole moment (field-independent basis, Debye-Ang):
   XX=            -20.3001   YY=            -20.3005   ZZ=            -18.2268
   XY=             -0.0000   XZ=             -0.0011   YZ=              0.0000

  Exact polarizability:  31.326  -0.000  31.326  -0.005   0.000  29.838
 Approx polarizability:  42.431   0.000  42.430  -0.006   0.000  40.863

                      1                      2                      3
                      A                      A                      A
 Frequencies --    734.8668               734.9492               856.2231
 Red. masses --      1.0232                 1.0232                 1.0451
 Frc consts  --      0.3256                 0.3256                 0.4514
 IR Inten    --      0.0001                 0.0001                 0.3389

                      4                      5                      6
                      A                      A                      A
 Frequencies --    891.6841               891.7172              1060.5989
 Red. masses --      3.4824                 3.4824                 1.2993
 Frc consts  --      1.6314                 1.6315                 0.8611
 IR Inten    --     14.3323                14.3291                 6.0221

                      7                      8                      9
                      A                      A                      A
 Frequencies --   1060.7360              1088.9811              1157.5415
 Red. masses --      1.2993                 1.4281                 1.0078
 Frc consts  --      0.8613                 0.9978                 0.7956
 IR Inten    --      6.0249                 0.0001                 0.0002

                     10                     11                     12
                      A                      A                      A
 Frequencies --   1213.0174              1213.0237              1219.3517
 Red. masses --      1.4498                 1.4498                 2.6739
 Frc consts  --      1.2569                 1.2569                 2.3423
 IR Inten    --      0.0000                 0.0000                 0.0000

                     13                     14                     15
                      A                      A                      A
 Frequencies --   1473.2220              1473.3199              1515.3591
 Red. masses --      1.0863                 1.0863                 1.3275
 Frc consts  --      1.3891                 1.3893                 1.7960
 IR Inten    --      0.2563                 0.2562                 0.0000

                     16                     17                     18
                      A                      A                      A
 Frequencies --   3133.1378              3133.2173              3141.1540
 Red. masses --      1.0505                 1.0505                 1.0632
 Frc consts  --      6.0756                 6.0759                 6.1806
 IR Inten    --     26.7944                26.7951                 0.0012

                     19                     20                     21
                      A                      A                      A
 Frequencies --   3209.6422              3209.7265              3231.6830
 Red. masses --      1.1178                 1.1178                 1.1149
 Frc consts  --      6.7847                 6.7851                 6.8604
 IR Inten    --      0.0007                 0.0009                33.1691

 - Thermochemistry -
 -------------------
 Temperature   298.150 Kelvin.  Pressure   1.00000 Atm.
 Atom     1 has atomic number  6 and mass  12.00000

 Molecular mass:    42.04695 amu.
 Principal axes and moments of inertia in atomic units:
                           1         2         3
     Eigenvalues --    89.58444  89.58714 143.44618
           X            0.99999  -0.00518  -0.00017
           Y            0.00518   0.99999   0.00001
           Z            0.00017  -0.00001   1.00000
 This molecule is an asymmetric top.
 Rotational symmetry number  1.
 Rotational temperatures (Kelvin)      0.96684     0.96681     0.60381
 Rotational constants (GHZ):          20.14570    20.14509    12.58131
 Zero-point vibrational energy     213193.4 (Joules/Mol)
                                   50.95444 (Kcal/Mol)
 Vibrational temperatures:   1057.31  1057.43  1231.91  1282.93  1282.98
          (Kelvin)           1525.97  1526.16  1566.80  1665.44  1745.26
                             1745.27  1754.38  2119.64  2119.78  2180.26
                             4507.89  4508.00  4519.42  4617.96  4618.08
                             4649.67

 Zero-point correction=                           0.081201 (Hartree/Particle)
 Thermal correction to Energy=                    0.084575
 Thermal correction to Enthalpy=                  0.085519
 Thermal correction to Gibbs Free Energy=         0.056911
 Sum of electronic and zero-point Energies=           -117.824823
 Sum of electronic and thermal Energies=              -117.821449
 Sum of electronic and thermal Enthalpies=            -117.820505
 Sum of electronic and thermal Free Energies=         -117.849113

                     E (Thermal)             CV                S
                      KCal/Mol        Cal/Mol-Kelvin    Cal/Mol-Kelvin
 Total                   53.071             11.051             60.210
 Electronic               0.000              0.000              0.000
 Translational            0.889              2.981             37.135
 Rotational               0.889              2.981             21.670
 Vibrational             51.294              5.089              1.404

                           ! Non-Optimized Parameters !
 Normal termination of Gaussian 16 at Sat May 27 22:29:10 2023.
