 Gaussian 16, Revision A.03,
 Gaussian 16:  ES64L-G16RevA.03 25-Dec-2016

 -----------------------------
 # opt freq b3lyp/6-31g(2df,p)
 -----------------------------

 -------------------
 Title Card Required
 -------------------
 Symbolic Z-matrix:
 Charge =  0 Multiplicity = 1

 SCF Done:  E(RB3LYP) =  -234.632118245     A.U. after   12 cycles
 SCF Done:  E(RB3LYP) =  -234.637312591     A.U. after   10 cycles
 SCF Done:  E(RB3LYP) =  -234.637916049     A.U. after    9 cycles
 SCF Done:  E(RB3LYP) =  -234.637955001     A.U. after    7 cycles
 SCF Done:  E(RB3LYP) =  -234.637957655     A.U. after    7 cycles
 Optimization completed.
    -- Stationary point found.
 Normal termination of Gaussian 16 at Sun May 28 00:23:17 2023.

 ----------------------------------------------------------------------
 #N Geom=AllCheck Guess=TCheck SCRF=Check GenChk RB3LYP/6-31G(2df,p) Fr
 eq
 ----------------------------------------------------------------------

 Structure from the checkpoint file:  "C1CC2CC1C2.chk"
 -------------------
 Title Card Required
 -------------------
 Charge =  0 Multiplicity = 1

                         Standard orientation:
 ---------------------------------------------------------------------
 Center     Atomic      Atomic             Coordinates (Angstroms)
 Number     Number       Type             X           Y           Z
 ---------------------------------------------------------------------
      1          6           0        1.162669    0.783469   -0.000401
      2          6           0        1.162672   -0.783467    0.000563
      3          6           0       -0.359679   -1.027076    0.001128
      4          6           0       -0.851939    0.001297    1.061305
      5          6           0       -0.359685    1.027075   -0.001136
      6          6           0       -0.851671   -0.001299   -1.061421
      7          1           0        1.650471    1.203733   -0.884894
      8          1           0        1.650985    1.205309    0.883025
      9          1           0        1.650456   -1.203764    0.885034
     10          1           0        1.651003   -1.205268   -0.882889
     11          1           0       -0.699982   -2.063250    0.002264
     12          1           0       -0.370174    0.002348    2.044342
     13          1           0       -1.938776    0.001700    1.173958
     14          1           0       -0.699985    2.063250   -0.002359
     15          1           0       -0.369717   -0.002345   -2.044369
     16          1           0       -1.938488   -0.001710   -1.174340
 ---------------------------------------------------------------------

 SCF Done:  E(RB3LYP) =  -234.637957655     A.U. after    1 cycles

 The electronic state is 1-A.
 Alpha  occ. eigenvalues --  -10.18343 -10.18343 -10.17475 -10.17474 -10.17344
 Alpha  occ. eigenvalues --  -10.17326  -0.87912  -0.71519  -0.67943  -0.65110
 Alpha  occ. eigenvalues --   -0.54441  -0.53268  -0.49534  -0.45531  -0.44837
 Alpha  occ. eigenvalues --   -0.37842  -0.35981  -0.34746  -0.33267  -0.31320
 Alpha  occ. eigenvalues --   -0.30180  -0.29677  -0.29577
 Alpha virt. eigenvalues --    0.09220   0.12780   0.13173   0.13401   0.15205
 Alpha virt. eigenvalues --    0.15683   0.16825   0.18027   0.18721   0.20135
 Alpha virt. eigenvalues --    0.20158   0.21402   0.22903   0.23312   0.25136

 Mulliken charges:
               1
     1  C   -0.201300
     2  C   -0.201300
     3  C   -0.001038
     4  C   -0.212225
     5  C   -0.001038
     6  C   -0.212206
     7  H    0.092553
     8  H    0.092609
     9  H    0.092549
    10  H    0.092613
    11  H    0.054257
    12  H    0.082880
    13  H    0.092261
    14  H    0.054257
    15  H    0.082878
    16  H    0.092248
 Sum of Mulliken charges =   0.00000

 Dipole moment (field-independent basis, Debye):
    X=             -0.0470    Y=             -0.0000    Z=             -0.0000  Tot=              0.0470
 Quadrupole moment (field-independent basis, Debye-Ang):
   XX=            -37.9705   YY=            -38.3933   ZZ=            -38.0186
   XY=              0.0000   XZ=             -0.0000   YZ=              0.0017

  Exact polarizability:  61.749   0.000  57.914  -0.000   0.002  58.749
 Approx polarizability:  85.634   0.000  83.406  -0.001   0.004  86.501

                      1                      2                      3
                      A                      A                      A
 Frequencies --    298.4695               426.4649               499.4436
 Red. masses --      1.6555                 1.8800                 1.7596
 Frc consts  --      0.0869                 0.2015                 0.2586
 IR Inten    --      0.0000                 0.2720                 0.0125

                      4                      5                      6
                      A                      A                      A
 Frequencies --    642.4375               827.5665               829.5812
 Red. masses --      3.6893                 2.7775                 1.1642
 Frc consts  --      0.8971                 1.1208                 0.4721
 IR Inten    --      0.0010                 0.0035                 0.1984

                      7                      8                      9
                      A                      A                      A
 Frequencies --    830.9034               847.9918               854.9068
 Red. masses --      4.5668                 2.2651                 2.0749
 Frc consts  --      1.8577                 0.9597                 0.8935
 IR Inten    --      2.1062                 1.6781                 0.4929

                     10                     11                     12
                      A                      A                      A
 Frequencies --    909.5366               944.3257               969.9924
 Red. masses --      3.1174                 1.7741                 1.1447
 Frc consts  --      1.5195                 0.9321                 0.6346
 IR Inten    --      0.3159                 0.0006                 0.0001

                     13                     14                     15
                      A                      A                      A
 Frequencies --    971.2876               971.6153              1035.3906
 Red. masses --      2.4281                 1.3266                 2.9742
 Frc consts  --      1.3496                 0.7379                 1.8786
 IR Inten    --      0.2275                 0.0335                 0.0473

                     16                     17                     18
                      A                      A                      A
 Frequencies --   1078.6500              1078.8502              1100.0041
 Red. masses --      1.0619                 1.4747                 1.1612
 Frc consts  --      0.7279                 1.0113                 0.8279
 IR Inten    --      0.0000                 0.0005                 1.5059

                     19                     20                     21
                      A                      A                      A
 Frequencies --   1147.0553              1151.3308              1220.1458
 Red. masses --      1.7695                 1.1854                 1.3109
 Frc consts  --      1.3717                 0.9258                 1.1498
 IR Inten    --      0.0000                 1.2218                 0.0000

                     22                     23                     24
                      A                      A                      A
 Frequencies --   1237.4516              1243.0805              1258.7099
 Red. masses --      1.8383                 1.5945                 1.2001
 Frc consts  --      1.6585                 1.4517                 1.1203
 IR Inten    --      0.5247                 3.2953                 0.0000

                     25                     26                     27
                      A                      A                      A
 Frequencies --   1286.0876              1288.5978              1322.1696
 Red. masses --      1.7072                 1.4922                 1.6216
 Frc consts  --      1.6637                 1.4598                 1.6702
 IR Inten    --      0.1365                 0.6540                 3.1124

                     28                     29                     30
                      A                      A                      A
 Frequencies --   1339.9544              1486.4723              1493.2941
 Red. masses --      1.5260                 1.0955                 1.0829
 Frc consts  --      1.6143                 1.4262                 1.4228
 IR Inten    --      0.0483                 0.9175                 0.0257

                     31                     32                     33
                      A                      A                      A
 Frequencies --   1501.2503              1529.9287              3042.8377
 Red. masses --      1.1043                 1.1220                 1.0575
 Frc consts  --      1.4664                 1.5474                 5.7690
 IR Inten    --      1.1518                 0.0210                83.8134

                     34                     35                     36
                      A                      A                      A
 Frequencies --   3045.0040              3047.0920              3055.3661
 Red. masses --      1.0580                 1.0591                 1.0595
 Frc consts  --      5.7801                 5.7940                 5.8276
 IR Inten    --     30.8295                18.7370                41.4440

                     37                     38                     39
                      A                      A                      A
 Frequencies --   3081.1096              3099.6467              3103.8297
 Red. masses --      1.1073                 1.1062                 1.0877
 Frc consts  --      6.1931                 6.2621                 6.1741
 IR Inten    --      0.0007                38.9468               108.1872

                     40                     41                     42
                      A                      A                      A
 Frequencies --   3105.4956              3107.6597              3115.0700
 Red. masses --      1.0982                 1.1082                 1.0990
 Frc consts  --      6.2400                 6.3058                 6.2833
 IR Inten    --      7.6270                29.4708                55.5867

 - Thermochemistry -
 -------------------
 Temperature   298.150 Kelvin.  Pressure   1.00000 Atm.
 Atom     1 has atomic number  6 and mass  12.00000

 Molecular mass:    82.07825 amu.
 Principal axes and moments of inertia in atomic units:
                           1         2         3
     Eigenvalues --   342.34870 407.71018 454.45412
           X            1.00000   0.00000  -0.00000
           Y           -0.00000   1.00000   0.00015
           Z            0.00000  -0.00015   1.00000
 This molecule is an asymmetric top.
 Rotational symmetry number  1.
 Rotational temperatures (Kelvin)      0.25300     0.21244     0.19059
 Rotational constants (GHZ):           5.27165     4.42653     3.97123
 Zero-point vibrational energy     385353.4 (Joules/Mol)
                                   92.10167 (Kcal/Mol)
 Warning -- explicit consideration of   3 degrees of freedom as
           vibrations may cause significant error
 Vibrational temperatures:    429.43   613.59   718.59   924.32  1190.68
          (Kelvin)           1193.58  1195.48  1220.07  1230.02  1308.62
                             1358.67  1395.60  1397.47  1397.94  1489.70
                             1551.94  1552.22  1582.66  1650.36  1656.51
                             1755.52  1780.42  1788.52  1811.00  1850.39
                             1854.00  1902.31  1927.90  2138.70  2148.52
                             2159.96  2201.23  4377.96  4381.08  4384.09
                             4395.99  4433.03  4459.70  4465.72  4468.12
                             4471.23  4481.89

 Zero-point correction=                           0.146773 (Hartree/Particle)
 Thermal correction to Energy=                    0.151509
 Thermal correction to Enthalpy=                  0.152454
 Thermal correction to Gibbs Free Energy=         0.119074
 Sum of electronic and zero-point Energies=           -234.491184
 Sum of electronic and thermal Energies=              -234.486448
 Sum of electronic and thermal Enthalpies=            -234.485504
 Sum of electronic and thermal Free Energies=         -234.518884

                     E (Thermal)             CV                S
                      KCal/Mol        Cal/Mol-Kelvin    Cal/Mol-Kelvin
 Total                   95.074             19.650             70.254
 Electronic               0.000              0.000              0.000
 Translational            0.889              2.981             39.129
 Rotational               0.889              2.981             25.653
 Vibrational             93.296             13.688              5.471
 Vibration     1          0.692              1.677              1.425
 Vibration     2          0.788              1.413              0.870
 Vibration     3          0.855              1.251              0.660

                           ! Non-Optimized Parameters !
 Normal termination of Gaussian 16 at Sun May 28 00:36:52 2023.
