 Gaussian 16, Revision A.03,
 Gaussian 16:  ES64L-G16RevA.03 25-Dec-2016

 -----------------------------
 # opt freq b3lyp/6-31g(2df,p)
 -----------------------------

 -------------------
 Title Card Required
 -------------------
 Symbolic Z-matrix:
 Charge =  0 Multiplicity = 1

 SCF Done:  E(RB3LYP) =  -157.222025812     A.U. after    9 cycles
 SCF Done:  E(RB3LYP) =  -157.225886982     A.U. after    8 cycles
 SCF Done:  E(RB3LYP) =  -157.225988466     A.U. after    7 cycles
 SCF Done:  E(RB3LYP) =  -157.225992761     A.U. after    6 cycles
 SCF Done:  E(RB3LYP) =  -157.225994697     A.U. after    6 cycles
 SCF Done:  E(RB3LYP) =  -157.225994792     A.U. after    5 cycles
 Optimization completed.
    -- Stationary point found.
 Normal termination of Gaussian 16 at Sat May 27 22:12:28 2023.

 ----------------------------------------------------------------------
 #N Geom=AllCheck Guess=TCheck SCRF=Check GenChk RB3LYP/6-31G(2df,p) Fr
 eq
 ----------------------------------------------------------------------

 Structure from the checkpoint file:  "C1CCC1.chk"
 -------------------
 Title Card Required
 -------------------
 Charge =  0 Multiplicity = 1

                         Standard orientation:
 ---------------------------------------------------------------------
 Center     Atomic      Atomic             Coordinates (Angstroms)
 Number     Number       Type             X           Y           Z
 ---------------------------------------------------------------------
      1          6           0       -0.008972    1.084341   -0.124693
      2          6           0        1.084343    0.008972    0.124695
      3          6           0        0.008972   -1.084341   -0.124691
      4          6           0       -1.084343   -0.008973    0.124695
      5          1           0       -0.011762    1.421527   -1.165693
      6          1           0       -0.016259    1.965126    0.522233
      7          1           0        1.421539    0.011766    1.165691
      8          1           0        1.965122    0.016255   -0.522240
      9          1           0        0.016259   -1.965136    0.522221
     10          1           0        0.011762   -1.421511   -1.165696
     11          1           0       -1.421539   -0.011758    1.165691
     12          1           0       -1.965122   -0.016263   -0.522240
 ---------------------------------------------------------------------

 SCF Done:  E(RB3LYP) =  -157.225994792     A.U. after    1 cycles

 The electronic state is 1-A.
 Alpha  occ. eigenvalues --  -10.17480 -10.17462 -10.17462 -10.17443  -0.82986
 Alpha  occ. eigenvalues --   -0.64859  -0.64859  -0.54046  -0.47057  -0.46749
 Alpha  occ. eigenvalues --   -0.37788  -0.37788  -0.34393  -0.30921  -0.29823
 Alpha  occ. eigenvalues --   -0.29823
 Alpha virt. eigenvalues --    0.09556   0.10405   0.13260   0.13260   0.18126
 Alpha virt. eigenvalues --    0.18889   0.18889   0.20672   0.20672   0.23693
 Alpha virt. eigenvalues --    0.23933   0.31997   0.47945   0.48461   0.48869

 Mulliken charges:
               1
     1  C   -0.191980
     2  C   -0.191981
     3  C   -0.191979
     4  C   -0.191981
     5  H    0.099232
     6  H    0.092748
     7  H    0.099232
     8  H    0.092748
     9  H    0.092748
    10  H    0.099232
    11  H    0.099232
    12  H    0.092748
 Sum of Mulliken charges =  -0.00000

 Dipole moment (field-independent basis, Debye):
    X=             -0.0000    Y=              0.0000    Z=             -0.0000  Tot=              0.0000
 Quadrupole moment (field-independent basis, Debye-Ang):
   XX=            -26.8920   YY=            -26.8920   ZZ=            -25.5561
   XY=             -0.0000   XZ=              0.0000   YZ=              0.0000

  Exact polarizability:  42.956  -0.000  42.956  -0.000   0.000  39.575
 Approx polarizability:  56.572  -0.000  56.572  -0.000   0.000  57.107

                      1                      2                      3
                      A                      A                      A
 Frequencies --    185.7915               633.6129               749.2314
 Red. masses --      1.4858                 1.5408                 1.1908
 Frc consts  --      0.0302                 0.3645                 0.3938
 IR Inten    --      0.0000                 2.7824                 0.3662

                      4                      5                      6
                      A                      A                      A
 Frequencies --    749.2329               886.7238               917.7884
 Red. masses --      1.1908                 2.0091                 2.0745
 Frc consts  --      0.3938                 0.9307                 1.0295
 IR Inten    --      0.3662                 0.0303                 1.5528

                      7                      8                      9
                      A                      A                      A
 Frequencies --    917.7909               945.2841               959.7752
 Red. masses --      2.0744                 2.6923                 1.0079
 Frc consts  --      1.0295                 1.4174                 0.5471
 IR Inten    --      1.5528                 0.0000                 0.0000

                     10                     11                     12
                      A                      A                      A
 Frequencies --   1018.3892              1170.5766              1176.5673
 Red. masses --      3.9219                 1.2483                 2.0583
 Frc consts  --      2.3965                 1.0078                 1.6788
 IR Inten    --      0.0000                 0.0000                 0.0000

                     13                     14                     15
                      A                      A                      A
 Frequencies --   1251.0256              1251.0270              1257.6273
 Red. masses --      1.2695                 1.2695                 1.3823
 Frc consts  --      1.1706                 1.1707                 1.2881
 IR Inten    --      0.1667                 0.1667                 0.0000

                     16                     17                     18
                      A                      A                      A
 Frequencies --   1261.1680              1292.3421              1292.3439
 Red. masses --      1.1170                 1.4780                 1.4780
 Frc consts  --      1.0467                 1.4544                 1.4544
 IR Inten    --      0.0000                 0.1065                 0.1064

                     19                     20                     21
                      A                      A                      A
 Frequencies --   1481.0152              1481.0155              1488.8471
 Red. masses --      1.0893                 1.0893                 1.0807
 Frc consts  --      1.4077                 1.4077                 1.4114
 IR Inten    --      0.0381                 0.0381                 2.5521

                     22                     23                     24
                      A                      A                      A
 Frequencies --   1518.3907              3050.5134              3051.0208
 Red. masses --      1.1386                 1.0565                 1.0575
 Frc consts  --      1.5466                 5.7924                 5.7999
 IR Inten    --      0.0000                 9.5446                78.4043

                     25                     26                     27
                      A                      A                      A
 Frequencies --   3051.0236              3057.5970              3088.2359
 Red. masses --      1.0575                 1.0676                 1.1028
 Frc consts  --      5.7999                 5.8807                 6.1967
 IR Inten    --     78.4151                 0.0000                 0.0000

                     28                     29                     30
                      A                      A                      A
 Frequencies --   3101.8334              3101.8336              3119.4766
 Red. masses --      1.1076                 1.1076                 1.1074
 Frc consts  --      6.2790                 6.2790                 6.3495
 IR Inten    --     18.8632                18.8726                97.5365

 - Thermochemistry -
 -------------------
 Temperature   298.150 Kelvin.  Pressure   1.00000 Atm.
 Atom     1 has atomic number  6 and mass  12.00000

 Molecular mass:    56.06260 amu.
 Principal axes and moments of inertia in atomic units:
                           1         2         3
     Eigenvalues --   169.27725 169.27774 286.24845
           X            1.00000   0.00153  -0.00000
           Y           -0.00153   1.00000   0.00000
           Z            0.00000  -0.00000   1.00000
 This molecule is an asymmetric top.
 Rotational symmetry number  1.
 Rotational temperatures (Kelvin)      0.51167     0.51167     0.30258
 Rotational constants (GHZ):          10.66145    10.66142     6.30481
 Zero-point vibrational energy     290136.9 (Joules/Mol)
                                   69.34438 (Kcal/Mol)
 Warning -- explicit consideration of   1 degrees of freedom as
           vibrations may cause significant error
 Vibrational temperatures:    267.31   911.63  1077.98  1077.98  1275.80
          (Kelvin)           1320.49  1320.50  1360.05  1380.90  1465.23
                             1684.20  1692.82  1799.95  1799.95  1809.45
                             1814.54  1859.39  1859.39  2130.85  2130.85
                             2142.12  2184.63  4389.01  4389.74  4389.74
                             4399.20  4443.28  4462.85  4462.85  4488.23

 Zero-point correction=                           0.110507 (Hartree/Particle)
 Thermal correction to Energy=                    0.114669
 Thermal correction to Enthalpy=                  0.115613
 Thermal correction to Gibbs Free Energy=         0.084333
 Sum of electronic and zero-point Energies=           -157.115487
 Sum of electronic and thermal Energies=              -157.111326
 Sum of electronic and thermal Enthalpies=            -157.110381
 Sum of electronic and thermal Free Energies=         -157.141661

                     E (Thermal)             CV                S
                      KCal/Mol        Cal/Mol-Kelvin    Cal/Mol-Kelvin
 Total                   71.956             14.696             65.834
 Electronic               0.000              0.000              0.000
 Translational            0.889              2.981             37.993
 Rotational               0.889              2.981             23.621
 Vibrational             70.179              8.734              4.220
 Vibration     1          0.632              1.859              2.269

 Optimization completed.
    -- Stationary point found.
 Normal termination of Gaussian 16 at Sat May 27 22:17:42 2023.
