 Gaussian 16, Revision A.03,
 Gaussian 16:  ES64L-G16RevA.03 25-Dec-2016

 -----------------------------
 # opt freq b3lyp/6-31g(2df,p)
 -----------------------------

 -------------------
 Title Card Required
 -------------------
 Symbolic Z-matrix:
 Charge =  0 Multiplicity = 1

 SCF Done:  E(RB3LYP) =  -349.795159704     A.U. after   17 cycles
 SCF Done:  E(RB3LYP) =  -349.862809749     A.U. after   14 cycles
 SCF Done:  E(RB3LYP) =  -349.953252221     A.U. after   14 cycles
 SCF Done:  E(RB3LYP) =  -349.995523980     A.U. after   12 cycles
 SCF Done:  E(RB3LYP) =  -350.067644274     A.U. after   12 cycles
 SCF Done:  E(RB3LYP) =  -350.084153330     A.U. after   11 cycles
 SCF Done:  E(RB3LYP) =  -350.087639558     A.U. after   10 cycles
 SCF Done:  E(RB3LYP) =  -350.092559890     A.U. after   10 cycles
 SCF Done:  E(RB3LYP) =  -350.093310060     A.U. after   10 cycles
 SCF Done:  E(RB3LYP) =  -350.093991354     A.U. after   10 cycles
 SCF Done:  E(RB3LYP) =  -350.094161029     A.U. after    9 cycles
 SCF Done:  E(RB3LYP) =  -350.094208583     A.U. after    8 cycles
 SCF Done:  E(RB3LYP) =  -350.094231082     A.U. after    8 cycles
 SCF Done:  E(RB3LYP) =  -350.094239014     A.U. after    7 cycles
 Optimization completed.
    -- Stationary point found.
 Normal termination of Gaussian 16 at Mon May 29 01:37:55 2023.

 ----------------------------------------------------------------------
 #N Geom=AllCheck Guess=TCheck SCRF=Check GenChk RB3LYP/6-31G(2df,p) Fr
 eq
 ----------------------------------------------------------------------

 Structure from the checkpoint file:  "C1CC2C1C1C3CC1C23.chk"
 -------------------
 Title Card Required
 -------------------
 Charge =  0 Multiplicity = 1

                         Standard orientation:
 ---------------------------------------------------------------------
 Center     Atomic      Atomic             Coordinates (Angstroms)
 Number     Number       Type             X           Y           Z
 ---------------------------------------------------------------------
      1          6           0       -2.002020    0.779680    0.412749
      2          6           0       -2.001808   -0.779811    0.413136
      3          6           0       -0.859167   -0.782167   -0.647744
      4          6           0       -0.859840    0.781959   -0.647954
      5          6           0        0.557614    1.041359   -0.151514
      6          6           0        0.924374    0.000659    0.958373
      7          6           0        2.387248    0.000269    0.458124
      8          6           0        1.521632   -0.000615   -0.822034
      9          6           0        0.557651   -1.041501   -0.151047
     10          1           0       -1.745793    1.253569    1.364482
     11          1           0       -2.938311    1.217757    0.058797
     12          1           0       -2.937831   -1.218814    0.059866
     13          1           0       -1.744829   -1.252783    1.365181
     14          1           0       -1.086965   -1.296411   -1.584602
     15          1           0       -1.086017    1.296500   -1.585009
     16          1           0        0.898389    2.072310   -0.029219
     17          1           0        0.578198    0.000913    1.993884
     18          1           0        2.974562   -0.901227    0.656810
     19          1           0        2.975337    0.901207    0.656248
     20          1           0        1.859696    0.000023   -1.860664
     21          1           0        0.899464   -2.072031   -0.028313
 ---------------------------------------------------------------------

 SCF Done:  E(RB3LYP) =  -350.094239014     A.U. after    1 cycles

 The electronic state is 1-A.
 Alpha  occ. eigenvalues --  -10.19117 -10.19038 -10.18414 -10.18410 -10.17864
 Alpha  occ. eigenvalues --  -10.17342 -10.17325 -10.17249 -10.17231  -0.91950
 Alpha  occ. eigenvalues --   -0.82160  -0.69455  -0.69251  -0.62275  -0.61099
 Alpha  occ. eigenvalues --   -0.60592  -0.51764  -0.51694  -0.49107  -0.48535
 Alpha  occ. eigenvalues --   -0.45019  -0.41338  -0.41260  -0.37032  -0.36001
 Alpha  occ. eigenvalues --   -0.33032  -0.31551  -0.31423  -0.30794  -0.29311
 Alpha  occ. eigenvalues --   -0.28761  -0.27754  -0.27272
 Alpha virt. eigenvalues --    0.09480   0.09920   0.11819   0.11824   0.12917
 Alpha virt. eigenvalues --    0.15262   0.15415   0.15869   0.17004   0.17370
 Alpha virt. eigenvalues --    0.18148   0.18641   0.18647   0.18746   0.20040

 Mulliken charges:
               1
     1  C   -0.233495
     2  C   -0.233562
     3  C   -0.033724
     4  C   -0.033766
     5  C   -0.004826
     6  C   -0.059258
     7  C   -0.243568
     8  C   -0.064745
     9  C   -0.004890
    10  H    0.094280
    11  H    0.095306
    12  H    0.095321
    13  H    0.094266
    14  H    0.059569
    15  H    0.059584
    16  H    0.056736
    17  H    0.065481
    18  H    0.085914
    19  H    0.085997
    20  H    0.062551
    21  H    0.056830
 Sum of Mulliken charges =  -0.00000

 Dipole moment (field-independent basis, Debye):
    X=             -0.1118    Y=              0.0002    Z=             -0.1400  Tot=              0.1792
 Quadrupole moment (field-independent basis, Debye-Ang):
   XX=            -55.2671   YY=            -54.6903   ZZ=            -54.5228
   XY=              0.0007   XZ=              0.4532   YZ=              0.0009

  Exact polarizability:  98.403  -0.001  80.244   0.678  -0.001  76.778
 Approx polarizability: 129.371  -0.006 124.294   0.107   0.007 122.554

                      1                      2                      3
                      A                      A                      A
 Frequencies --    139.4497               214.6869               315.6111
 Red. masses --      1.9687                 3.0804                 2.3277
 Frc consts  --      0.0226                 0.0836                 0.1366
 IR Inten    --      0.0245                 0.1250                 0.3098

                      4                      5                      6
                      A                      A                      A
 Frequencies --    432.8960               471.8450               645.6375
 Red. masses --      2.1179                 3.4649                 3.1420
 Frc consts  --      0.2338                 0.4545                 0.7717
 IR Inten    --      0.0741                 0.7719                 0.0542

                      7                      8                      9
                      A                      A                      A
 Frequencies --    655.5389               738.5015               753.6808
 Red. masses --      3.5680                 3.3563                 1.2259
 Frc consts  --      0.9034                 1.0785                 0.4103
 IR Inten    --      1.4025                 0.2193                 2.0903

                     10                     11                     12
                      A                      A                      A
 Frequencies --    789.9970               809.1710               867.3525
 Red. masses --      2.7284                 2.3773                 2.0821
 Frc consts  --      1.0033                 0.9171                 0.9229
 IR Inten    --      0.0643                 0.2970                 0.7984

                     13                     14                     15
                      A                      A                      A
 Frequencies --    880.4936               884.6342               900.3123
 Red. masses --      1.9633                 2.1261                 2.9349
 Frc consts  --      0.8968                 0.9803                 1.4016
 IR Inten    --      0.1120                 1.7324                 0.0188

                     16                     17                     18
                      A                      A                      A
 Frequencies --    914.2801               939.0846               954.5382
 Red. masses --      2.4040                 2.9506                 2.4579
 Frc consts  --      1.1840                 1.5331                 1.3195
 IR Inten    --      0.1523                 0.1743                 1.0029

                     19                     20                     21
                      A                      A                      A
 Frequencies --    962.1546               998.8903              1010.5715
 Red. masses --      2.1977                 1.0614                 1.8392
 Frc consts  --      1.1987                 0.6240                 1.1067
 IR Inten    --      0.2238                 0.0564                 0.0001

                     22                     23                     24
                      A                      A                      A
 Frequencies --   1030.4026              1056.0380              1066.0662
 Red. masses --      1.1676                 1.9469                 1.4603
 Frc consts  --      0.7304                 1.2792                 0.9778
 IR Inten    --      0.0268                 0.1422                 0.4030

                     25                     26                     27
                      A                      A                      A
 Frequencies --   1097.4370              1098.9675              1105.9873
 Red. masses --      1.4055                 1.5705                 2.7364
 Frc consts  --      0.9973                 1.1175                 1.9721
 IR Inten    --      0.9636                 0.0083                 0.8432

                     28                     29                     30
                      A                      A                      A
 Frequencies --   1134.5312              1159.7846              1186.4862
 Red. masses --      1.5731                 2.0432                 1.4414
 Frc consts  --      1.1930                 1.6192                 1.1955
 IR Inten    --      0.1769                 4.0229                 1.6008

                     31                     32                     33
                      A                      A                      A
 Frequencies --   1190.9337              1219.3994              1237.1795
 Red. masses --      1.4238                 1.3183                 1.5048
 Frc consts  --      1.1898                 1.1550                 1.3570
 IR Inten    --      0.0037                 0.2277                 3.2926

                     34                     35                     36
                      A                      A                      A
 Frequencies --   1241.1373              1249.3791              1251.8707
 Red. masses --      1.5957                 1.3602                 1.5555
 Frc consts  --      1.4483                 1.2510                 1.4363
 IR Inten    --     11.4042                 0.5375                 1.0816

                     37                     38                     39
                      A                      A                      A
 Frequencies --   1267.8447              1273.9879              1284.1351
 Red. masses --      1.7465                 1.5169                 1.5403
 Frc consts  --      1.6540                 1.4506                 1.4965
 IR Inten    --      1.7544                 0.9250                 0.1037

                     40                     41                     42
                      A                      A                      A
 Frequencies --   1326.4128              1328.5717              1360.5812
 Red. masses --      1.5137                 1.8691                 1.6946
 Frc consts  --      1.5691                 1.9438                 1.8482
 IR Inten    --      4.0097                 1.5379                 6.8773

                     43                     44                     45
                      A                      A                      A
 Frequencies --   1476.0471              1494.1579              1517.9885
 Red. masses --      1.0811                 1.1141                 1.1308
 Frc consts  --      1.3877                 1.4654                 1.5353
 IR Inten    --      0.6283                 3.1459                 0.0261

                     46                     47                     48
                      A                      A                      A
 Frequencies --   3041.6713              3051.3794              3057.4619
 Red. masses --      1.0540                 1.0578                 1.0609
 Frc consts  --      5.7452                 5.8031                 5.8433
 IR Inten    --     64.7301                34.5915                46.1909

                     49                     50                     51
                      A                      A                      A
 Frequencies --   3065.6499              3075.2624              3081.0918
 Red. masses --      1.0872                 1.0851                 1.0891
 Frc consts  --      6.0201                 6.0460                 6.0914
 IR Inten    --      8.7512                31.5780                 7.4650

                     52                     53                     54
                      A                      A                      A
 Frequencies --   3083.5920              3085.2139              3095.0675
 Red. masses --      1.0888                 1.0876                 1.1061
 Frc consts  --      6.1000                 6.0994                 6.2430
 IR Inten    --    120.4157                88.2415                 5.8634

                     55                     56                     57
                      A                      A                      A
 Frequencies --   3099.3782              3100.7143              3115.0214
 Red. masses --      1.0955                 1.1097                 1.1061
 Frc consts  --      6.2003                 6.2861                 6.3238
 IR Inten    --      9.2599                52.5980                66.6558

 - Thermochemistry -
 -------------------
 Temperature   298.150 Kelvin.  Pressure   1.00000 Atm.
 Atom     1 has atomic number  6 and mass  12.00000

 Molecular mass:   120.09390 amu.
 Principal axes and moments of inertia in atomic units:
                           1         2         3
     Eigenvalues --   459.535681180.385271257.49472
           X            1.00000   0.00000  -0.00059
           Y           -0.00000   1.00000  -0.00011
           Z            0.00059   0.00011   1.00000
 This molecule is an asymmetric top.
 Rotational symmetry number  1.
 Warning -- assumption of classical behavior for rotation
           may cause significant error
 Rotational temperatures (Kelvin)      0.18848     0.07338     0.06888
 Rotational constants (GHZ):           3.92731     1.52894     1.43519
 Zero-point vibrational energy     489788.0 (Joules/Mol)
                                  117.06214 (Kcal/Mol)
 Warning -- explicit consideration of   5 degrees of freedom as
           vibrations may cause significant error
 Vibrational temperatures:    200.64   308.89   454.09   622.84   678.88
          (Kelvin)            928.93   943.17  1062.54  1084.38  1136.63
                             1164.22  1247.93  1266.83  1272.79  1295.35
                             1315.45  1351.13  1373.37  1384.33  1437.18
                             1453.99  1482.52  1519.40  1533.83  1578.97
                             1581.17  1591.27  1632.34  1668.67  1707.09
                             1713.49  1754.44  1780.03  1785.72  1797.58
                             1801.16  1824.15  1832.98  1847.58  1908.41
                             1911.52  1957.57  2123.70  2149.76  2184.05
                             4376.29  4390.25  4399.01  4410.79  4424.62
                             4433.00  4436.60  4438.93  4453.11  4459.31
                             4461.24  4481.82

 Zero-point correction=                           0.186550 (Hartree/Particle)
 Thermal correction to Energy=                    0.193006
 Thermal correction to Enthalpy=                  0.193950
 Thermal correction to Gibbs Free Energy=         0.155984
 Sum of electronic and zero-point Energies=           -349.907689
 Sum of electronic and thermal Energies=              -349.901233
 Sum of electronic and thermal Enthalpies=            -349.900289
 Sum of electronic and thermal Free Energies=         -349.938255

                     E (Thermal)             CV                S
                      KCal/Mol        Cal/Mol-Kelvin    Cal/Mol-Kelvin
 Total                  121.113             28.039             79.906
 Electronic               0.000              0.000              0.000
 Translational            0.889              2.981             40.264
 Rotational               0.889              2.981             28.013
 Vibrational            119.336             22.077             11.629
 Vibration     1          0.615              1.914              2.811
 Vibration     2          0.645              1.819              2.003
 Vibration     3          0.703              1.644              1.333
 Vibration     4          0.794              1.399              0.849
 Vibration     5          0.829              1.313              0.732

                           ! Non-Optimized Parameters !
 Normal termination of Gaussian 16 at Mon May 29 02:12:43 2023.
