 Gaussian 16, Revision A.03,
 Gaussian 16:  ES64L-G16RevA.03 25-Dec-2016

 -----------------------------
 # opt freq b3lyp/6-31g(2df,p)
 -----------------------------

 -------------------
 Title Card Required
 -------------------
 Symbolic Z-matrix:
 Charge =  0 Multiplicity = 1

 SCF Done:  E(RB3LYP) =  -352.632913024     A.U. after   12 cycles
 SCF Done:  E(RB3LYP) =  -352.635937633     A.U. after   10 cycles
 SCF Done:  E(RB3LYP) =  -352.636342430     A.U. after    9 cycles
 SCF Done:  E(RB3LYP) =  -352.636390052     A.U. after    8 cycles
 SCF Done:  E(RB3LYP) =  -352.636390840     A.U. after    6 cycles
 Optimization completed.
    -- Stationary point found.
 Normal termination of Gaussian 16 at Sun May 28 22:56:49 2023.

 ----------------------------------------------------------------------
 #N Geom=AllCheck Guess=TCheck SCRF=Check GenChk RB3LYP/6-31G(2df,p) Fr
 eq
 ----------------------------------------------------------------------

 Structure from the checkpoint file:  "C1CCC2CCCC2C1.chk"
 -------------------
 Title Card Required
 -------------------
 Charge =  0 Multiplicity = 1

                         Standard orientation:
 ---------------------------------------------------------------------
 Center     Atomic      Atomic             Coordinates (Angstroms)
 Number     Number       Type             X           Y           Z
 ---------------------------------------------------------------------
      1          6           0        2.235266    0.723816   -0.261967
      2          6           0        2.235267   -0.724004    0.261275
      3          6           0        0.963466   -1.494771   -0.141699
      4          6           0       -0.275716   -0.712598    0.289213
      5          6           0       -1.661309   -1.240775   -0.109240
      6          6           0       -2.598572    0.000378   -0.001768
      7          6           0       -1.660954    1.240533    0.111197
      8          6           0       -0.275757    0.712772   -0.288510
      9          6           0        0.963791    1.494794    0.141614
     10          1           0        2.307027    0.708591   -1.358494
     11          1           0        3.127182    1.249677    0.097387
     12          1           0        2.307594   -0.708801    1.357768
     13          1           0        3.126905   -1.250026   -0.098536
     14          1           0        0.973377   -2.498305    0.300684
     15          1           0        0.944244   -1.633480   -1.232406
     16          1           0       -0.249476   -0.615910    1.387385
     17          1           0       -1.995654   -2.076356    0.512817
     18          1           0       -1.630354   -1.606911   -1.142905
     19          1           0       -3.256840   -0.071861    0.868664
     20          1           0       -3.250562    0.073340   -0.876880
     21          1           0       -1.629995    1.602182    1.146478
     22          1           0       -1.994663    2.078904   -0.507436
     23          1           0       -0.250494    0.616234   -1.386735
     24          1           0        0.945202    1.633533    1.232321
     25          1           0        0.973609    2.498320   -0.300807
 ---------------------------------------------------------------------

 SCF Done:  E(RB3LYP) =  -352.636390840     A.U. after    1 cycles

 The electronic state is 1-A.
 Alpha  occ. eigenvalues --  -10.17286 -10.17266 -10.17163 -10.17118 -10.17101
 Alpha  occ. eigenvalues --  -10.17081 -10.17077 -10.16926 -10.16925  -0.84407
 Alpha  occ. eigenvalues --   -0.78437  -0.74261  -0.70065  -0.67656  -0.60346
 Alpha  occ. eigenvalues --   -0.57086  -0.55523  -0.54730  -0.46148  -0.45684
 Alpha  occ. eigenvalues --   -0.44514  -0.42434  -0.41026  -0.40809  -0.38697
 Alpha  occ. eigenvalues --   -0.36762  -0.34881  -0.33871  -0.32701  -0.32097
 Alpha  occ. eigenvalues --   -0.31470  -0.30626  -0.30505  -0.29207  -0.28067
 Alpha virt. eigenvalues --    0.08809   0.09543   0.10200   0.12003   0.13142
 Alpha virt. eigenvalues --    0.14260   0.15464   0.16788   0.17435   0.17755
 Alpha virt. eigenvalues --    0.17852   0.19008   0.19213   0.20038   0.20595

 Mulliken charges:
               1
     1  C   -0.189199
     2  C   -0.189203
     3  C   -0.228210
     4  C    0.080468
     5  C   -0.244650
     6  C   -0.211713
     7  C   -0.244466
     8  C    0.080299
     9  C   -0.228187
    10  H    0.091009
    11  H    0.087441
    12  H    0.091011
    13  H    0.087437
    14  H    0.085746
    15  H    0.087054
    16  H    0.058894
    17  H    0.089120
    18  H    0.091490
    19  H    0.096724
    20  H    0.096773
    21  H    0.091457
    22  H    0.089016
    23  H    0.058886
    24  H    0.087057
    25  H    0.085746
 Sum of Mulliken charges =  -0.00000

 Dipole moment (field-independent basis, Debye):
    X=              0.0721    Y=              0.0001    Z=             -0.0000  Tot=              0.0721
 Quadrupole moment (field-independent basis, Debye-Ang):
   XX=            -58.7315   YY=            -58.6158   ZZ=            -57.0265
   XY=              0.0003   XZ=             -0.0007   YZ=             -0.3041

  Exact polarizability: 103.977  -0.001  92.194   0.000  -0.091  79.631
 Approx polarizability: 129.228  -0.000 127.634   0.001   0.026 130.842

                      1                      2                      3
                      A                      A                      A
 Frequencies --     77.4990               156.6305               186.0898
 Red. masses --      1.7239                 2.2122                 2.1255
 Frc consts  --      0.0061                 0.0320                 0.0434
 IR Inten    --      0.0021                 0.0000                 0.0145

                      4                      5                      6
                      A                      A                      A
 Frequencies --    316.3141               317.5418               331.8373
 Red. masses --      2.6270                 1.6539                 2.2270
 Frc consts  --      0.1549                 0.0983                 0.1445
 IR Inten    --      0.0514                 0.0249                 0.0735

                      7                      8                      9
                      A                      A                      A
 Frequencies --    421.8622               467.9283               490.4459
 Red. masses --      3.8395                 2.7483                 2.2686
 Frc consts  --      0.4026                 0.3546                 0.3215
 IR Inten    --      0.0028                 0.3249                 0.0011

                     10                     11                     12
                      A                      A                      A
 Frequencies --    573.3001               622.0425               767.2322
 Red. masses --      1.8161                 2.7653                 1.1826
 Frc consts  --      0.3517                 0.6304                 0.4102
 IR Inten    --      0.0140                 0.4249                 0.9453

                     13                     14                     15
                      A                      A                      A
 Frequencies --    778.2425               834.4304               845.6563
 Red. masses --      2.4091                 1.7315                 2.1346
 Frc consts  --      0.8597                 0.7103                 0.8994
 IR Inten    --      0.0197                 0.0209                 1.3881

                     16                     17                     18
                      A                      A                      A
 Frequencies --    870.6435               902.7751               917.6560
 Red. masses --      1.7979                 2.7003                 1.5169
 Frc consts  --      0.8030                 1.2966                 0.7526
 IR Inten    --      0.9261                 0.6142                 0.1227

                     19                     20                     21
                      A                      A                      A
 Frequencies --    921.0499               937.7379               985.9731
 Red. masses --      1.6603                 2.5604                 1.3522
 Frc consts  --      0.8299                 1.3266                 0.7745
 IR Inten    --      0.6415                 0.3585                 0.9155

                     22                     23                     24
                      A                      A                      A
 Frequencies --   1006.7163              1038.8495              1061.9059
 Red. masses --      2.8389                 1.5572                 1.3618
 Frc consts  --      1.6952                 0.9901                 0.9048
 IR Inten    --      0.9696                 0.1559                 0.1033

                     25                     26                     27
                      A                      A                      A
 Frequencies --   1067.2098              1087.7274              1110.7701
 Red. masses --      1.6395                 1.9259                 2.1987
 Frc consts  --      1.1002                 1.3425                 1.5983
 IR Inten    --      0.1879                 0.0784                 0.5263

                     28                     29                     30
                      A                      A                      A
 Frequencies --   1113.2250              1142.5774              1201.9805
 Red. masses --      2.5461                 1.6633                 1.5614
 Frc consts  --      1.8590                 1.2794                 1.3291
 IR Inten    --      0.0595                 0.1692                 0.5176

                     31                     32                     33
                      A                      A                      A
 Frequencies --   1209.6632              1218.7525              1258.3101
 Red. masses --      1.4398                 1.5928                 1.3398
 Frc consts  --      1.2413                 1.3940                 1.2499
 IR Inten    --      0.1355                 0.2537                 0.1775

                     34                     35                     36
                      A                      A                      A
 Frequencies --   1267.9299              1289.0624              1290.6629
 Red. masses --      1.1788                 1.2593                 1.3914
 Frc consts  --      1.1165                 1.2329                 1.3656
 IR Inten    --      0.8233                 1.3576                 1.8356

                     37                     38                     39
                      A                      A                      A
 Frequencies --   1319.7882              1321.5444              1325.7640
 Red. masses --      1.2756                 1.3263                 1.3522
 Frc consts  --      1.3091                 1.3648                 1.4003
 IR Inten    --      1.1710                 0.6807                 0.9399

                     40                     41                     42
                      A                      A                      A
 Frequencies --   1344.0116              1347.8277              1370.9617
 Red. masses --      1.2728                 1.2789                 1.3369
 Frc consts  --      1.3546                 1.3688                 1.4805
 IR Inten    --      1.6050                 3.1167                 0.4538

                     43                     44                     45
                      A                      A                      A
 Frequencies --   1371.7821              1384.3472              1397.6010
 Red. masses --      1.4218                 1.4716                 1.5360
 Frc consts  --      1.5764                 1.6616                 1.7677
 IR Inten    --      1.4601                 1.4348                 0.0118

                     46                     47                     48
                      A                      A                      A
 Frequencies --   1397.9901              1483.1039              1486.4701
 Red. masses --      1.6506                 1.0894                 1.0916
 Frc consts  --      1.9006                 1.4118                 1.4211
 IR Inten    --      0.1816                 0.4456                 2.6873

                     49                     50                     51
                      A                      A                      A
 Frequencies --   1488.8924              1489.7239              1496.8777
 Red. masses --      1.0919                 1.0826                 1.0861
 Frc consts  --      1.4262                 1.4156                 1.4338
 IR Inten    --      3.1603                 0.1826                 4.9175

                     52                     53                     54
                      A                      A                      A
 Frequencies --   1501.6319              1514.9213              2958.1606
 Red. masses --      1.0991                 1.1029                 1.0783
 Frc consts  --      1.4602                 1.4913                 5.5595
 IR Inten    --      0.4179                 0.2639                 0.0969

                     55                     56                     57
                      A                      A                      A
 Frequencies --   2970.2151              3004.3173              3004.4020
 Red. masses --      1.0826                 1.0653                 1.0657
 Frc consts  --      5.6270                 5.6652                 5.6677
 IR Inten    --     22.8763                38.8807                 2.2677

                     58                     59                     60
                      A                      A                      A
 Frequencies --   3008.1883              3012.8390              3028.2713
 Red. masses --      1.0662                 1.0607                 1.0642
 Frc consts  --      5.6847                 5.6726                 5.7500
 IR Inten    --     16.1883                33.3995                 3.3921

                     61                     62                     63
                      A                      A                      A
 Frequencies --   3028.8532              3050.6701              3051.4349
 Red. masses --      1.0653                 1.0961                 1.0988
 Frc consts  --      5.7582                 6.0101                 6.0280
 IR Inten    --     84.6645                77.0878                 3.6602

                     64                     65                     66
                      A                      A                      A
 Frequencies --   3054.7847              3058.5539              3063.8448
 Red. masses --      1.0637                 1.0926                 1.1036
 Frc consts  --      5.8486                 6.0218                 6.1039
 IR Inten    --     53.3899                50.5482                72.3869

                     67                     68                     69
                      A                      A                      A
 Frequencies --   3070.9929              3080.6366              3099.2898
 Red. masses --      1.0989                 1.0975                 1.1050
 Frc consts  --      6.1062                 6.1369                 6.2536
 IR Inten    --     34.8106                16.3096                74.7471

 - Thermochemistry -
 -------------------
 Temperature   298.150 Kelvin.  Pressure   1.00000 Atm.
 Atom     1 has atomic number  6 and mass  12.00000

 Molecular mass:   124.12520 amu.
 Principal axes and moments of inertia in atomic units:
                           1         2         3
     Eigenvalues --   614.572841357.894611829.79620
           X            1.00000   0.00000   0.00001
           Y           -0.00000   0.99999   0.00421
           Z           -0.00001  -0.00421   0.99999
 This molecule is an asymmetric top.
 Rotational symmetry number  1.
 Warning -- assumption of classical behavior for rotation
           may cause significant error
 Rotational temperatures (Kelvin)      0.14093     0.06379     0.04734
 Rotational constants (GHZ):           2.93658     1.32907     0.98631
 Zero-point vibrational energy     614144.4 (Joules/Mol)
                                  146.78403 (Kcal/Mol)
 Warning -- explicit consideration of  10 degrees of freedom as
           vibrations may cause significant error
 Vibrational temperatures:    111.50   225.36   267.74   455.11   456.87
          (Kelvin)            477.44   606.97   673.24   705.64   824.85
                              894.98  1103.88  1119.72  1200.56  1216.71
                             1252.66  1298.89  1320.30  1325.19  1349.20
                             1418.60  1448.44  1494.67  1527.85  1535.48
                             1565.00  1598.15  1601.68  1643.91  1729.38
                             1740.44  1753.51  1810.43  1824.27  1854.67
                             1856.98  1898.88  1901.41  1907.48  1933.73
                             1939.22  1972.51  1973.69  1991.77  2010.84
                             2011.40  2133.86  2138.70  2142.18  2143.38
                             2153.67  2160.51  2179.63  4256.13  4273.48
                             4322.54  4322.66  4328.11  4334.80  4357.01
                             4357.84  4389.23  4390.33  4395.15  4400.58
                             4408.19  4418.47  4432.35  4459.19

 Zero-point correction=                           0.233915 (Hartree/Particle)
 Thermal correction to Energy=                    0.242064
 Thermal correction to Enthalpy=                  0.243008
 Thermal correction to Gibbs Free Energy=         0.201296
 Sum of electronic and zero-point Energies=           -352.402476
 Sum of electronic and thermal Energies=              -352.394327
 Sum of electronic and thermal Enthalpies=            -352.393383
 Sum of electronic and thermal Free Energies=         -352.435095

                     E (Thermal)             CV                S
                      KCal/Mol        Cal/Mol-Kelvin    Cal/Mol-Kelvin
 Total                  151.897             33.465             87.792
 Electronic               0.000              0.000              0.000
 Translational            0.889              2.981             40.362
 Rotational               0.889              2.981             28.814
 Vibrational            150.120             27.503             18.615
 Vibration     1          0.599              1.964              3.953
 Vibration     2          0.620              1.895              2.590
 Vibration     3          0.632              1.859              2.266
 Vibration     4          0.703              1.642              1.329
 Vibration     5          0.704              1.640              1.323
 Vibration     6          0.714              1.612              1.251
 Vibration     7          0.784              1.423              0.886
 Vibration     8          0.825              1.321              0.743
 Vibration     9          0.846              1.271              0.682
 Vibration    10          0.930              1.089              0.498

                           ! Non-Optimized Parameters !
 Normal termination of Gaussian 16 at Sun May 28 23:40:18 2023.
