 Gaussian 16, Revision A.03,
 Gaussian 16:  ES64L-G16RevA.03 25-Dec-2016

 -----------------------------
 # opt freq b3lyp/6-31g(2df,p)
 -----------------------------

 -------------------
 Title Card Required
 -------------------
 Symbolic Z-matrix:
 Charge =  0 Multiplicity = 1

 SCF Done:  E(RB3LYP) =  -196.571329934     A.U. after   11 cycles
 SCF Done:  E(RB3LYP) =  -196.573101259     A.U. after    9 cycles
 SCF Done:  E(RB3LYP) =  -196.573132447     A.U. after    7 cycles
 SCF Done:  E(RB3LYP) =  -196.573134028     A.U. after    6 cycles
 SCF Done:  E(RB3LYP) =  -196.573135160     A.U. after    6 cycles
 Optimization completed.
    -- Stationary point found.
 Normal termination of Gaussian 16 at Sat May 27 22:31:38 2023.

 ----------------------------------------------------------------------
 #N Geom=AllCheck Guess=TCheck SCRF=Check GenChk RB3LYP/6-31G(2df,p) Fr
 eq
 ----------------------------------------------------------------------

 Structure from the checkpoint file:  "C1CCCC1.chk"
 -------------------
 Title Card Required
 -------------------
 Charge =  0 Multiplicity = 1

                         Standard orientation:
 ---------------------------------------------------------------------
 Center     Atomic      Atomic             Coordinates (Angstroms)
 Number     Number       Type             X           Y           Z
 ---------------------------------------------------------------------
      1          6           0       -0.838607    0.937282    0.259350
      2          6           0       -1.171482   -0.479875   -0.230661
      3          6           0        0.096198   -1.292029    0.109051
      4          6           0        1.276477   -0.277940    0.031554
      5          6           0        0.627941    1.117823   -0.169399
      6          1           0       -0.920436    0.981045    1.353178
      7          1           0       -1.502908    1.705496   -0.147665
      8          1           0       -1.330045   -0.462924   -1.316334
      9          1           0       -2.076865   -0.895681    0.221212
     10          1           0        0.233590   -2.146758   -0.559060
     11          1           0        0.015450   -1.696974    1.123516
     12          1           0        1.964904   -0.515985   -0.784213
     13          1           0        1.866448   -0.305476    0.952603
     14          1           0        0.663731    1.398845   -1.228503
     15          1           0        1.142977    1.906845    0.385900
 ---------------------------------------------------------------------

 SCF Done:  E(RB3LYP) =  -196.573135160     A.U. after    1 cycles

 The electronic state is 1-A.
 Alpha  occ. eigenvalues --  -10.17131 -10.17119 -10.17118 -10.17097 -10.17093
 Alpha  occ. eigenvalues --   -0.82163  -0.69816  -0.69777  -0.56150  -0.55426
 Alpha  occ. eigenvalues --   -0.47108  -0.46784  -0.40603  -0.40480  -0.33021
 Alpha  occ. eigenvalues --   -0.32969  -0.32609  -0.32283  -0.31660  -0.30785
 Alpha virt. eigenvalues --    0.08436   0.10160   0.14469   0.14499   0.17082
 Alpha virt. eigenvalues --    0.17776   0.17847   0.18472   0.18864   0.19061
 Alpha virt. eigenvalues --    0.21459   0.24425   0.25591   0.29114   0.30643

 Mulliken charges:
               1
     1  C   -0.185262
     2  C   -0.184548
     3  C   -0.187506
     4  C   -0.188301
     5  C   -0.185658
     6  H    0.092987
     7  H    0.089407
     8  H    0.093684
     9  H    0.089350
    10  H    0.092582
    11  H    0.096154
    12  H    0.095215
    13  H    0.096316
    14  H    0.095118
    15  H    0.090461
 Sum of Mulliken charges =  -0.00000

 Dipole moment (field-independent basis, Debye):
    X=             -0.0005    Y=              0.0001    Z=              0.0005  Tot=              0.0008
 Quadrupole moment (field-independent basis, Debye-Ang):
   XX=            -33.4451   YY=            -33.4400   ZZ=            -32.2882
   XY=              0.0019   XZ=             -0.0032   YZ=              0.0136

  Exact polarizability:  53.863   0.042  53.894   0.009  -0.041  48.236
 Approx polarizability:  70.885   0.057  70.935   0.019  -0.087  72.047

                      1                      2                      3
                      A                      A                      A
 Frequencies --      6.7431               260.9327               547.4400
 Red. masses --      1.5593                 1.5934                 1.6812
 Frc consts  --      0.0000                 0.0639                 0.2968
 IR Inten    --      0.0001                 0.0012                 1.2986

                      4                      5                      6
                      A                      A                      A
 Frequencies --    617.2428               766.8548               820.6883
 Red. masses --      2.4438                 1.1709                 1.6447
 Frc consts  --      0.5486                 0.4057                 0.6527
 IR Inten    --      0.1245                 0.6249                 0.1221

                      7                      8                      9
                      A                      A                      A
 Frequencies --    868.6669               886.5867               903.4153
 Red. masses --      2.0773                 3.4077                 2.1351
 Frc consts  --      0.9236                 1.5782                 1.0267
 IR Inten    --      0.4130                 0.3867                 1.2184

                     10                     11                     12
                      A                      A                      A
 Frequencies --    911.2077               969.2906              1000.1842
 Red. masses --      2.4464                 1.2358                 1.2385
 Frc consts  --      1.1968                 0.6841                 0.7300
 IR Inten    --      1.1353                 0.6730                 0.2699

                     13                     14                     15
                      A                      A                      A
 Frequencies --   1039.5759              1053.4844              1177.4468
 Red. masses --      1.7432                 2.2993                 1.4718
 Frc consts  --      1.1100                 1.5035                 1.2022
 IR Inten    --      0.0017                 0.0198                 0.0215

                     16                     17                     18
                      A                      A                      A
 Frequencies --   1207.8895              1223.5985              1239.1123
 Red. masses --      1.4683                 1.3756                 1.4897
 Frc consts  --      1.2622                 1.2135                 1.3476
 IR Inten    --      0.2263                 0.3391                 0.3134

                     19                     20                     21
                      A                      A                      A
 Frequencies --   1283.7378              1308.5487              1323.1292
 Red. masses --      1.1233                 1.3432                 1.1821
 Frc consts  --      1.0907                 1.3551                 1.2193
 IR Inten    --      0.7081                 0.0193                 0.4098

                     22                     23                     24
                      A                      A                      A
 Frequencies --   1342.5137              1351.9469              1353.9780
 Red. masses --      1.2127                 1.4904                 1.4835
 Frc consts  --      1.2878                 1.6050                 1.6023
 IR Inten    --      0.0257                 1.0154                 1.0206

                     25                     26                     27
                      A                      A                      A
 Frequencies --   1486.2351              1491.5170              1495.8352
 Red. masses --      1.0784                 1.0884                 1.0901
 Frc consts  --      1.4035                 1.4265                 1.4370
 IR Inten    --      0.0785                 2.3240                 0.8281

                     28                     29                     30
                      A                      A                      A
 Frequencies --   1497.1680              1521.7185              3022.2603
 Red. masses --      1.0877                 1.1058                 1.0700
 Frc consts  --      1.4365                 1.5086                 5.7585
 IR Inten    --      1.7527                 0.0318                19.7684

                     31                     32                     33
                      A                      A                      A
 Frequencies --   3028.1149              3034.7558              3040.0157
 Red. masses --      1.0649                 1.0632                 1.0636
 Frc consts  --      5.7534                 5.7689                 5.7915
 IR Inten    --     33.8593                28.1918                21.8707

                     34                     35                     36
                      A                      A                      A
 Frequencies --   3054.4374              3072.6343              3082.2976
 Red. masses --      1.0642                 1.0962                 1.0906
 Frc consts  --      5.8498                 6.0978                 6.1044
 IR Inten    --     52.3913                36.0352                15.0432

                     37                     38                     39
                      A                      A                      A
 Frequencies --   3086.4445              3087.9907              3103.3787
 Red. masses --      1.1025                 1.1021                 1.1055
 Frc consts  --      6.1877                 6.1916                 6.2728
 IR Inten    --     26.3001                19.3128                99.4138

 - Thermochemistry -
 -------------------
 Temperature   298.150 Kelvin.  Pressure   1.00000 Atm.
 Atom     1 has atomic number  6 and mass  12.00000

 Molecular mass:    70.07825 amu.
 Principal axes and moments of inertia in atomic units:
                           1         2         3
     Eigenvalues --   279.00752 279.19246 483.92105
           X            0.99335   0.11513   0.00030
           Y           -0.11512   0.99335  -0.00153
           Z           -0.00047   0.00149   1.00000
 This molecule is an asymmetric top.
 Rotational symmetry number  1.
 Rotational temperatures (Kelvin)      0.31044     0.31023     0.17898
 Rotational constants (GHZ):           6.46843     6.46415     3.72941
 Zero-point vibrational energy     368264.5 (Joules/Mol)
                                   88.01733 (Kcal/Mol)
 Warning -- explicit consideration of   4 degrees of freedom as
           vibrations may cause significant error
 Vibrational temperatures:      9.70   375.42   787.64   888.07  1103.33
          (Kelvin)           1180.79  1249.82  1275.60  1299.81  1311.02
                             1394.59  1439.04  1495.72  1515.73  1694.08
                             1737.88  1760.49  1782.81  1847.01  1882.71
                             1903.69  1931.58  1945.15  1948.07  2138.36
                             2145.96  2152.17  2154.09  2189.41  4348.36
                             4356.78  4366.34  4373.90  4394.65  4420.84
                             4434.74  4440.71  4442.93  4465.07

 Zero-point correction=                           0.140265 (Hartree/Particle)
 Thermal correction to Energy=                    0.145512
 Thermal correction to Enthalpy=                  0.146456
 Thermal correction to Gibbs Free Energy=         0.109901
 Sum of electronic and zero-point Energies=           -196.432871
 Sum of electronic and thermal Energies=              -196.427623
 Sum of electronic and thermal Enthalpies=            -196.426679
 Sum of electronic and thermal Free Energies=         -196.463234

                     E (Thermal)             CV                S
                      KCal/Mol        Cal/Mol-Kelvin    Cal/Mol-Kelvin
 Total                   91.310             18.631             76.937
 Electronic               0.000              0.000              0.000
 Translational            0.889              2.981             38.658
 Rotational               0.889              2.981             25.136
 Vibrational             89.533             12.669             13.143
 Vibration     1          0.593              1.987              8.794
 Vibration     2          0.669              1.744              1.656
 Vibration     3          0.903              1.145              0.550
 Vibration     4          0.977              0.995              0.421

                           ! Non-Optimized Parameters !
 Normal termination of Gaussian 16 at Sat May 27 22:41:53 2023.
