 Gaussian 16, Revision A.03,
 Gaussian 16:  ES64L-G16RevA.03 25-Dec-2016

 -----------------------------
 # opt freq b3lyp/6-31g(2df,p)
 -----------------------------

 -------------------
 Title Card Required
 -------------------
 Symbolic Z-matrix:
 Charge =  0 Multiplicity = 1

 SCF Done:  E(RB3LYP) =  -313.308685838     A.U. after   11 cycles
 SCF Done:  E(RB3LYP) =  -313.311818229     A.U. after   10 cycles
 SCF Done:  E(RB3LYP) =  -313.312088780     A.U. after    9 cycles
 SCF Done:  E(RB3LYP) =  -313.312168946     A.U. after    9 cycles
 SCF Done:  E(RB3LYP) =  -313.312180760     A.U. after    7 cycles
 SCF Done:  E(RB3LYP) =  -313.312201550     A.U. after    9 cycles
 SCF Done:  E(RB3LYP) =  -313.312210606     A.U. after    8 cycles
 SCF Done:  E(RB3LYP) =  -313.312214407     A.U. after    8 cycles
 SCF Done:  E(RB3LYP) =  -313.312214465     A.U. after    6 cycles
 SCF Done:  E(RB3LYP) =  -313.312214462     A.U. after    6 cycles
 Optimization completed.
    -- Stationary point found.
 Normal termination of Gaussian 16 at Sun May 28 17:18:29 2023.

 ----------------------------------------------------------------------
 #N Geom=AllCheck Guess=TCheck SCRF=Check GenChk RB3LYP/6-31G(2df,p) Fr
 eq
 ----------------------------------------------------------------------

 Structure from the checkpoint file:  "C1CC2CCCC2C1.chk"
 -------------------
 Title Card Required
 -------------------
 Charge =  0 Multiplicity = 1

                         Standard orientation:
 ---------------------------------------------------------------------
 Center     Atomic      Atomic             Coordinates (Angstroms)
 Number     Number       Type             X           Y           Z
 ---------------------------------------------------------------------
      1          6           0        1.705782    0.076121   -0.807192
      2          6           0        1.141733    1.300016   -0.060840
      3          6           0       -0.063206    0.783869    0.779450
      4          6           0       -1.450016    1.081339    0.169863
      5          6           0       -1.705746   -0.076107   -0.807224
      6          6           0       -1.141751   -1.300007   -0.060848
      7          6           0        0.063195   -0.783883    0.779439
      8          6           0        1.450007   -1.081350    0.169854
      9          1           0        2.761753    0.188951   -1.071197
     10          1           0        1.159734   -0.090957   -1.742961
     11          1           0        0.858347    2.114165   -0.735562
     12          1           0        1.910256    1.700839    0.609830
     13          1           0       -0.002879    1.193220    1.791346
     14          1           0       -1.502517    2.068617   -0.300207
     15          1           0       -2.209921    1.062532    0.961313
     16          1           0       -1.159624    0.090986   -1.742948
     17          1           0       -2.761697   -0.188924   -1.071311
     18          1           0       -0.858406   -2.114198   -0.735538
     19          1           0       -1.910299   -1.700764    0.609836
     20          1           0        0.002873   -1.193248    1.791330
     21          1           0        1.502491   -2.068609   -0.300258
     22          1           0        2.209902   -1.062599    0.961314
 ---------------------------------------------------------------------

 SCF Done:  E(RB3LYP) =  -313.312214462     A.U. after    1 cycles

 The electronic state is 1-A.
 Alpha  occ. eigenvalues --  -10.17324 -10.17307 -10.17035 -10.17035 -10.16932
 Alpha  occ. eigenvalues --  -10.16932 -10.16906 -10.16906  -0.84407  -0.77231
 Alpha  occ. eigenvalues --   -0.72239  -0.68187  -0.65169  -0.57376  -0.54790
 Alpha  occ. eigenvalues --   -0.52183  -0.48984  -0.45871  -0.44534  -0.42299
 Alpha  occ. eigenvalues --   -0.41041  -0.38296  -0.35346  -0.33733  -0.33629
 Alpha  occ. eigenvalues --   -0.31706  -0.30696  -0.30623  -0.30514  -0.30227
 Alpha  occ. eigenvalues --   -0.29707
 Alpha virt. eigenvalues --    0.07324   0.08939   0.12627   0.13340   0.13932
 Alpha virt. eigenvalues --    0.14493   0.15221   0.17387   0.17750   0.17977
 Alpha virt. eigenvalues --    0.18937   0.19443   0.20452   0.21760   0.22030

 Mulliken charges:
               1
     1  C   -0.201196
     2  C   -0.206529
     3  C    0.008530
     4  C   -0.207327
     5  C   -0.201194
     6  C   -0.206528
     7  C    0.008530
     8  C   -0.207326
     9  H    0.088297
    10  H    0.098821
    11  H    0.088731
    12  H    0.093072
    13  H    0.059894
    14  H    0.088377
    15  H    0.089329
    16  H    0.098821
    17  H    0.088296
    18  H    0.088730
    19  H    0.093072
    20  H    0.059894
    21  H    0.088377
    22  H    0.089330
 Sum of Mulliken charges =  -0.00000

 Dipole moment (field-independent basis, Debye):
    X=              0.0000    Y=              0.0000    Z=              0.1122  Tot=              0.1122
 Quadrupole moment (field-independent basis, Debye-Ang):
   XX=            -51.3328   YY=            -51.7739   ZZ=            -50.9294
   XY=              0.1809   XZ=              0.0000   YZ=              0.0000

  Exact polarizability:  85.924   0.073  79.748   0.000   0.000  73.423
 Approx polarizability: 114.436   0.332 112.613  -0.000  -0.000 112.220

                      1                      2                      3
                      A                      A                      A
 Frequencies --     39.1668               205.1949               214.9841
 Red. masses --      2.2202                 2.4756                 1.6711
 Frc consts  --      0.0020                 0.0614                 0.0455
 IR Inten    --      0.0003                 0.0245                 0.0459

                      4                      5                      6
                      A                      A                      A
 Frequencies --    373.3205               393.3600               521.0145
 Red. masses --      1.8984                 1.7244                 3.6873
 Frc consts  --      0.1559                 0.1572                 0.5897
 IR Inten    --      0.0041                 0.0831                 0.0055

                      7                      8                      9
                      A                      A                      A
 Frequencies --    544.7741               609.3913               748.2754
 Red. masses --      1.7747                 2.0022                 2.2157
 Frc consts  --      0.3103                 0.4381                 0.7310
 IR Inten    --      1.7830                 0.5115                 0.3520

                     10                     11                     12
                      A                      A                      A
 Frequencies --    762.4747               809.9500               834.8403
 Red. masses --      2.8906                 3.7792                 2.1036
 Frc consts  --      0.9901                 1.4607                 0.8638
 IR Inten    --      0.3761                 0.1164                 0.0760

                     13                     14                     15
                      A                      A                      A
 Frequencies --    842.1161               878.0989               908.3078
 Red. masses --      1.4736                 2.0663                 2.4339
 Frc consts  --      0.6157                 0.9387                 1.1831
 IR Inten    --      0.0012                 1.1023                 0.9150

                     16                     17                     18
                      A                      A                      A
 Frequencies --    917.8912               938.7723               949.5597
 Red. masses --      2.4976                 1.4883                 2.1966
 Frc consts  --      1.2398                 0.7728                 1.1669
 IR Inten    --      1.2907                 1.6362                 0.0637

                     19                     20                     21
                      A                      A                      A
 Frequencies --    984.4038              1010.6430              1024.5072
 Red. masses --      1.7089                 1.6824                 2.0231
 Frc consts  --      0.9757                 1.0124                 1.2511
 IR Inten    --      0.1125                 0.2066                 0.5639

                     22                     23                     24
                      A                      A                      A
 Frequencies --   1047.1052              1073.1634              1123.1438
 Red. masses --      1.3886                 1.8106                 1.1336
 Frc consts  --      0.8970                 1.2286                 0.8426
 IR Inten    --      0.0003                 0.0769                 0.0138

                     25                     26                     27
                      A                      A                      A
 Frequencies --   1154.8189              1157.0228              1189.5714
 Red. masses --      2.5174                 1.1228                 1.3027
 Frc consts  --      1.9780                 0.8856                 1.0861
 IR Inten    --      0.1427                 0.0084                 0.1850

                     28                     29                     30
                      A                      A                      A
 Frequencies --   1201.5694              1212.5346              1262.1244
 Red. masses --      1.7720                 1.5083                 1.3805
 Frc consts  --      1.5073                 1.3066                 1.2956
 IR Inten    --      0.0151                 2.0710                 1.2284

                     31                     32                     33
                      A                      A                      A
 Frequencies --   1291.8833              1292.5074              1307.8617
 Red. masses --      1.2768                 1.4166                 1.3428
 Frc consts  --      1.2555                 1.3943                 1.3532
 IR Inten    --      0.4756                 0.1083                 0.1114

                     34                     35                     36
                      A                      A                      A
 Frequencies --   1317.8658              1326.6838              1339.8002
 Red. masses --      1.3563                 1.3040                 1.4906
 Frc consts  --      1.3878                 1.3522                 1.5765
 IR Inten    --      0.0001                 0.0002                 0.4541

                     37                     38                     39
                      A                      A                      A
 Frequencies --   1344.7007              1357.8710              1363.5420
 Red. masses --      1.2373                 1.3013                 1.4932
 Frc consts  --      1.3182                 1.4136                 1.6357
 IR Inten    --      1.0410                 6.1108                 0.0397

                     40                     41                     42
                      A                      A                      A
 Frequencies --   1371.7852              1480.9698              1485.7660
 Red. masses --      1.4853                 1.0899                 1.0803
 Frc consts  --      1.6468                 1.4084                 1.4051
 IR Inten    --      0.0094                 0.0433                 0.6202

                     43                     44                     45
                      A                      A                      A
 Frequencies --   1493.4448              1498.3652              1501.1695
 Red. masses --      1.0897                 1.0822                 1.1115
 Frc consts  --      1.4319                 1.4316                 1.4758
 IR Inten    --      3.7533                 3.0003                 3.9515

                     46                     47                     48
                      A                      A                      A
 Frequencies --   1516.4223              3022.2601              3022.4724
 Red. masses --      1.0994                 1.0673                 1.0663
 Frc consts  --      1.4895                 5.7441                 5.7395
 IR Inten    --      2.2830                45.2114                 4.1520

                     49                     50                     51
                      A                      A                      A
 Frequencies --   3031.6748              3031.8381              3032.6464
 Red. masses --      1.0697                 1.0642                 1.0606
 Frc consts  --      5.7926                 5.7637                 5.7469
 IR Inten    --     33.5154                 0.1791                 5.2047

                     52                     53                     54
                      A                      A                      A
 Frequencies --   3038.9622              3054.4845              3068.4832
 Red. masses --      1.0623                 1.0819                 1.0951
 Frc consts  --      5.7802                 5.9473                 6.0750
 IR Inten    --     46.4289                63.8787                14.9342

                     55                     56                     57
                      A                      A                      A
 Frequencies --   3071.0618              3072.7590              3075.9025
 Red. masses --      1.0939                 1.0946                 1.0920
 Frc consts  --      6.0789                 6.0891                 6.0871
 IR Inten    --     15.5184                36.3808                20.7231

                     58                     59                     60
                      A                      A                      A
 Frequencies --   3078.8979              3085.5557              3093.1896
 Red. masses --      1.1003                 1.1047                 1.1042
 Frc consts  --      6.1452                 6.1966                 6.2246
 IR Inten    --     45.6078               110.4911                60.4371

 - Thermochemistry -
 -------------------
 Temperature   298.150 Kelvin.  Pressure   1.00000 Atm.
 Atom     1 has atomic number  6 and mass  12.00000

 Molecular mass:   110.10955 amu.
 Principal axes and moments of inertia in atomic units:
                           1         2         3
     Eigenvalues --   578.47883 866.959701089.89874
           X            1.00000   0.00050  -0.00000
           Y           -0.00050   1.00000  -0.00000
           Z            0.00000   0.00000   1.00000
 This molecule is an asymmetric top.
 Rotational symmetry number  1.
 Warning -- assumption of classical behavior for rotation
           may cause significant error
 Rotational temperatures (Kelvin)      0.14973     0.09991     0.07947
 Rotational constants (GHZ):           3.11981     2.08169     1.65588
 Zero-point vibrational energy     538337.1 (Joules/Mol)
                                  128.66564 (Kcal/Mol)
 Warning -- explicit consideration of   8 degrees of freedom as
           vibrations may cause significant error
 Vibrational temperatures:     56.35   295.23   309.31   537.12   565.96
          (Kelvin)            749.62   783.81   876.78  1076.60  1097.03
                             1165.34  1201.15  1211.62  1263.39  1306.85
                             1320.64  1350.68  1366.20  1416.34  1454.09
                             1474.04  1506.55  1544.04  1615.95  1661.53
                             1664.70  1711.53  1728.79  1744.57  1815.92
                             1858.73  1859.63  1881.72  1896.11  1908.80
                             1927.67  1934.72  1953.67  1961.83  1973.69
                             2130.79  2137.69  2148.73  2155.81  2159.85
                             2181.79  4348.36  4348.66  4361.90  4362.14
                             4363.30  4372.39  4394.72  4414.86  4418.57
                             4421.01  4425.54  4429.85  4439.43  4450.41

 Zero-point correction=                           0.205042 (Hartree/Particle)
 Thermal correction to Energy=                    0.212102
 Thermal correction to Enthalpy=                  0.213046
 Thermal correction to Gibbs Free Energy=         0.173333
 Sum of electronic and zero-point Energies=           -313.107173
 Sum of electronic and thermal Energies=              -313.100113
 Sum of electronic and thermal Enthalpies=            -313.099169
 Sum of electronic and thermal Free Energies=         -313.138881

                     E (Thermal)             CV                S
                      KCal/Mol        Cal/Mol-Kelvin    Cal/Mol-Kelvin
 Total                  133.096             28.672             83.583
 Electronic               0.000              0.000              0.000
 Translational            0.889              2.981             40.005
 Rotational               0.889              2.981             27.793
 Vibrational            131.318             22.710             15.784
 Vibration     1          0.594              1.981              5.301
 Vibration     2          0.640              1.832              2.086
 Vibration     3          0.645              1.818              2.001
 Vibration     4          0.745              1.527              1.066
 Vibration     5          0.761              1.484              0.987
 Vibration     6          0.876              1.203              0.608
 Vibration     7          0.900              1.151              0.555
 Vibration     8          0.968              1.012              0.434

 Optimization completed.
    -- Stationary point found.
 Normal termination of Gaussian 16 at Sun May 28 17:49:47 2023.
