 Gaussian 16, Revision A.03,
 Gaussian 16:  ES64L-G16RevA.03 25-Dec-2016

 -----------------------------
 # opt freq b3lyp/6-31g(2df,p)
 -----------------------------

 -------------------
 Title Card Required
 -------------------
 Symbolic Z-matrix:
 Charge =  0 Multiplicity = 1

 SCF Done:  E(RB3LYP) =  -353.824294360     A.U. after   12 cycles
 SCF Done:  E(RB3LYP) =  -353.826556059     A.U. after    9 cycles
 SCF Done:  E(RB3LYP) =  -353.826706274     A.U. after    8 cycles
 SCF Done:  E(RB3LYP) =  -353.826712895     A.U. after    7 cycles
 SCF Done:  E(RB3LYP) =  -353.826710745     A.U. after    6 cycles
 SCF Done:  E(RB3LYP) =  -353.826709065     A.U. after    6 cycles
 SCF Done:  E(RB3LYP) =  -353.826715845     A.U. after    6 cycles
 Optimization completed.
    -- Stationary point found.
 Normal termination of Gaussian 16 at Sun May 28 05:22:13 2023.

 ----------------------------------------------------------------------
 #N Geom=AllCheck Guess=TCheck SCRF=Check GenChk RB3LYP/6-31G(2df,p) Fr
 eq
 ----------------------------------------------------------------------

 Structure from the checkpoint file:  "C1CCCCCCCC1.chk"
 -------------------
 Title Card Required
 -------------------
 Charge =  0 Multiplicity = 1

                         Standard orientation:
 ---------------------------------------------------------------------
 Center     Atomic      Atomic             Coordinates (Angstroms)
 Number     Number       Type             X           Y           Z
 ---------------------------------------------------------------------
      1          6           0        1.125638    1.440096   -0.507527
      2          6           0       -0.126665    2.182558    0.000140
      3          6           0       -1.284852    1.300428    0.507594
      4          6           0       -1.810815    0.254808   -0.507263
      5          6           0       -1.827422   -1.201063   -0.000089
      6          6           0       -0.484154   -1.762471    0.507473
      7          6           0        0.684420   -1.694677   -0.507377
      8          6           0        1.953904   -0.982071    0.000160
      9          6           0        1.769797    0.462367    0.507002
     10          1           0        1.860845    2.193811   -0.811262
     11          1           0        0.875370    0.902881   -1.428649
     12          1           0       -0.496213    2.823887   -0.811198
     13          1           0        0.166390    2.862283    0.811454
     14          1           0       -2.102472    1.963967    0.811038
     15          1           0       -0.974289    0.795811    1.428771
     16          1           0       -1.221057    0.307062   -1.428728
     17          1           0       -2.831279    0.515191   -0.810136
     18          1           0       -2.197744   -1.841711   -0.811619
     19          1           0       -2.562673   -1.287559    0.811114
     20          1           0       -0.649616   -2.802460    0.810628
     21          1           0       -0.202561   -1.241455    1.428849
     22          1           0        0.344650   -1.209290   -1.428572
     23          1           0        0.968869   -2.708520   -0.810834
     24          1           0        2.694191   -0.983475   -0.811088
     25          1           0        2.395572   -1.575672    0.811773
     26          1           0        2.753784    0.838788    0.808537
     27          1           0        1.179120    0.446611    1.429239
 ---------------------------------------------------------------------

 SCF Done:  E(RB3LYP) =  -353.826715845     A.U. after    1 cycles

 The electronic state is 1-A.
 Alpha  occ. eigenvalues --  -10.17276 -10.17276 -10.17276 -10.17071 -10.17070
 Alpha  occ. eigenvalues --  -10.17069 -10.17051 -10.17050 -10.17049  -0.81233
 Alpha  occ. eigenvalues --   -0.77097  -0.77094  -0.68624  -0.68623  -0.61742
 Alpha  occ. eigenvalues --   -0.59218  -0.54055  -0.54054  -0.47333  -0.45993
 Alpha  occ. eigenvalues --   -0.43392  -0.43392  -0.41920  -0.41918  -0.37107
 Alpha  occ. eigenvalues --   -0.37104  -0.36566  -0.35098  -0.34748  -0.34745
 Alpha  occ. eigenvalues --   -0.30466  -0.30335  -0.30334  -0.29990  -0.29989
 Alpha  occ. eigenvalues --   -0.29484
 Alpha virt. eigenvalues --    0.08348   0.09206   0.10638   0.11339   0.11341
 Alpha virt. eigenvalues --    0.14440   0.14443   0.16994   0.16995   0.17027
 Alpha virt. eigenvalues --    0.18246   0.19304   0.19309   0.20040   0.20045

 Mulliken charges:
               1
     1  C   -0.178302
     2  C   -0.194171
     3  C   -0.178277
     4  C   -0.178388
     5  C   -0.194119
     6  C   -0.178421
     7  C   -0.178252
     8  C   -0.194159
     9  C   -0.178400
    10  H    0.090234
    11  H    0.095835
    12  H    0.089339
    13  H    0.089327
    14  H    0.090235
    15  H    0.095827
    16  H    0.095838
    17  H    0.090239
    18  H    0.089335
    19  H    0.089337
    20  H    0.090247
    21  H    0.095855
    22  H    0.095842
    23  H    0.090227
    24  H    0.089332
    25  H    0.089340
    26  H    0.090272
    27  H    0.095828
 Sum of Mulliken charges =   0.00000

 Dipole moment (field-independent basis, Debye):
    X=              0.0002    Y=             -0.0001    Z=             -0.0001  Tot=              0.0002
 Quadrupole moment (field-independent basis, Debye-Ang):
   XX=            -59.6304   YY=            -59.6314   ZZ=            -59.4373
   XY=             -0.0002   XZ=             -0.0001   YZ=             -0.0002

  Exact polarizability: 101.233  -0.001 101.223  -0.001  -0.000  81.538
 Approx polarizability: 133.622  -0.002 133.619   0.001  -0.000 131.361

                      1                      2                      3
                      A                      A                      A
 Frequencies --    168.0059               169.8134               176.9498
 Red. masses --      2.2919                 2.2738                 2.4961
 Frc consts  --      0.0381                 0.0386                 0.0460
 IR Inten    --      0.0045                 0.0027                 0.0733

                      4                      5                      6
                      A                      A                      A
 Frequencies --    177.4840               270.3853               318.9704
 Red. masses --      2.4834                 1.6810                 2.2890
 Frc consts  --      0.0461                 0.0724                 0.1372
 IR Inten    --      0.0671                 0.0012                 0.0006

                      7                      8                      9
                      A                      A                      A
 Frequencies --    343.5397               343.8292               361.8761
 Red. masses --      1.9739                 1.9630                 1.8482
 Frc consts  --      0.1373                 0.1367                 0.1426
 IR Inten    --      0.2062                 0.2015                 0.3505

                     10                     11                     12
                      A                      A                      A
 Frequencies --    460.0672               462.8545               505.7167
 Red. masses --      2.0011                 1.9937                 3.1301
 Frc consts  --      0.2495                 0.2516                 0.4716
 IR Inten    --      0.3652                 0.3929                 0.0001

                     13                     14                     15
                      A                      A                      A
 Frequencies --    701.8416               702.7575               742.0842
 Red. masses --      1.2375                 1.2379                 2.0735
 Frc consts  --      0.3591                 0.3602                 0.6728
 IR Inten    --      5.9205                 5.9152                 0.0001

                     16                     17                     18
                      A                      A                      A
 Frequencies --    798.0096               798.4094               818.9476
 Red. masses --      2.4631                 2.4625                 1.4511
 Frc consts  --      0.9242                 0.9249                 0.5734
 IR Inten    --      0.8149                 0.8243                 1.6452

                     19                     20                     21
                      A                      A                      A
 Frequencies --    892.0212               928.7834               928.8145
 Red. masses --      1.8556                 2.1847                 2.1857
 Frc consts  --      0.8699                 1.1104                 1.1110
 IR Inten    --      0.0001                 0.1122                 0.1121

                     22                     23                     24
                      A                      A                      A
 Frequencies --    976.0109              1020.4135              1020.9886
 Red. masses --      1.6350                 1.8506                 1.8559
 Frc consts  --      0.9176                 1.1353                 1.1399
 IR Inten    --      0.4873                 1.5298                 1.5373

                     25                     26                     27
                      A                      A                      A
 Frequencies --   1045.0389              1060.0866              1086.2185
 Red. masses --      2.1366                 2.1898                 1.8160
 Frc consts  --      1.3748                 1.4499                 1.2624
 IR Inten    --      0.0001                 0.7978                 0.0217

                     28                     29                     30
                      A                      A                      A
 Frequencies --   1086.6415              1117.0214              1117.0791
 Red. masses --      1.8223                 2.3623                 2.3650
 Frc consts  --      1.2677                 1.7366                 1.7388
 IR Inten    --      0.0244                 0.0037                 0.0039

                     31                     32                     33
                      A                      A                      A
 Frequencies --   1177.4750              1177.4908              1222.9035
 Red. masses --      1.1788                 1.1785                 1.3419
 Frc consts  --      0.9629                 0.9627                 1.1824
 IR Inten    --      0.0066                 0.0062                 0.8642

                     34                     35                     36
                      A                      A                      A
 Frequencies --   1223.0255              1240.3448              1269.6274
 Red. masses --      1.3416                 1.2057                 1.2007
 Frc consts  --      1.1824                 1.0929                 1.1404
 IR Inten    --      0.8663                 0.0000                 0.0016

                     37                     38                     39
                      A                      A                      A
 Frequencies --   1310.2122              1324.8205              1328.2750
 Red. masses --      1.2001                 1.3955                 1.1070
 Frc consts  --      1.2139                 1.4431                 1.1507
 IR Inten    --      0.0000                 0.0138                 0.3232

                     40                     41                     42
                      A                      A                      A
 Frequencies --   1328.3540              1359.8123              1360.1961
 Red. masses --      1.1086                 1.2998                 1.2978
 Frc consts  --      1.1525                 1.4161                 1.4146
 IR Inten    --      0.3037                 4.8406                 4.9206

                     43                     44                     45
                      A                      A                      A
 Frequencies --   1371.4426              1390.2723              1390.3023
 Red. masses --      1.3618                 1.3725                 1.3723
 Frc consts  --      1.5091                 1.5631                 1.5629
 IR Inten    --      0.0444                 5.5721                 5.5999

                     46                     47                     48
                      A                      A                      A
 Frequencies --   1392.8039              1398.9071              1399.2182
 Red. masses --      1.4103                 1.3537                 1.3529
 Frc consts  --      1.6119                 1.5608                 1.5606
 IR Inten    --      0.0438                 0.7761                 0.6858

                     49                     50                     51
                      A                      A                      A
 Frequencies --   1482.5128              1482.6394              1487.4977
 Red. masses --      1.0769                 1.0770                 1.0868
 Frc consts  --      1.3945                 1.3949                 1.4169
 IR Inten    --      0.2241                 0.1767                 0.0312

                     52                     53                     54
                      A                      A                      A
 Frequencies --   1488.0797              1488.3596              1496.0730
 Red. masses --      1.0763                 1.0752                 1.0982
 Frc consts  --      1.4042                 1.4033                 1.4482
 IR Inten    --      3.6461                 4.7676                 3.8086

                     55                     56                     57
                      A                      A                      A
 Frequencies --   1496.1877              1516.1064              1524.9946
 Red. masses --      1.1000                 1.0726                 1.0836
 Frc consts  --      1.4508                 1.4527                 1.4848
 IR Inten    --      3.0875                 0.2085                17.7733

                     58                     59                     60
                      A                      A                      A
 Frequencies --   3007.0716              3007.1060              3007.9384
 Red. masses --      1.0608                 1.0608                 1.0599
 Frc consts  --      5.6517                 5.6519                 5.6501
 IR Inten    --     44.0839                44.1066                 0.0197

                     61                     62                     63
                      A                      A                      A
 Frequencies --   3029.4483              3029.5213              3031.4685
 Red. masses --      1.0713                 1.0711                 1.0727
 Frc consts  --      5.7927                 5.7918                 5.8080
 IR Inten    --      3.3335                 2.9453                20.9598

                     64                     65                     66
                      A                      A                      A
 Frequencies --   3035.1898              3035.2853              3038.7093
 Red. masses --      1.0690                 1.0694                 1.0978
 Frc consts  --      5.8021                 5.8050                 5.9724
 IR Inten    --     23.2879                24.0290                78.9790

                     67                     68                     69
                      A                      A                      A
 Frequencies --   3044.8779              3044.9013              3048.1456
 Red. masses --      1.0864                 1.0859                 1.0615
 Frc consts  --      5.9344                 5.9319                 5.8111
 IR Inten    --      0.4244                 0.5222                 0.0222

                     70                     71                     72
                      A                      A                      A
 Frequencies --   3060.3302              3060.7345              3070.4970
 Red. masses --      1.0969                 1.0967                 1.1026
 Frc consts  --      6.0527                 6.0532                 6.1245
 IR Inten    --     26.7148                26.5428               102.7180

                     73                     74                     75
                      A                      A                      A
 Frequencies --   3070.7774              3078.1567              3078.4544
 Red. masses --      1.1026                 1.0966                 1.0951
 Frc consts  --      6.1258                 6.1216                 6.1148
 IR Inten    --    102.0494                59.2423                80.3828

 - Thermochemistry -
 -------------------
 Temperature   298.150 Kelvin.  Pressure   1.00000 Atm.
 Atom     1 has atomic number  6 and mass  12.00000

 Molecular mass:   126.14085 amu.
 Principal axes and moments of inertia in atomic units:
                           1         2         3
     Eigenvalues --  1070.632361071.275801864.56700
           X            1.00000  -0.00039   0.00000
           Y            0.00039   1.00000  -0.00000
           Z           -0.00000   0.00000   1.00000
 This molecule is an asymmetric top.
 Rotational symmetry number  1.
 Warning -- assumption of classical behavior for rotation
           may cause significant error
 Rotational temperatures (Kelvin)      0.08090     0.08085     0.04645
 Rotational constants (GHZ):           1.68568     1.68467     0.96791
 Zero-point vibrational energy     672942.5 (Joules/Mol)
                                  160.83713 (Kcal/Mol)
 Warning -- explicit consideration of  12 degrees of freedom as
           vibrations may cause significant error
 Vibrational temperatures:    241.72   244.32   254.59   255.36   389.02
          (Kelvin)            458.93   494.28   494.69   520.66   661.93
                              665.94   727.61  1009.79  1011.11  1067.69
                             1148.16  1148.73  1178.28  1283.42  1336.31
                             1336.36  1404.26  1468.15  1468.97  1503.58
                             1525.23  1562.83  1563.43  1607.14  1607.23
                             1694.12  1694.15  1759.49  1759.66  1784.58
                             1826.71  1885.10  1906.12  1911.09  1911.21
                             1956.47  1957.02  1973.20  2000.29  2000.33
                             2003.93  2012.72  2013.16  2133.01  2133.19
                             2140.18  2141.01  2141.42  2152.52  2152.68
                             2181.34  2194.13  4326.51  4326.55  4327.75
                             4358.70  4358.81  4361.61  4366.96  4367.10
                             4372.02  4380.90  4380.93  4385.60  4403.13
                             4403.71  4417.76  4418.16  4428.78  4429.21

 Zero-point correction=                           0.256310 (Hartree/Particle)
 Thermal correction to Energy=                    0.265444
 Thermal correction to Enthalpy=                  0.266388
 Thermal correction to Gibbs Free Energy=         0.223204
 Sum of electronic and zero-point Energies=           -353.570406
 Sum of electronic and thermal Energies=              -353.561272
 Sum of electronic and thermal Enthalpies=            -353.560328
 Sum of electronic and thermal Free Energies=         -353.603512

                     E (Thermal)             CV                S
                      KCal/Mol        Cal/Mol-Kelvin    Cal/Mol-Kelvin
 Total                  166.569             37.403             90.889
 Electronic               0.000              0.000              0.000
 Translational            0.889              2.981             40.410
 Rotational               0.889              2.981             29.149
 Vibrational            164.791             31.441             21.330
 Vibration     1          0.625              1.882              2.458
 Vibration     2          0.625              1.880              2.438
 Vibration     3          0.628              1.871              2.360
 Vibration     4          0.628              1.870              2.355
 Vibration     5          0.674              1.728              1.594
 Vibration     6          0.705              1.637              1.315
 Vibration     7          0.722              1.588              1.196
 Vibration     8          0.723              1.588              1.194
 Vibration     9          0.736              1.551              1.114
 Vibration    10          0.818              1.339              0.766
 Vibration    11          0.820              1.332              0.758
 Vibration    12          0.861              1.237              0.644

                           ! Non-Optimized Parameters !
 Normal termination of Gaussian 16 at Sun May 28 06:20:14 2023.
