 Gaussian 16, Revision A.03,
 Gaussian 16:  ES64L-G16RevA.03 25-Dec-2016

 -----------------------------
 # opt freq b3lyp/6-31g(2df,p)
 -----------------------------

 -------------------
 Title Card Required
 -------------------
 Symbolic Z-matrix:
 Charge =  0 Multiplicity = 1

 SCF Done:  E(RB3LYP) =  -311.958314636     A.U. after   12 cycles
 SCF Done:  E(RB3LYP) =  -311.981118050     A.U. after   11 cycles
 SCF Done:  E(RB3LYP) =  -311.985835164     A.U. after   11 cycles
 SCF Done:  E(RB3LYP) =  -311.986407477     A.U. after    9 cycles
 SCF Done:  E(RB3LYP) =  -311.986520858     A.U. after    8 cycles
 SCF Done:  E(RB3LYP) =  -311.986544612     A.U. after    8 cycles
 SCF Done:  E(RB3LYP) =  -311.986550136     A.U. after    7 cycles
 SCF Done:  E(RB3LYP) =  -311.986550966     A.U. after    6 cycles
 SCF Done:  E(RB3LYP) =  -311.986552044     A.U. after    7 cycles
 SCF Done:  E(RB3LYP) =  -311.986552964     A.U. after    7 cycles
 SCF Done:  E(RB3LYP) =  -311.986553083     A.U. after    6 cycles
 Optimization completed.
    -- Stationary point found.
 Normal termination of Gaussian 16 at Sun May 28 13:34:47 2023.

 ----------------------------------------------------------------------
 #N Geom=AllCheck Guess=TCheck SCRF=Check GenChk RB3LYP/6-31G(2df,p) Fr
 eq
 ----------------------------------------------------------------------

 Structure from the checkpoint file:  "C1CC2qC1rC1CC2C1.chk"
 -------------------
 Title Card Required
 -------------------
 Charge =  0 Multiplicity = 1

                         Standard orientation:
 ---------------------------------------------------------------------
 Center     Atomic      Atomic             Coordinates (Angstroms)
 Number     Number       Type             X           Y           Z
 ---------------------------------------------------------------------
      1          6           0       -2.348937   -0.000000    0.205121
      2          6           0       -1.299997    1.093877   -0.137852
      3          6           0       -0.202599   -0.000009   -0.101607
      4          6           0       -1.299992   -1.093880   -0.137839
      5          6           0        1.113796    0.000034   -0.926499
      6          6           0        1.649793   -1.073966    0.065243
      7          6           0        0.950387   -0.000009    0.948439
      8          6           0        1.649769    1.073961    0.065243
      9          1           0       -3.272388    0.000030   -0.378066
     10          1           0       -2.612360   -0.000061    1.266127
     11          1           0       -1.205776    1.928164    0.562507
     12          1           0       -1.441838    1.505249   -1.142811
     13          1           0       -1.205808   -1.928038    0.562680
     14          1           0       -1.441789   -1.505420   -1.142730
     15          1           0        1.204996   -0.000106   -2.014938
     16          1           0        2.736893   -1.146363    0.160277
     17          1           0        1.188449   -2.063203    0.024519
     18          1           0        0.851035    0.000126    2.036081
     19          1           0        2.736864    1.146385    0.160281
     20          1           0        1.188400    2.063192    0.024576
 ---------------------------------------------------------------------

 SCF Done:  E(RB3LYP) =  -311.986553083     A.U. after    1 cycles

 The electronic state is 1-A.
 Alpha  occ. eigenvalues --  -10.19243 -10.19059 -10.18954 -10.17999 -10.17998
 Alpha  occ. eigenvalues --  -10.17528 -10.17158 -10.17157  -0.90769  -0.81450
 Alpha  occ. eigenvalues --   -0.67078  -0.63891  -0.63788  -0.61876  -0.56930
 Alpha  occ. eigenvalues --   -0.49674  -0.48951  -0.47117  -0.45665  -0.41930
 Alpha  occ. eigenvalues --   -0.38116  -0.37400  -0.34973  -0.33405  -0.32329
 Alpha  occ. eigenvalues --   -0.31880  -0.30364  -0.28317  -0.28139  -0.27762
 Alpha virt. eigenvalues --    0.09547   0.09635   0.11355   0.12155   0.13480
 Alpha virt. eigenvalues --    0.14880   0.15471   0.16566   0.16598   0.18370
 Alpha virt. eigenvalues --    0.18659   0.18955   0.18974   0.20531   0.21623

 Mulliken charges:
               1
     1  C   -0.215172
     2  C   -0.319179
     3  C    0.455792
     4  C   -0.319188
     5  C   -0.114004
     6  C   -0.225793
     7  C   -0.102627
     8  C   -0.225782
     9  H    0.095080
    10  H    0.101121
    11  H    0.096688
    12  H    0.098107
    13  H    0.096692
    14  H    0.098106
    15  H    0.061137
    16  H    0.085471
    17  H    0.091956
    18  H    0.064174
    19  H    0.085469
    20  H    0.091952
 Sum of Mulliken charges =  -0.00000

 Dipole moment (field-independent basis, Debye):
    X=             -0.1125    Y=             -0.0000    Z=             -0.0043  Tot=              0.1126
 Quadrupole moment (field-independent basis, Debye-Ang):
   XX=            -50.4252   YY=            -50.2373   ZZ=            -49.1404
   XY=              0.0001   XZ=              0.1952   YZ=              0.0003

  Exact polarizability:  89.766  -0.000  77.236   0.580   0.001  69.915
 Approx polarizability: 116.464  -0.001 113.815   0.773   0.001 110.368

                      1                      2                      3
                      A                      A                      A
 Frequencies --     90.3448               224.9887               245.2979
 Red. masses --      1.9390                 2.2418                 2.8965
 Frc consts  --      0.0093                 0.0669                 0.1027
 IR Inten    --      0.0043                 0.0032                 0.0352

                      4                      5                      6
                      A                      A                      A
 Frequencies --    327.4262               443.9756               549.0726
 Red. masses --      2.0223                 3.1053                 2.8530
 Frc consts  --      0.1277                 0.3606                 0.5068
 IR Inten    --      0.1969                 0.0538                 0.0778

                      7                      8                      9
                      A                      A                      A
 Frequencies --    578.7961               694.3836               759.3099
 Red. masses --      1.9931                 1.4950                 2.2930
 Frc consts  --      0.3934                 0.4247                 0.7789
 IR Inten    --      1.0869                 1.3606                 0.0383

                     10                     11                     12
                      A                      A                      A
 Frequencies --    774.4653               814.4264               854.5480
 Red. masses --      1.4585                 2.0297                 2.1703
 Frc consts  --      0.5154                 0.7932                 0.9338
 IR Inten    --      0.0225                 0.0126                 1.1591

                     13                     14                     15
                      A                      A                      A
 Frequencies --    872.7767               900.1055               903.1560
 Red. masses --      2.3477                 2.9342                 1.9466
 Frc consts  --      1.0537                 1.4006                 0.9355
 IR Inten    --      0.5728                 0.1482                 0.1513

                     16                     17                     18
                      A                      A                      A
 Frequencies --    945.2688               959.8152               986.0903
 Red. masses --      2.5236                 2.6638                 1.5135
 Frc consts  --      1.3285                 1.4459                 0.8671
 IR Inten    --      0.8346                 0.4839                 0.6348

                     19                     20                     21
                      A                      A                      A
 Frequencies --   1015.3137              1026.9031              1039.0278
 Red. masses --      1.0127                 1.0952                 1.0790
 Frc consts  --      0.6151                 0.6805                 0.6863
 IR Inten    --      0.0005                 2.2652                 0.0394

                     22                     23                     24
                      A                      A                      A
 Frequencies --   1047.7138              1102.3099              1114.0691
 Red. masses --      2.1668                 1.3996                 2.2118
 Frc consts  --      1.4014                 1.0020                 1.6174
 IR Inten    --      2.3562                 0.0273                 0.2021

                     25                     26                     27
                      A                      A                      A
 Frequencies --   1132.4123              1150.1985              1182.8487
 Red. masses --      3.6359                 1.9485                 2.0326
 Frc consts  --      2.7471                 1.5187                 1.6755
 IR Inten    --      4.8478                 0.7886                 1.3265

                     28                     29                     30
                      A                      A                      A
 Frequencies --   1187.5152              1195.3170              1208.1273
 Red. masses --      1.6303                 1.3729                 1.3419
 Frc consts  --      1.3546                 1.1557                 1.1540
 IR Inten    --      1.0292                 0.0000                 0.2358

                     31                     32                     33
                      A                      A                      A
 Frequencies --   1229.1862              1252.5497              1255.1250
 Red. masses --      1.4412                 1.6488                 1.2446
 Frc consts  --      1.2829                 1.5241                 1.1552
 IR Inten    --      4.4631                 0.3401                 0.7325

                     34                     35                     36
                      A                      A                      A
 Frequencies --   1256.8413              1279.0352              1280.3019
 Red. masses --      1.6173                 1.4888                 1.5026
 Frc consts  --      1.5052                 1.4350                 1.4511
 IR Inten    --      6.4839                 0.2889                 3.1914

                     37                     38                     39
                      A                      A                      A
 Frequencies --   1326.0668              1472.2871              1481.1447
 Red. masses --      2.8991                 1.0905                 1.0831
 Frc consts  --      3.0037                 1.3927                 1.3999
 IR Inten    --      8.6740                 0.8395                 1.2121

                     40                     41                     42
                      A                      A                      A
 Frequencies --   1499.0355              1504.3555              1535.3397
 Red. masses --      1.0967                 1.1348                 1.1408
 Frc consts  --      1.4519                 1.5131                 1.5844
 IR Inten    --      0.2945                 0.0153                 1.0695

                     43                     44                     45
                      A                      A                      A
 Frequencies --   3040.7094              3044.3718              3051.5884
 Red. masses --      1.0582                 1.0593                 1.0553
 Frc consts  --      5.7645                 5.7842                 5.7902
 IR Inten    --     41.6703                 9.9234                64.8978

                     46                     47                     48
                      A                      A                      A
 Frequencies --   3052.7926              3061.0315              3082.8156
 Red. masses --      1.0551                 1.0621                 1.0897
 Frc consts  --      5.7936                 5.8633                 6.1014
 IR Inten    --     40.6817                44.3006               112.8976

                     49                     50                     51
                      A                      A                      A
 Frequencies --   3087.9115              3090.9817              3093.0566
 Red. masses --      1.1035                 1.0924                 1.1062
 Frc consts  --      6.1996                 6.1493                 6.2353
 IR Inten    --     19.6669                 8.1852                 8.3775

                     52                     53                     54
                      A                      A                      A
 Frequencies --   3116.4128              3116.4636              3118.8725
 Red. masses --      1.1096                 1.1079                 1.1090
 Frc consts  --      6.3495                 6.3399                 6.3560
 IR Inten    --     30.3838                70.7423                40.1642

 - Thermochemistry -
 -------------------
 Temperature   298.150 Kelvin.  Pressure   1.00000 Atm.
 Atom     1 has atomic number  6 and mass  12.00000

 Molecular mass:   108.09390 amu.
 Principal axes and moments of inertia in atomic units:
                           1         2         3
     Eigenvalues --   411.82938 995.825791153.14699
           X            1.00000   0.00000   0.00051
           Y           -0.00000   1.00000   0.00001
           Z           -0.00051  -0.00001   1.00000
 This molecule is an asymmetric top.
 Rotational symmetry number  1.
 Rotational temperatures (Kelvin)      0.21032     0.08698     0.07511
 Rotational constants (GHZ):           4.38225     1.81231     1.56506
 Zero-point vibrational energy     470457.1 (Joules/Mol)
                                  112.44194 (Kcal/Mol)
 Warning -- explicit consideration of   7 degrees of freedom as
           vibrations may cause significant error
 Vibrational temperatures:    129.99   323.71   352.93   471.09   638.78
          (Kelvin)            789.99   832.76   999.06  1092.48  1114.28
                             1171.78  1229.50  1255.73  1295.05  1299.44
                             1360.03  1380.96  1418.76  1460.81  1477.48
                             1494.93  1507.43  1585.98  1602.90  1629.29
                             1654.88  1701.86  1708.57  1719.79  1738.23
                             1768.52  1802.14  1805.84  1808.31  1840.25
                             1842.07  1907.91  2118.29  2131.04  2156.78
                             2164.43  2209.01  4374.90  4380.17  4390.56
                             4392.29  4404.14  4435.48  4442.82  4447.23
                             4450.22  4483.82  4483.90  4487.36

 Zero-point correction=                           0.179188 (Hartree/Particle)
 Thermal correction to Energy=                    0.185937
 Thermal correction to Enthalpy=                  0.186881
 Thermal correction to Gibbs Free Energy=         0.148411
 Sum of electronic and zero-point Energies=           -311.807365
 Sum of electronic and thermal Energies=              -311.800617
 Sum of electronic and thermal Enthalpies=            -311.799672
 Sum of electronic and thermal Free Energies=         -311.838142

                     E (Thermal)             CV                S
                      KCal/Mol        Cal/Mol-Kelvin    Cal/Mol-Kelvin
 Total                  116.677             27.726             80.966
 Electronic               0.000              0.000              0.000
 Translational            0.889              2.981             39.950
 Rotational               0.889              2.981             27.650
 Vibrational            114.899             21.764             13.366
 Vibration     1          0.602              1.956              3.653
 Vibration     2          0.650              1.803              1.919
 Vibration     3          0.660              1.771              1.764
 Vibration     4          0.711              1.621              1.273
 Vibration     5          0.803              1.374              0.814
 Vibration     6          0.904              1.142              0.546
 Vibration     7          0.935              1.077              0.488

 Optimization completed.
    -- Stationary point found.
 Normal termination of Gaussian 16 at Sun May 28 14:02:31 2023.
