 Gaussian 16, Revision A.03,
 Gaussian 16:  ES64L-G16RevA.03 25-Dec-2016

 -----------------------------
 # opt freq b3lyp/6-31g(2df,p)
 -----------------------------

 -------------------
 Title Card Required
 -------------------
 Symbolic Z-matrix:
 Charge =  0 Multiplicity = 1

 SCF Done:  E(RB3LYP) =  -351.358827175     A.U. after   12 cycles
 SCF Done:  E(RB3LYP) =  -351.372917294     A.U. after   10 cycles
 SCF Done:  E(RB3LYP) =  -351.374020758     A.U. after   10 cycles
 SCF Done:  E(RB3LYP) =  -351.374253253     A.U. after    9 cycles
 SCF Done:  E(RB3LYP) =  -351.374308718     A.U. after    8 cycles
 SCF Done:  E(RB3LYP) =  -351.374329691     A.U. after    8 cycles
 SCF Done:  E(RB3LYP) =  -351.374333127     A.U. after    7 cycles
 SCF Done:  E(RB3LYP) =  -351.374333769     A.U. after    6 cycles
 Optimization completed.
    -- Stationary point found.
 Normal termination of Gaussian 16 at Sun May 28 10:51:48 2023.

 ----------------------------------------------------------------------
 #N Geom=AllCheck Guess=TCheck SCRF=Check GenChk RB3LYP/6-31G(2df,p) Fr
 eq
 ----------------------------------------------------------------------

 Structure from the checkpoint file:  "C1CC2C3CCqC3rC2C1.chk"
 -------------------
 Title Card Required
 -------------------
 Charge =  0 Multiplicity = 1

                         Standard orientation:
 ---------------------------------------------------------------------
 Center     Atomic      Atomic             Coordinates (Angstroms)
 Number     Number       Type             X           Y           Z
 ---------------------------------------------------------------------
      1          6           0        2.097978    0.000026    0.534846
      2          6           0        1.467618   -1.232891   -0.155443
      3          6           0        0.100202   -0.787758   -0.718656
      4          6           0       -1.160717   -1.026687    0.143338
      5          6           0       -1.026901    0.000045    1.304866
      6          6           0       -1.160902    1.026664    0.143291
      7          6           0       -2.150884   -0.000098   -0.487392
      8          6           0        0.100192    0.787725   -0.718712
      9          6           0        1.467432    1.232958   -0.155471
     10          1           0        3.189217    0.000081    0.451111
     11          1           0        1.876198    0.000030    1.605694
     12          1           0        1.379728   -2.086714    0.525117
     13          1           0        2.107643   -1.559448   -0.982619
     14          1           0       -0.056620   -1.206525   -1.717226
     15          1           0       -1.445136   -2.064341    0.326771
     16          1           0       -0.130617    0.000148    1.925447
     17          1           0       -1.911265   -0.000023    1.947281
     18          1           0       -1.445344    2.064349    0.326469
     19          1           0       -2.268297   -0.000154   -1.575883
     20          1           0       -3.129816   -0.000212   -0.001554
     21          1           0       -0.056766    1.206502   -1.717258
     22          1           0        1.379470    2.086695    0.525199
     23          1           0        2.107500    1.559720   -0.982535
 ---------------------------------------------------------------------

 SCF Done:  E(RB3LYP) =  -351.374333769     A.U. after    1 cycles

 The electronic state is 1-A.
 Alpha  occ. eigenvalues --  -10.18172 -10.18171 -10.17450 -10.17380 -10.17363
 Alpha  occ. eigenvalues --  -10.17311 -10.17097 -10.17004 -10.17001  -0.88372
 Alpha  occ. eigenvalues --   -0.79588  -0.71484  -0.69177  -0.64819  -0.63776
 Alpha  occ. eigenvalues --   -0.56916  -0.52684  -0.51519  -0.49280  -0.47669
 Alpha  occ. eigenvalues --   -0.45927  -0.42476  -0.40233  -0.38000  -0.36034
 Alpha  occ. eigenvalues --   -0.35734  -0.33209  -0.32626  -0.31378  -0.30887
 Alpha  occ. eigenvalues --   -0.29590  -0.29547  -0.29051  -0.28727
 Alpha virt. eigenvalues --    0.08316   0.09795   0.11831   0.12462   0.13436
 Alpha virt. eigenvalues --    0.15239   0.16047   0.16264   0.16268   0.16639
 Alpha virt. eigenvalues --    0.17666   0.18194   0.20223   0.20370   0.20722

 Mulliken charges:
               1
     1  C   -0.209750
     2  C   -0.230316
     3  C    0.013724
     4  C   -0.023322
     5  C   -0.229720
     6  C   -0.023350
     7  C   -0.228808
     8  C    0.013729
     9  C   -0.230319
    10  H    0.088032
    11  H    0.104950
    12  H    0.092547
    13  H    0.094357
    14  H    0.060791
    15  H    0.052157
    16  H    0.090292
    17  H    0.091818
    18  H    0.052161
    19  H    0.083132
    20  H    0.090198
    21  H    0.060790
    22  H    0.092548
    23  H    0.094358
 Sum of Mulliken charges =  -0.00000

 Dipole moment (field-independent basis, Debye):
    X=              0.0354    Y=             -0.0000    Z=             -0.0648  Tot=              0.0739
 Quadrupole moment (field-independent basis, Debye-Ang):
   XX=            -56.3495   YY=            -56.7564   ZZ=            -55.9454
   XY=              0.0002   XZ=             -0.5902   YZ=             -0.0003

  Exact polarizability:  97.199   0.000  83.767  -0.380  -0.001  81.266
 Approx polarizability: 129.305  -0.001 124.834  -0.414  -0.001 126.809

                      1                      2                      3
                      A                      A                      A
 Frequencies --    114.3536               195.3085               269.7109
 Red. masses --      2.3743                 1.6681                 2.9667
 Frc consts  --      0.0183                 0.0375                 0.1272
 IR Inten    --      0.0000                 0.0046                 0.2031

                      4                      5                      6
                      A                      A                      A
 Frequencies --    345.0283               451.1960               524.0420
 Red. masses --      2.3869                 2.5014                 1.7607
 Frc consts  --      0.1674                 0.3000                 0.2849
 IR Inten    --      0.0552                 0.3549                 0.4787

                      7                      8                      9
                      A                      A                      A
 Frequencies --    549.4883               645.3810               752.0794
 Red. masses --      3.8799                 1.9964                 2.6604
 Frc consts  --      0.6902                 0.4899                 0.8866
 IR Inten    --      0.0014                 0.8591                 0.5911

                     10                     11                     12
                      A                      A                      A
 Frequencies --    759.5670               782.4686               823.9361
 Red. masses --      2.6077                 2.4420                 2.5408
 Frc consts  --      0.8864                 0.8809                 1.0163
 IR Inten    --      0.0002                 0.0059                 0.1511

                     13                     14                     15
                      A                      A                      A
 Frequencies --    846.7324               846.7962               859.3336
 Red. masses --      2.2089                 2.4448                 2.5428
 Frc consts  --      0.9331                 1.0329                 1.1063
 IR Inten    --      1.6292                 0.0410                 2.9412

                     16                     17                     18
                      A                      A                      A
 Frequencies --    886.0625               903.0160               935.1812
 Red. masses --      2.1179                 2.6671                 1.5329
 Frc consts  --      0.9797                 1.2814                 0.7899
 IR Inten    --      0.4625                 1.1578                 0.5390

                     19                     20                     21
                      A                      A                      A
 Frequencies --    967.5196               983.4874               983.5294
 Red. masses --      2.0116                 2.0685                 1.5596
 Frc consts  --      1.1094                 1.1788                 0.8889
 IR Inten    --      0.1542                 1.0222                 0.9920

                     22                     23                     24
                      A                      A                      A
 Frequencies --   1035.6163              1047.5637              1065.3947
 Red. masses --      2.4797                 1.1061                 1.6455
 Frc consts  --      1.5669                 0.7152                 1.1004
 IR Inten    --      0.0287                 0.0215                 0.1786

                     25                     26                     27
                      A                      A                      A
 Frequencies --   1076.2670              1084.6152              1089.3248
 Red. masses --      2.2308                 1.4061                 1.2269
 Frc consts  --      1.5225                 0.9746                 0.8578
 IR Inten    --      0.0804                 0.7279                 0.0863

                     28                     29                     30
                      A                      A                      A
 Frequencies --   1111.4630              1120.8032              1171.3442
 Red. masses --      1.3510                 1.7113                 1.2813
 Frc consts  --      0.9833                 1.2666                 1.0358
 IR Inten    --      1.1980                 0.0572                 0.1849

                     31                     32                     33
                      A                      A                      A
 Frequencies --   1185.1844              1201.0653              1224.4838
 Red. masses --      1.8188                 1.3852                 1.3804
 Frc consts  --      1.5052                 1.1773                 1.2195
 IR Inten    --      2.2816                 0.7791                 0.0140

                     34                     35                     36
                      A                      A                      A
 Frequencies --   1244.4710              1247.0733              1271.7496
 Red. masses --      1.6568                 1.5673                 1.4421
 Frc consts  --      1.5118                 1.4361                 1.3742
 IR Inten    --      3.6602                 0.2606                 0.1662

                     37                     38                     39
                      A                      A                      A
 Frequencies --   1293.6918              1298.4646              1301.9202
 Red. masses --      1.4579                 1.5703                 1.4473
 Frc consts  --      1.4376                 1.5599                 1.4454
 IR Inten    --      0.5590                 0.0797                 1.6185

                     40                     41                     42
                      A                      A                      A
 Frequencies --   1325.9657              1334.1663              1347.1162
 Red. masses --      1.2473                 1.4069                 1.4176
 Frc consts  --      1.2920                 1.4755                 1.5158
 IR Inten    --      0.0029                 0.2118                 2.7863

                     43                     44                     45
                      A                      A                      A
 Frequencies --   1366.6369              1367.7566              1484.8715
 Red. masses --      1.4142                 1.5151                 1.0845
 Frc consts  --      1.5563                 1.6700                 1.4089
 IR Inten    --      3.8789                 0.8687                 0.1361

                     46                     47                     48
                      A                      A                      A
 Frequencies --   1487.0502              1493.1362              1511.5464
 Red. masses --      1.0862                 1.0885                 1.1071
 Frc consts  --      1.4151                 1.4298                 1.4903
 IR Inten    --      2.1602                 1.5875                 5.4159

                     49                     50                     51
                      A                      A                      A
 Frequencies --   1534.2478              3030.7980              3031.7722
 Red. masses --      1.1086                 1.0662                 1.0643
 Frc consts  --      1.5376                 5.7703                 5.7640
 IR Inten    --      3.3500                21.7007                 8.2960

                     52                     53                     54
                      A                      A                      A
 Frequencies --   3043.4536              3046.0626              3050.0388
 Red. masses --      1.0585                 1.0800                 1.0689
 Frc consts  --      5.7766                 5.9039                 5.8584
 IR Inten    --     34.1786                47.8967                50.9660

                     55                     56                     57
                      A                      A                      A
 Frequencies --   3061.6603              3065.2160              3069.6033
 Red. masses --      1.0779                 1.0951                 1.0659
 Frc consts  --      5.9531                 6.0622                 5.9175
 IR Inten    --     29.2440                53.6426                 6.3630

                     58                     59                     60
                      A                      A                      A
 Frequencies --   3072.3895              3093.9951              3094.1911
 Red. masses --      1.1034                 1.1045                 1.0876
 Frc consts  --      6.1366                 6.2292                 6.1349
 IR Inten    --      2.3989                81.5490               108.2172

                     61                     62                     63
                      A                      A                      A
 Frequencies --   3099.1924              3109.0394              3132.8627
 Red. masses --      1.0942                 1.1035                 1.1024
 Frc consts  --      6.1920                 6.2844                 6.3751
 IR Inten    --      5.7818                59.1999                32.4121

 - Thermochemistry -
 -------------------
 Temperature   298.150 Kelvin.  Pressure   1.00000 Atm.
 Atom     1 has atomic number  6 and mass  12.00000

 Molecular mass:   122.10955 amu.
 Principal axes and moments of inertia in atomic units:
                           1         2         3
     Eigenvalues --   584.156611130.250881273.70716
           X            0.99999   0.00000   0.00321
           Y           -0.00000   1.00000  -0.00000
           Z           -0.00321   0.00000   0.99999
 This molecule is an asymmetric top.
 Rotational symmetry number  1.
 Warning -- assumption of classical behavior for rotation
           may cause significant error
 Rotational temperatures (Kelvin)      0.14827     0.07663     0.06800
 Rotational constants (GHZ):           3.08948     1.59676     1.41692
 Zero-point vibrational energy     554753.1 (Joules/Mol)
                                  132.58918 (Kcal/Mol)
 Warning -- explicit consideration of   7 degrees of freedom as
           vibrations may cause significant error
 Vibrational temperatures:    164.53   281.01   388.05   496.42   649.17
          (Kelvin)            753.98   790.59   928.56  1082.07  1092.85
                             1125.80  1185.46  1218.26  1218.35  1236.39
                             1274.85  1299.24  1345.52  1392.04  1415.02
                             1415.08  1490.02  1507.21  1532.87  1548.51
                             1560.52  1567.30  1599.15  1612.59  1685.30
                             1705.22  1728.07  1761.76  1790.52  1794.26
                             1829.76  1861.33  1868.20  1873.17  1907.77
                             1919.57  1938.20  1966.29  1967.90  2136.40
                             2139.53  2148.29  2174.78  2207.44  4360.64
                             4362.04  4378.85  4382.60  4388.33  4405.05
                             4410.16  4416.47  4420.48  4451.57  4451.85
                             4459.05  4473.21  4507.49

 Zero-point correction=                           0.211294 (Hartree/Particle)
 Thermal correction to Energy=                    0.218269
 Thermal correction to Enthalpy=                  0.219213
 Thermal correction to Gibbs Free Energy=         0.180156
 Sum of electronic and zero-point Energies=           -351.163039
 Sum of electronic and thermal Energies=              -351.156065
 Sum of electronic and thermal Enthalpies=            -351.155121
 Sum of electronic and thermal Free Energies=         -351.194178

                     E (Thermal)             CV                S
                      KCal/Mol        Cal/Mol-Kelvin    Cal/Mol-Kelvin
 Total                  136.966             30.020             82.202
 Electronic               0.000              0.000              0.000
 Translational            0.889              2.981             40.313
 Rotational               0.889              2.981             28.221
 Vibrational            135.188             24.059             13.667
 Vibration     1          0.607              1.938              3.194
 Vibration     2          0.636              1.846              2.177
 Vibration     3          0.674              1.729              1.598
 Vibration     4          0.723              1.585              1.189
 Vibration     5          0.810              1.358              0.792
 Vibration     6          0.879              1.197              0.601
 Vibration     7          0.905              1.141              0.545

 Optimization completed.
    -- Stationary point found.
 Normal termination of Gaussian 16 at Sun May 28 11:41:24 2023.
