 Gaussian 16, Revision A.03,
 Gaussian 16:  ES64L-G16RevA.03 25-Dec-2016

 -----------------------------
 # opt freq b3lyp/6-31g(2df,p)
 -----------------------------

 -------------------
 Title Card Required
 -------------------
 Symbolic Z-matrix:
 Charge =  0 Multiplicity = 1

 SCF Done:  E(RB3LYP) =  -350.891816304     A.U. after   19 cycles
 SCF Done:  E(RB3LYP) =  -350.953127219     A.U. after   14 cycles
 SCF Done:  E(RB3LYP) =  -351.034347077     A.U. after   14 cycles
 SCF Done:  E(RB3LYP) =  -351.064517819     A.U. after   13 cycles
 SCF Done:  E(RB3LYP) =  -351.132767985     A.U. after   13 cycles
 SCF Done:  E(RB3LYP) =  -351.232299021     A.U. after   12 cycles
 SCF Done:  E(RB3LYP) =  -351.269343236     A.U. after   11 cycles
 SCF Done:  E(RB3LYP) =  -351.296513415     A.U. after   11 cycles
 SCF Done:  E(RB3LYP) =  -351.311072218     A.U. after   10 cycles
 SCF Done:  E(RB3LYP) =  -351.320212983     A.U. after   10 cycles
 SCF Done:  E(RB3LYP) =  -351.347499036     A.U. after    8 cycles
 SCF Done:  E(RB3LYP) =  -351.347719690     A.U. after    9 cycles
 SCF Done:  E(RB3LYP) =  -351.347759093     A.U. after    8 cycles
 SCF Done:  E(RB3LYP) =  -351.347815921     A.U. after    8 cycles
 SCF Done:  E(RB3LYP) =  -351.347849229     A.U. after    8 cycles
 SCF Done:  E(RB3LYP) =  -351.347858652     A.U. after    7 cycles
 SCF Done:  E(RB3LYP) =  -351.347861389     A.U. after    7 cycles
 SCF Done:  E(RB3LYP) =  -351.347861971     A.U. after    7 cycles
 SCF Done:  E(RB3LYP) =  -351.347862092     A.U. after    6 cycles
 Optimization completed.
    -- Stationary point found.
 Normal termination of Gaussian 16 at Mon May 29 00:27:11 2023.

 ----------------------------------------------------------------------
 #N Geom=AllCheck Guess=TCheck SCRF=Check GenChk RB3LYP/6-31G(2df,p) Fr
 eq
 ----------------------------------------------------------------------

 Structure from the checkpoint file:  "C1CC2qC1rCC1CC2C1.chk"
 -------------------
 Title Card Required
 -------------------
 Charge =  0 Multiplicity = 1

                         Standard orientation:
 ---------------------------------------------------------------------
 Center     Atomic      Atomic             Coordinates (Angstroms)
 Number     Number       Type             X           Y           Z
 ---------------------------------------------------------------------
      1          6           0       -2.608465    0.000121   -0.095474
      2          6           0       -1.538007    1.085342    0.195362
      3          6           0       -0.431477   -0.000140    0.043305
      4          6           0       -1.538272   -1.085268    0.195848
      5          6           0        0.361979   -0.000459   -1.309557
      6          6           0        1.800177   -0.000050   -0.755691
      7          6           0        1.705220    1.063208    0.377174
      8          6           0        0.761296    0.000140    1.011681
      9          6           0        1.705441   -1.062926    0.377541
     10          1           0       -2.916738   -0.000058   -1.144729
     11          1           0       -3.506969    0.000319    0.525939
     12          1           0       -1.599038    1.456780    1.224012
     13          1           0       -1.495370    1.945737   -0.478315
     14          1           0       -1.599478   -1.456010    1.224731
     15          1           0       -1.495776   -1.946016   -0.477372
     16          1           0        0.151766    0.884457   -1.919172
     17          1           0        0.152124   -0.886055   -1.918343
     18          1           0        2.615839   -0.000050   -1.479923
     19          1           0        1.290582    2.045885    0.132586
     20          1           0        2.641324    1.176716    0.929447
     21          1           0        0.521809    0.000309    2.076854
     22          1           0        1.291021   -2.045780    0.133275
     23          1           0        2.641551   -1.176038    0.929875
 ---------------------------------------------------------------------

 SCF Done:  E(RB3LYP) =  -351.347862092     A.U. after    1 cycles

 The electronic state is 1-A.
 Alpha  occ. eigenvalues --  -10.18423 -10.18268 -10.18026 -10.17503 -10.17502
 Alpha  occ. eigenvalues --  -10.17373 -10.17177 -10.17040 -10.17039  -0.88561
 Alpha  occ. eigenvalues --   -0.81953  -0.70025  -0.66683  -0.66069  -0.64094
 Alpha  occ. eigenvalues --   -0.57792  -0.53887  -0.51224  -0.49050  -0.46835
 Alpha  occ. eigenvalues --   -0.44991  -0.43408  -0.40787  -0.38381  -0.36214
 Alpha  occ. eigenvalues --   -0.35123  -0.34767  -0.33570  -0.31488  -0.30840
 Alpha  occ. eigenvalues --   -0.29972  -0.28932  -0.27816  -0.27790
 Alpha virt. eigenvalues --    0.08510   0.09748   0.11210   0.12494   0.12876
 Alpha virt. eigenvalues --    0.13880   0.14157   0.16221   0.16369   0.16998
 Alpha virt. eigenvalues --    0.18469   0.18754   0.19405   0.19914   0.20162

 Mulliken charges:
               1
     1  C   -0.211586
     2  C   -0.291000
     3  C    0.423169
     4  C   -0.291046
     5  C   -0.287168
     6  C   -0.009685
     7  C   -0.230088
     8  C   -0.080704
     9  C   -0.230086
    10  H    0.101143
    11  H    0.093575
    12  H    0.093182
    13  H    0.090930
    14  H    0.093187
    15  H    0.090929
    16  H    0.091746
    17  H    0.091747
    18  H    0.054728
    19  H    0.087881
    20  H    0.091656
    21  H    0.047968
    22  H    0.087873
    23  H    0.091648
 Sum of Mulliken charges =  -0.00000

 Dipole moment (field-independent basis, Debye):
    X=              0.1033    Y=              0.0000    Z=              0.0221  Tot=              0.1057
 Quadrupole moment (field-independent basis, Debye-Ang):
   XX=            -56.8697   YY=            -56.8734   ZZ=            -55.8493
   XY=              0.0003   XZ=              0.1266   YZ=              0.0003

  Exact polarizability:  99.619   0.000  84.346   0.299   0.000  81.772
 Approx polarizability: 128.816   0.001 127.760  -0.033   0.001 125.801

                      1                      2                      3
                      A                      A                      A
 Frequencies --     96.8048               132.1681               239.5531
 Red. masses --      2.0176                 2.7915                 2.2597
 Frc consts  --      0.0111                 0.0287                 0.0764
 IR Inten    --      0.0046                 0.0090                 0.0298

                      4                      5                      6
                      A                      A                      A
 Frequencies --    357.5964               398.0682               419.4773
 Red. masses --      2.0772                 3.4517                 1.6923
 Frc consts  --      0.1565                 0.3222                 0.1754
 IR Inten    --      0.0734                 0.0550                 0.0311

                      7                      8                      9
                      A                      A                      A
 Frequencies --    480.5007               517.9136               665.0468
 Red. masses --      2.7754                 1.9211                 1.8118
 Frc consts  --      0.3775                 0.3036                 0.4721
 IR Inten    --      0.1551                 0.0432                 0.9379

                     10                     11                     12
                      A                      A                      A
 Frequencies --    730.1715               789.6433               816.5211
 Red. masses --      2.1280                 1.2628                 3.1496
 Frc consts  --      0.6685                 0.4639                 1.2372
 IR Inten    --      0.5241                 0.0784                 1.6129

                     13                     14                     15
                      A                      A                      A
 Frequencies --    847.7662               851.6426               860.4302
 Red. masses --      2.4950                 1.8472                 2.3682
 Frc consts  --      1.0565                 0.7894                 1.0330
 IR Inten    --      0.0000                 0.3527                 1.9084

                     16                     17                     18
                      A                      A                      A
 Frequencies --    877.6356               905.4870               916.2544
 Red. masses --      2.2740                 1.7494                 2.2487
 Frc consts  --      1.0320                 0.8451                 1.1123
 IR Inten    --      1.1762                 0.2467                 0.1511

                     19                     20                     21
                      A                      A                      A
 Frequencies --    942.8704               953.6668               972.8420
 Red. masses --      2.4004                 2.1655                 2.6949
 Frc consts  --      1.2573                 1.1604                 1.5027
 IR Inten    --      1.2230                 1.0005                 0.0895

                     22                     23                     24
                      A                      A                      A
 Frequencies --    992.6436              1010.1345              1032.2595
 Red. masses --      1.3912                 1.2925                 2.1925
 Frc consts  --      0.8076                 0.7771                 1.3765
 IR Inten    --      0.2926                 0.3881                 0.6161

                     25                     26                     27
                      A                      A                      A
 Frequencies --   1065.0646              1074.5375              1081.1213
 Red. masses --      1.1596                 1.6016                 1.3878
 Frc consts  --      0.7750                 1.0895                 0.9557
 IR Inten    --      0.0431                 1.1537                 1.7731

                     28                     29                     30
                      A                      A                      A
 Frequencies --   1084.9032              1146.2993              1156.1547
 Red. masses --      1.1398                 2.0571                 2.1787
 Frc consts  --      0.7904                 1.5926                 1.7159
 IR Inten    --      0.3710                 0.8380                 2.8705

                     31                     32                     33
                      A                      A                      A
 Frequencies --   1192.5204              1196.2590              1212.5451
 Red. masses --      1.3222                 2.2754                 1.3831
 Frc consts  --      1.1079                 1.9185                 1.1981
 IR Inten    --      0.0102                 0.0962                 1.1803

                     34                     35                     36
                      A                      A                      A
 Frequencies --   1227.7658              1242.3835              1247.7753
 Red. masses --      1.3870                 1.6173                 1.6529
 Frc consts  --      1.2318                 1.4708                 1.5163
 IR Inten    --      0.0943                 1.0233                 1.9607

                     37                     38                     39
                      A                      A                      A
 Frequencies --   1256.8767              1273.2560              1280.5557
 Red. masses --      1.2360                 1.4417                 1.4349
 Frc consts  --      1.1504                 1.3771                 1.3863
 IR Inten    --      0.2705                 0.1693                 2.6457

                     40                     41                     42
                      A                      A                      A
 Frequencies --   1282.9693              1290.6885              1317.7674
 Red. masses --      1.6243                 1.6911                 1.7908
 Frc consts  --      1.5752                 1.6598                 1.8322
 IR Inten    --      0.0444                 2.8699                 1.0902

                     43                     44                     45
                      A                      A                      A
 Frequencies --   1346.1933              1474.9104              1481.6334
 Red. masses --      1.8512                 1.0886                 1.0826
 Frc consts  --      1.9766                 1.3952                 1.4003
 IR Inten    --      0.4220                 1.0129                 1.8341

                     46                     47                     48
                      A                      A                      A
 Frequencies --   1486.9360              1493.2442              1506.7098
 Red. masses --      1.0952                 1.0954                 1.1298
 Frc consts  --      1.4267                 1.4390                 1.5112
 IR Inten    --      1.7578                 0.3835                 0.3419

                     49                     50                     51
                      A                      A                      A
 Frequencies --   1523.6065              3036.6061              3036.9449
 Red. masses --      1.1228                 1.0583                 1.0576
 Frc consts  --      1.5357                 5.7497                 5.7469
 IR Inten    --      0.7811                40.1689                39.6117

                     52                     53                     54
                      A                      A                      A
 Frequencies --   3042.0431              3047.2829              3051.0116
 Red. masses --      1.0593                 1.0566                 1.0582
 Frc consts  --      5.7756                 5.7805                 5.8035
 IR Inten    --      1.8534                86.3605                 8.0779

                     55                     56                     57
                      A                      A                      A
 Frequencies --   3057.5000              3078.8752              3085.7172
 Red. masses --      1.0619                 1.1067                 1.1033
 Frc consts  --      5.8487                 6.1811                 6.1893
 IR Inten    --     43.7329                17.5833                12.0017

                     58                     59                     60
                      A                      A                      A
 Frequencies --   3091.2998              3092.1717              3102.7940
 Red. masses --      1.1065                 1.0902                 1.0927
 Frc consts  --      6.2301                 6.1414                 6.1982
 IR Inten    --     23.2602                55.5193                40.1258

                     61                     62                     63
                      A                      A                      A
 Frequencies --   3107.6558              3112.2531              3113.7128
 Red. masses --      1.1091                 1.1060                 1.1052
 Frc consts  --      6.3110                 6.3119                 6.3134
 IR Inten    --     14.8903                72.6396                67.8074

 - Thermochemistry -
 -------------------
 Temperature   298.150 Kelvin.  Pressure   1.00000 Atm.
 Atom     1 has atomic number  6 and mass  12.00000

 Molecular mass:   122.10955 amu.
 Principal axes and moments of inertia in atomic units:
                           1         2         3
     Eigenvalues --   518.223161350.392161404.28797
           X            0.99999  -0.00000   0.00357
           Y            0.00000   1.00000   0.00001
           Z           -0.00357  -0.00001   0.99999
 This molecule is an asymmetric top.
 Rotational symmetry number  1.
 Warning -- assumption of classical behavior for rotation
           may cause significant error
 Rotational temperatures (Kelvin)      0.16714     0.06414     0.06168
 Rotational constants (GHZ):           3.48256     1.33646     1.28516
 Zero-point vibrational energy     549119.7 (Joules/Mol)
                                  131.24275 (Kcal/Mol)
 Warning -- explicit consideration of   8 degrees of freedom as
           vibrations may cause significant error
 Vibrational temperatures:    139.28   190.16   344.66   514.50   572.73
          (Kelvin)            603.53   691.33   745.16   956.85  1050.55
                             1136.12  1174.79  1219.75  1225.32  1237.97
                             1262.72  1302.79  1318.29  1356.58  1372.11
                             1399.70  1428.19  1453.36  1485.19  1532.39
                             1546.02  1555.49  1560.93  1649.27  1663.45
                             1715.77  1721.15  1744.58  1766.48  1787.51
                             1795.27  1808.37  1831.93  1842.43  1845.91
                             1857.01  1895.97  1936.87  2122.07  2131.74
                             2139.37  2148.45  2167.82  2192.13  4369.00
                             4369.49  4376.82  4384.36  4389.73  4399.06
                             4429.81  4439.66  4447.69  4448.95  4464.23
                             4471.22  4477.84  4479.94

 Zero-point correction=                           0.209149 (Hartree/Particle)
 Thermal correction to Energy=                    0.216634
 Thermal correction to Enthalpy=                  0.217578
 Thermal correction to Gibbs Free Energy=         0.177342
 Sum of electronic and zero-point Energies=           -351.138713
 Sum of electronic and thermal Energies=              -351.131228
 Sum of electronic and thermal Enthalpies=            -351.130284
 Sum of electronic and thermal Free Energies=         -351.170520

                     E (Thermal)             CV                S
                      KCal/Mol        Cal/Mol-Kelvin    Cal/Mol-Kelvin
 Total                  135.940             31.486             84.684
 Electronic               0.000              0.000              0.000
 Translational            0.889              2.981             40.313
 Rotational               0.889              2.981             28.376
 Vibrational            134.163             25.525             15.994
 Vibration     1          0.603              1.951              3.518
 Vibration     2          0.612              1.921              2.914
 Vibration     3          0.657              1.780              1.806
 Vibration     4          0.733              1.560              1.133
 Vibration     5          0.764              1.474              0.970
 Vibration     6          0.782              1.428              0.894
 Vibration     7          0.837              1.293              0.709
 Vibration     8          0.873              1.210              0.615

 Optimization completed.
    -- Stationary point found.
 Normal termination of Gaussian 16 at Mon May 29 01:09:28 2023.
