 Gaussian 16, Revision A.03,
 Gaussian 16:  ES64L-G16RevA.03 25-Dec-2016

 -----------------------------
 # opt freq b3lyp/6-31g(2df,p)
 -----------------------------

 -------------------
 Title Card Required
 -------------------
 Symbolic Z-matrix:
 Charge =  0 Multiplicity = 1

 SCF Done:  E(RB3LYP) =  -541.832241677     A.U. after   12 cycles
 SCF Done:  E(RB3LYP) =  -541.858719854     A.U. after   11 cycles
 SCF Done:  E(RB3LYP) =  -541.877196464     A.U. after   11 cycles
 SCF Done:  E(RB3LYP) =  -541.888085820     A.U. after   11 cycles
 SCF Done:  E(RB3LYP) =  -541.898538167     A.U. after   11 cycles
 SCF Done:  E(RB3LYP) =  -541.903377694     A.U. after   11 cycles
 SCF Done:  E(RB3LYP) =  -541.905072118     A.U. after   10 cycles
 SCF Done:  E(RB3LYP) =  -541.905833607     A.U. after   10 cycles
 SCF Done:  E(RB3LYP) =  -541.906347845     A.U. after   10 cycles
 SCF Done:  E(RB3LYP) =  -541.906718160     A.U. after    9 cycles
 SCF Done:  E(RB3LYP) =  -541.909827326     A.U. after    9 cycles
 SCF Done:  E(RB3LYP) =  -541.909850633     A.U. after    8 cycles
 SCF Done:  E(RB3LYP) =  -541.909858704     A.U. after    8 cycles
 SCF Done:  E(RB3LYP) =  -541.909867318     A.U. after    9 cycles
 SCF Done:  E(RB3LYP) =  -541.909875684     A.U. after    9 cycles
 SCF Done:  E(RB3LYP) =  -541.909878578     A.U. after    9 cycles
 SCF Done:  E(RB3LYP) =  -541.909879300     A.U. after    7 cycles
 SCF Done:  E(RB3LYP) =  -541.909879378     A.U. after    6 cycles
 SCF Done:  E(RB3LYP) =  -541.909879431     A.U. after    6 cycles
 Optimization completed.
    -- Stationary point found.
 Normal termination of Gaussian 16 at Sat May 27 20:59:55 2023.

 ----------------------------------------------------------------------
 #N Geom=AllCheck Guess=TCheck SCRF=Check GenChk RB3LYP/6-31G(2df,p) Fr
 eq
 ----------------------------------------------------------------------

 Structure from the checkpoint file:  "C1CCCNN2CCCC2CCC1.chk"
 -------------------
 Title Card Required
 -------------------
 Charge =  0 Multiplicity = 1

                         Standard orientation:
 ---------------------------------------------------------------------
 Center     Atomic      Atomic             Coordinates (Angstroms)
 Number     Number       Type             X           Y           Z
 ---------------------------------------------------------------------
      1          6           0        2.942090    0.945232    0.196085
      2          6           0        3.139182   -0.544230    0.550231
      3          6           0        2.435338   -1.634528   -0.289760
      4          6           0        0.954592   -1.916514    0.017524
      5          7           0        0.073791   -0.911895   -0.574808
      6          7           0       -1.114115   -0.658603    0.119408
      7          6           0       -2.303813   -1.387826   -0.304512
      8          6           0       -3.425192   -0.666931    0.441077
      9          6           0       -2.987676    0.805901    0.344127
     10          6           0       -1.440940    0.770799    0.381422
     11          6           0       -0.825306    1.835134   -0.550339
     12          6           0        0.710644    1.871116   -0.723718
     13          6           0        1.557117    1.557516    0.525961
     14          1           0        3.169114    1.094154   -0.868094
     15          1           0        3.718159    1.498425    0.738638
     16          1           0        2.878799   -0.694556    1.607745
     17          1           0        4.216602   -0.744000    0.483445
     18          1           0        2.980424   -2.573198   -0.125464
     19          1           0        2.546114   -1.411943   -1.360303
     20          1           0        0.780891   -1.885990    1.097408
     21          1           0        0.709852   -2.941330   -0.311947
     22          1           0       -0.102112   -1.108050   -1.559479
     23          1           0       -2.221472   -2.449556   -0.045776
     24          1           0       -2.462457   -1.328185   -1.401212
     25          1           0       -3.446003   -0.997583    1.484627
     26          1           0       -4.412412   -0.848596    0.008800
     27          1           0       -3.409796    1.430749    1.135292
     28          1           0       -3.322157    1.224925   -0.612449
     29          1           0       -1.106281    1.001107    1.402091
     30          1           0       -1.172912    2.798864   -0.151904
     31          1           0       -1.280072    1.749608   -1.546730
     32          1           0        0.986162    2.864462   -1.103404
     33          1           0        0.984013    1.162078   -1.504397
     34          1           0        1.021713    0.864328    1.178209
     35          1           0        1.689889    2.473766    1.114124
 ---------------------------------------------------------------------

 SCF Done:  E(RB3LYP) =  -541.909879431     A.U. after    1 cycles

 The electronic state is 1-A.
 Alpha  occ. eigenvalues --  -14.32705 -14.32594 -10.19877 -10.19779 -10.19379
 Alpha  occ. eigenvalues --  -10.17821 -10.17528 -10.17167 -10.17002 -10.16842
 Alpha  occ. eigenvalues --  -10.16575 -10.15985 -10.15965  -0.96673  -0.84411
 Alpha  occ. eigenvalues --   -0.79195  -0.76742  -0.74437  -0.71857  -0.69034
 Alpha  occ. eigenvalues --   -0.64818  -0.61422  -0.58193  -0.57249  -0.55487
 Alpha  occ. eigenvalues --   -0.54318  -0.50037  -0.48435  -0.46906  -0.44707
 Alpha  occ. eigenvalues --   -0.42895  -0.42523  -0.42072  -0.40356  -0.39265
 Alpha  occ. eigenvalues --   -0.39082  -0.38078  -0.37856  -0.36770  -0.34937
 Alpha  occ. eigenvalues --   -0.34048  -0.33691  -0.33221  -0.32484  -0.31680
 Alpha  occ. eigenvalues --   -0.31116  -0.30136  -0.29256  -0.29015  -0.21840
 Alpha  occ. eigenvalues --   -0.19442
 Alpha virt. eigenvalues --    0.07646   0.09226   0.09975   0.10713   0.11605
 Alpha virt. eigenvalues --    0.12129   0.13285   0.14420   0.14863   0.15477
 Alpha virt. eigenvalues --    0.15673   0.15971   0.16773   0.17156   0.17736

 Mulliken charges:
               1
     1  C   -0.183211
     2  C   -0.176509
     3  C   -0.180675
     4  C   -0.112334
     5  N   -0.286165
     6  N   -0.051273
     7  C   -0.145951
     8  C   -0.218434
     9  C   -0.236317
    10  C    0.083664
    11  C   -0.216393
    12  C   -0.165842
    13  C   -0.167116
    14  H    0.086977
    15  H    0.086064
    16  H    0.089373
    17  H    0.086705
    18  H    0.087077
    19  H    0.086466
    20  H    0.105252
    21  H    0.072438
    22  H    0.200504
    23  H    0.097814
    24  H    0.066072
    25  H    0.106092
    26  H    0.096040
    27  H    0.097757
    28  H    0.096714
    29  H    0.072279
    30  H    0.092271
    31  H    0.082118
    32  H    0.072052
    33  H    0.095646
    34  H    0.102616
    35  H    0.078228
 Sum of Mulliken charges =  -0.00000

 Dipole moment (field-independent basis, Debye):
    X=             -0.7357    Y=             -0.5638    Z=             -0.5296  Tot=              1.0676
 Quadrupole moment (field-independent basis, Debye-Ang):
   XX=            -81.3555   YY=            -82.3159   ZZ=            -81.4178
   XY=             -0.6799   XZ=              0.3719   YZ=              1.5117

  Exact polarizability: 151.934  -1.356 132.193  -0.001   1.811 108.175
 Approx polarizability: 185.590  -2.094 182.165  -1.014   2.693 178.689

                      1                      2                      3
                      A                      A                      A
 Frequencies --     31.1712                86.5266                96.1876
 Red. masses --      2.6436                 2.5195                 2.7900
 Frc consts  --      0.0015                 0.0111                 0.0152
 IR Inten    --      0.1668                 0.0585                 0.2328

                      4                      5                      6
                      A                      A                      A
 Frequencies --    140.9914               155.4147               211.7691
 Red. masses --      3.0089                 2.3720                 2.2931
 Frc consts  --      0.0352                 0.0338                 0.0606
 IR Inten    --      1.5459                 0.2149                 0.7047

                      7                      8                      9
                      A                      A                      A
 Frequencies --    226.6486               256.8251               266.1774
 Red. masses --      2.2120                 3.1333                 2.1658
 Frc consts  --      0.0669                 0.1218                 0.0904
 IR Inten    --      0.0375                 0.3698                 1.5729

                     10                     11                     12
                      A                      A                      A
 Frequencies --    293.4420               339.5382               351.9764
 Red. masses --      1.7553                 2.1719                 2.1107
 Frc consts  --      0.0891                 0.1475                 0.1541
 IR Inten    --      0.1199                 1.8050                 2.2311

                     13                     14                     15
                      A                      A                      A
 Frequencies --    366.9610               373.0784               445.3196
 Red. masses --      2.9659                 3.1191                 1.7064
 Frc consts  --      0.2353                 0.2558                 0.1994
 IR Inten    --      0.2282                 0.0462                 0.2309

                     16                     17                     18
                      A                      A                      A
 Frequencies --    470.3570               555.1046               588.7095
 Red. masses --      2.8409                 2.8106                 2.1743
 Frc consts  --      0.3703                 0.5103                 0.4440
 IR Inten    --      1.3045                 0.6719                 1.5383

                     19                     20                     21
                      A                      A                      A
 Frequencies --    612.2462               689.0812               721.4393
 Red. masses --      3.1628                 1.7390                 1.6116
 Frc consts  --      0.6985                 0.4865                 0.4942
 IR Inten    --      6.3624                18.0497                25.5854

                     22                     23                     24
                      A                      A                      A
 Frequencies --    736.1952               783.0204               811.3810
 Red. masses --      2.1204                 1.6446                 1.6333
 Frc consts  --      0.6771                 0.5941                 0.6335
 IR Inten    --     11.6446                22.4069                 0.5765

                     25                     26                     27
                      A                      A                      A
 Frequencies --    853.6418               862.9161               875.6732
 Red. masses --      1.8369                 1.7285                 1.5470
 Frc consts  --      0.7887                 0.7583                 0.6989
 IR Inten    --      1.9256                 1.5363                 0.6270

                     28                     29                     30
                      A                      A                      A
 Frequencies --    911.4145               915.0853               934.4834
 Red. masses --      2.7233                 1.7890                 2.4224
 Frc consts  --      1.3329                 0.8827                 1.2463
 IR Inten    --      5.2717                 1.1486                 1.9212

                     31                     32                     33
                      A                      A                      A
 Frequencies --    951.8201               965.5584               984.1943
 Red. masses --      2.1037                 2.0153                 1.7078
 Frc consts  --      1.1229                 1.1070                 0.9746
 IR Inten    --      4.0502                 2.6785                 2.1514

                     34                     35                     36
                      A                      A                      A
 Frequencies --   1010.7500              1032.6870              1047.7003
 Red. masses --      1.9585                 2.2513                 2.0151
 Frc consts  --      1.1789                 1.4145                 1.3032
 IR Inten    --      3.2334                 2.7048                 1.0291

                     37                     38                     39
                      A                      A                      A
 Frequencies --   1056.8926              1092.1818              1095.8539
 Red. masses --      2.2684                 2.4562                 2.1841
 Frc consts  --      1.4929                 1.7263                 1.5454
 IR Inten    --      4.0592                 3.7757                 1.4433

                     40                     41                     42
                      A                      A                      A
 Frequencies --   1115.7354              1121.3455              1138.5929
 Red. masses --      2.0051                 2.0555                 2.2831
 Frc consts  --      1.4706                 1.5228                 1.7438
 IR Inten    --      0.1455                 3.3120                 6.1437

                     43                     44                     45
                      A                      A                      A
 Frequencies --   1164.9210              1173.2907              1203.6072
 Red. masses --      1.8383                 2.8549                 1.4854
 Frc consts  --      1.4698                 2.3155                 1.2678
 IR Inten    --      9.9166                16.1974                 2.2744

                     46                     47                     48
                      A                      A                      A
 Frequencies --   1212.9239              1217.7218              1236.5262
 Red. masses --      1.3692                 1.4375                 1.8488
 Frc consts  --      1.1868                 1.2559                 1.6655
 IR Inten    --      4.3536                 3.1083                 0.5140

                     49                     50                     51
                      A                      A                      A
 Frequencies --   1249.7010              1276.9047              1278.5723
 Red. masses --      1.3318                 1.2061                 1.3320
 Frc consts  --      1.2254                 1.1586                 1.2829
 IR Inten    --      2.7360                 4.7225                 2.4405

                     52                     53                     54
                      A                      A                      A
 Frequencies --   1289.3319              1306.8141              1311.3652
 Red. masses --      1.2922                 1.2357                 1.1744
 Frc consts  --      1.2656                 1.2434                 1.1899
 IR Inten    --      1.6703                 0.1399                 0.8301

                     55                     56                     57
                      A                      A                      A
 Frequencies --   1327.4371              1339.7034              1344.2500
 Red. masses --      1.2293                 1.3107                 1.2435
 Frc consts  --      1.2763                 1.3861                 1.3239
 IR Inten    --      0.3521                 1.6046                 1.3622

                     58                     59                     60
                      A                      A                      A
 Frequencies --   1356.6696              1370.4839              1380.1942
 Red. masses --      1.2085                 1.4438                 1.3436
 Frc consts  --      1.3105                 1.5977                 1.5080
 IR Inten    --      4.5952                 1.4953                 0.7781

                     61                     62                     63
                      A                      A                      A
 Frequencies --   1382.0011              1385.2005              1389.2164
 Red. masses --      1.4310                 1.3595                 1.3175
 Frc consts  --      1.6103                 1.5369                 1.4981
 IR Inten    --      2.7423                 4.9227                10.9755

                     64                     65                     66
                      A                      A                      A
 Frequencies --   1397.7584              1404.7415              1408.4839
 Red. masses --      1.3211                 1.3510                 1.3278
 Frc consts  --      1.5207                 1.5707                 1.5520
 IR Inten    --     18.2381                 7.4112                 6.6358

                     67                     68                     69
                      A                      A                      A
 Frequencies --   1471.6064              1475.9887              1480.6452
 Red. masses --      1.0984                 1.0774                 1.0920
 Frc consts  --      1.4015                 1.3829                 1.4105
 IR Inten    --      4.0711                 0.6355                 3.1175

                     70                     71                     72
                      A                      A                      A
 Frequencies --   1487.0080              1489.7662              1491.4913
 Red. masses --      1.0871                 1.0877                 1.0781
 Frc consts  --      1.4163                 1.4223                 1.4130
 IR Inten    --      1.5654                 0.9653                 5.5416

                     73                     74                     75
                      A                      A                      A
 Frequencies --   1496.8585              1498.0951              1502.8771
 Red. masses --      1.1075                 1.0924                 1.0894
 Frc consts  --      1.4620                 1.4445                 1.4497
 IR Inten    --      3.8962                 0.3805                 6.9283

                     76                     77                     78
                      A                      A                      A
 Frequencies --   1508.8543              1534.3994              2884.1561
 Red. masses --      1.1520                 1.1225                 1.0734
 Frc consts  --      1.5452                 1.5571                 5.2609
 IR Inten    --      1.3053                 3.7397                88.5758

                     79                     80                     81
                      A                      A                      A
 Frequencies --   2940.2956              2985.7949              2997.1068
 Red. masses --      1.0728                 1.0834                 1.0633
 Frc consts  --      5.4646                 5.6906                 5.6273
 IR Inten    --     82.8004                24.5321                24.4826

                     82                     83                     84
                      A                      A                      A
 Frequencies --   3000.6385              3007.8645              3010.8398
 Red. masses --      1.0619                 1.0656                 1.0635
 Frc consts  --      5.6335                 5.6802                 5.6800
 IR Inten    --     20.3509                25.2338                22.6284

                     85                     86                     87
                      A                      A                      A
 Frequencies --   3013.2935              3028.1222              3032.3373
 Red. masses --      1.0719                 1.0760                 1.0799
 Frc consts  --      5.7346                 5.8131                 5.8505
 IR Inten    --     35.6105                26.9758                47.7012

                     88                     89                     90
                      A                      A                      A
 Frequencies --   3036.6215              3042.1932              3042.3623
 Red. masses --      1.0864                 1.0790                 1.0946
 Frc consts  --      5.9022                 5.8834                 5.9696
 IR Inten    --     39.2791                 5.9063                58.1541

                     91                     92                     93
                      A                      A                      A
 Frequencies --   3043.7585              3052.4192              3055.6311
 Red. masses --      1.0972                 1.0956                 1.0707
 Frc consts  --      5.9890                 6.0144                 5.8900
 IR Inten    --     61.9589                70.3175                59.8757

                     94                     95                     96
                      A                      A                      A
 Frequencies --   3082.1431              3091.9577              3097.1286
 Red. masses --      1.0883                 1.0961                 1.0889
 Frc consts  --      6.0911                 6.1741                 6.1541
 IR Inten    --     19.6030                30.7890                41.3858

                     97                     98                     99
                      A                      A                      A
 Frequencies --   3104.6231              3119.7738              3424.3471
 Red. masses --      1.1050                 1.0894                 1.0734
 Frc consts  --      6.2751                 6.2470                 7.4161
 IR Inten    --     43.3102                36.7922                 9.3310

 - Thermochemistry -
 -------------------
 Temperature   298.150 Kelvin.  Pressure   1.00000 Atm.
 Atom     1 has atomic number  6 and mass  12.00000

 Molecular mass:   182.17830 amu.
 Principal axes and moments of inertia in atomic units:
                           1         2         3
     Eigenvalues --  1383.660363214.430514197.92326
           X            0.99999  -0.00280   0.00164
           Y            0.00280   1.00000  -0.00003
           Z           -0.00164   0.00004   1.00000
 This molecule is an asymmetric top.
 Rotational symmetry number  1.
 Warning -- assumption of classical behavior for rotation
           may cause significant error
 Rotational temperatures (Kelvin)      0.06260     0.02695     0.02063
 Rotational constants (GHZ):           1.30432     0.56145     0.42991
 Zero-point vibrational energy     852428.4 (Joules/Mol)
                                  203.73529 (Kcal/Mol)
 Warning -- explicit consideration of  19 degrees of freedom as
           vibrations may cause significant error
 Vibrational temperatures:     44.85   124.49   138.39   202.86   223.61
          (Kelvin)            304.69   326.10   369.51   382.97   422.20
                              488.52   506.42   527.97   536.78   640.72
                              676.74   798.67   847.02   880.89   991.43
                             1037.99  1059.22  1126.59  1167.40  1228.20
                             1241.54  1259.90  1311.32  1316.60  1344.51
                             1369.46  1389.22  1416.04  1454.24  1485.81
                             1507.41  1520.63  1571.41  1576.69  1605.29
                             1613.37  1638.18  1676.06  1688.10  1731.72
                             1745.13  1752.03  1779.09  1798.04  1837.18
                             1839.58  1855.06  1880.21  1886.76  1909.89
                             1927.53  1934.08  1951.94  1971.82  1985.79
                             1988.39  1992.99  1998.77  2011.06  2021.11
                             2026.49  2117.31  2123.62  2130.32  2139.47
                             2143.44  2145.92  2153.65  2155.42  2162.30
                             2170.90  2207.66  4149.66  4230.43  4295.89
                             4312.17  4317.25  4327.65  4331.93  4335.46
                             4356.79  4362.86  4369.02  4377.04  4377.28
                             4379.29  4391.75  4396.37  4434.52  4448.64
                             4456.08  4466.86  4488.66  4926.87

 Zero-point correction=                           0.324673 (Hartree/Particle)
 Thermal correction to Energy=                    0.337555
 Thermal correction to Enthalpy=                  0.338499
 Thermal correction to Gibbs Free Energy=         0.285607
 Sum of electronic and zero-point Energies=           -541.585207
 Sum of electronic and thermal Energies=              -541.572324
 Sum of electronic and thermal Enthalpies=            -541.571380
 Sum of electronic and thermal Free Energies=         -541.624272

                     E (Thermal)             CV                S
                      KCal/Mol        Cal/Mol-Kelvin    Cal/Mol-Kelvin
 Total                  211.819             51.703            111.320
 Electronic               0.000              0.000              0.000
 Translational            0.889              2.981             41.506
 Rotational               0.889              2.981             31.302
 Vibrational            210.042             45.741             38.513
 Vibration     1          0.594              1.983              5.753
 Vibration     2          0.601              1.959              3.737
 Vibration     3          0.603              1.952              3.530
 Vibration     4          0.615              1.912              2.790
 Vibration     5          0.620              1.897              2.605
 Vibration     6          0.643              1.823              2.028
 Vibration     7          0.650              1.800              1.905
 Vibration     8          0.666              1.751              1.683
 Vibration     9          0.672              1.735              1.621
 Vibration    10          0.688              1.686              1.454
 Vibration    11          0.719              1.596              1.214
 Vibration    12          0.729              1.571              1.157
 Vibration    13          0.740              1.540              1.092
 Vibration    14          0.744              1.527              1.067
 Vibration    15          0.805              1.371              0.810
 Vibration    16          0.827              1.316              0.737
 Vibration    17          0.911              1.129              0.534
 Vibration    18          0.946              1.056              0.469
 Vibration    19          0.971              1.006              0.429

 Optimization completed.
    -- Stationary point found.
 Normal termination of Gaussian 16 at Sat May 27 23:09:19 2023.
