 Gaussian 16, Revision A.03,
 Gaussian 16:  ES64L-G16RevA.03 25-Dec-2016

 -----------------------------
 # opt freq b3lyp/6-31g(2df,p)
 -----------------------------

 -------------------
 Title Card Required
 -------------------
 Symbolic Z-matrix:
 Charge =  0 Multiplicity = 1

 SCF Done:  E(RB3LYP) =  -349.813480547     A.U. after   14 cycles
 SCF Done:  E(RB3LYP) =  -349.882105295     A.U. after   13 cycles
 SCF Done:  E(RB3LYP) =  -349.955210363     A.U. after   12 cycles
 SCF Done:  E(RB3LYP) =  -349.973349044     A.U. after   11 cycles
 SCF Done:  E(RB3LYP) =  -349.975349541     A.U. after   12 cycles
 SCF Done:  E(RB3LYP) =  -350.027945134     A.U. after   11 cycles
 SCF Done:  E(RB3LYP) =  -350.090345786     A.U. after   11 cycles
 SCF Done:  E(RB3LYP) =  -350.109556645     A.U. after   10 cycles
 SCF Done:  E(RB3LYP) =  -350.120537142     A.U. after   10 cycles
 SCF Done:  E(RB3LYP) =  -350.123272399     A.U. after   10 cycles
 SCF Done:  E(RB3LYP) =  -350.124569523     A.U. after   10 cycles
 SCF Done:  E(RB3LYP) =  -350.124809388     A.U. after    9 cycles
 SCF Done:  E(RB3LYP) =  -350.124881350     A.U. after    8 cycles
 SCF Done:  E(RB3LYP) =  -350.124888338     A.U. after    7 cycles
 SCF Done:  E(RB3LYP) =  -350.124888759     A.U. after    6 cycles
 Optimization completed.
    -- Stationary point found.
 Normal termination of Gaussian 16 at Sun May 28 14:40:37 2023.

 ----------------------------------------------------------------------
 #N Geom=AllCheck Guess=TCheck SCRF=Check GenChk RB3LYP/6-31G(2df,p) Fr
 eq
 ----------------------------------------------------------------------

 Structure from the checkpoint file:  "C1CC23CCC4C2C1C43.chk"
 -------------------
 Title Card Required
 -------------------
 Charge =  0 Multiplicity = 1

                         Standard orientation:
 ---------------------------------------------------------------------
 Center     Atomic      Atomic             Coordinates (Angstroms)
 Number     Number       Type             X           Y           Z
 ---------------------------------------------------------------------
      1          6           0       -2.242670   -0.035901    0.000244
      2          6           0       -1.387466    1.275454    0.000040
      3          6           0       -0.000022    0.656038    0.000152
      4          6           0        1.387480    1.275504   -0.000049
      5          6           0        2.242677   -0.035956    0.000196
      6          6           0        1.130692   -1.100629   -0.000303
      7          6           0        0.000041   -0.605600    0.937645
      8          6           0       -1.130681   -1.100652   -0.000089
      9          6           0       -0.000050   -0.605208   -0.937912
     10          1           0       -2.887730   -0.112804   -0.881335
     11          1           0       -2.887011   -0.112802    0.882361
     12          1           0       -1.571784    1.897272    0.882479
     13          1           0       -1.571454    1.896542   -0.883004
     14          1           0        1.571827    1.897293    0.882393
     15          1           0        1.571443    1.896550   -0.883123
     16          1           0        2.886637   -0.112937    0.882597
     17          1           0        2.888117   -0.112678   -0.881097
     18          1           0        1.426364   -2.151599   -0.000254
     19          1           0        0.000456   -0.586148    2.031136
     20          1           0       -1.426420   -2.151590   -0.000286
     21          1           0       -0.000459   -0.585397   -2.031403
 ---------------------------------------------------------------------

 SCF Done:  E(RB3LYP) =  -350.124888759     A.U. after    1 cycles

 The electronic state is 1-A.
 Alpha  occ. eigenvalues --  -10.18684 -10.18245 -10.18238 -10.18171 -10.18165
 Alpha  occ. eigenvalues --  -10.17419 -10.17419 -10.17314 -10.17314  -0.92779
 Alpha  occ. eigenvalues --   -0.78554  -0.74381  -0.67572  -0.64284  -0.62254
 Alpha  occ. eigenvalues --   -0.56718  -0.55343  -0.49030  -0.48050  -0.46774
 Alpha  occ. eigenvalues --   -0.44633  -0.43950  -0.39950  -0.37310  -0.35464
 Alpha  occ. eigenvalues --   -0.34107  -0.33326  -0.31354  -0.29765  -0.29646
 Alpha  occ. eigenvalues --   -0.29055  -0.28737  -0.27209
 Alpha virt. eigenvalues --    0.10135   0.10679   0.12652   0.13294   0.13972
 Alpha virt. eigenvalues --    0.14846   0.14884   0.15334   0.15665   0.17422
 Alpha virt. eigenvalues --    0.17504   0.18342   0.18738   0.20321   0.20468

 Mulliken charges:
               1
     1  C   -0.232810
     2  C   -0.342340
     3  C    0.406098
     4  C   -0.342360
     5  C   -0.232811
     6  C   -0.033793
     7  C   -0.080576
     8  C   -0.033811
     9  C   -0.080601
    10  H    0.094535
    11  H    0.094542
    12  H    0.094624
    13  H    0.094632
    14  H    0.094632
    15  H    0.094639
    16  H    0.094544
    17  H    0.094538
    18  H    0.053460
    19  H    0.054693
    20  H    0.053463
    21  H    0.054703
 Sum of Mulliken charges =  -0.00000

 Dipole moment (field-independent basis, Debye):
    X=              0.0000    Y=              0.1049    Z=              0.0001  Tot=              0.1049
 Quadrupole moment (field-independent basis, Debye-Ang):
   XX=            -55.3644   YY=            -55.2121   ZZ=            -53.8414
   XY=              0.0002   XZ=              0.0008   YZ=             -0.0002

  Exact polarizability:  96.452  -0.000  83.190   0.002  -0.002  76.302
 Approx polarizability: 127.933  -0.001 123.760   0.003  -0.002 125.021

                      1                      2                      3
                      A                      A                      A
 Frequencies --    221.2375               221.7478               350.5580
 Red. masses --      1.6833                 1.7824                 2.1185
 Frc consts  --      0.0485                 0.0516                 0.1534
 IR Inten    --      0.0000                 0.1139                 0.8331

                      4                      5                      6
                      A                      A                      A
 Frequencies --    387.3551               389.6781               624.7646
 Red. masses --      2.1317                 3.2132                 4.6642
 Frc consts  --      0.1885                 0.2875                 1.0727
 IR Inten    --      0.0000                 0.7435                 1.1779

                      7                      8                      9
                      A                      A                      A
 Frequencies --    702.4357               729.8370               729.9617
 Red. masses --      5.2176                 3.0261                 3.0855
 Frc consts  --      1.5168                 0.9497                 0.9687
 IR Inten    --      2.1200                 0.0940                 0.1556

                     10                     11                     12
                      A                      A                      A
 Frequencies --    747.6348               814.1588               825.8037
 Red. masses --      4.4480                 1.4455                 1.3300
 Frc consts  --      1.4649                 0.5645                 0.5344
 IR Inten    --      0.1984                 0.0209                 0.0000

                     13                     14                     15
                      A                      A                      A
 Frequencies --    835.1594               887.2741               903.9326
 Red. masses --      1.8294                 2.8238                 1.5760
 Frc consts  --      0.7518                 1.3098                 0.7587
 IR Inten    --      0.0000                 0.2817                 0.8656

                     16                     17                     18
                      A                      A                      A
 Frequencies --    913.8944               932.3762               948.0016
 Red. masses --      3.2228                 2.6142                 2.6697
 Frc consts  --      1.5859                 1.3389                 1.4136
 IR Inten    --      1.0288                 0.3235                 0.4259

                     19                     20                     21
                      A                      A                      A
 Frequencies --    977.0077               997.3454              1000.6782
 Red. masses --      1.9585                 1.8635                 1.3314
 Frc consts  --      1.1015                 1.0921                 0.7855
 IR Inten    --      2.0378                 0.0000                 0.0000

                     22                     23                     24
                      A                      A                      A
 Frequencies --   1027.0944              1030.0639              1087.4674
 Red. masses --      2.9706                 1.1360                 1.9602
 Frc consts  --      1.8464                 0.7102                 1.3658
 IR Inten    --      0.0557                 4.3478                 0.0624

                     25                     26                     27
                      A                      A                      A
 Frequencies --   1101.4490              1133.7024              1142.0548
 Red. masses --      1.0771                 1.7544                 3.3164
 Frc consts  --      0.7699                 1.3286                 2.5486
 IR Inten    --      0.0000                 0.0000                 0.0016

                     28                     29                     30
                      A                      A                      A
 Frequencies --   1164.8803              1182.8682              1194.5758
 Red. masses --      1.3843                 1.4801                 1.4131
 Frc consts  --      1.1067                 1.2202                 1.1881
 IR Inten    --      0.0080                 0.6129                 0.0000

                     31                     32                     33
                      A                      A                      A
 Frequencies --   1221.6651              1239.3272              1242.3296
 Red. masses --      1.9009                 1.4699                 1.1638
 Frc consts  --      1.6715                 1.3302                 1.0583
 IR Inten    --      5.2766                 5.9703                 0.0001

                     34                     35                     36
                      A                      A                      A
 Frequencies --   1256.1588              1261.8756              1274.2133
 Red. masses --      1.1469                 1.7939                 1.7477
 Frc consts  --      1.0663                 1.6830                 1.6719
 IR Inten    --      0.0007                 2.1439                 6.8749

                     37                     38                     39
                      A                      A                      A
 Frequencies --   1274.6409              1314.3343              1325.4044
 Red. masses --      2.0567                 1.5521                 2.2033
 Frc consts  --      1.9687                 1.5797                 2.2804
 IR Inten    --      0.1884                 4.1763                 0.0144

                     40                     41                     42
                      A                      A                      A
 Frequencies --   1352.2161              1364.7722              1487.4224
 Red. masses --      2.1877                 1.7704                 1.0865
 Frc consts  --      2.3569                 1.9428                 1.4163
 IR Inten    --     10.6102                 1.7814                 0.0790

                     43                     44                     45
                      A                      A                      A
 Frequencies --   1489.0080              1509.2786              1509.9570
 Red. masses --      1.0817                 1.1244                 1.0979
 Frc consts  --      1.4130                 1.5090                 1.4749
 IR Inten    --      0.0056                 0.8589                 0.2358

                     46                     47                     48
                      A                      A                      A
 Frequencies --   3034.8574              3036.1051              3044.8041
 Red. masses --      1.0581                 1.0581                 1.0600
 Frc consts  --      5.7417                 5.7467                 5.7897
 IR Inten    --     10.6243                45.8295                96.4220

                     49                     50                     51
                      A                      A                      A
 Frequencies --   3046.6734              3064.6840              3067.8337
 Red. masses --      1.0603                 1.0890                 1.0858
 Frc consts  --      5.7987                 6.0262                 6.0208
 IR Inten    --     40.3214               115.3330                10.8670

                     52                     53                     54
                      A                      A                      A
 Frequencies --   3067.9656              3068.6411              3088.1124
 Red. masses --      1.1061                 1.1059                 1.1058
 Frc consts  --      6.1340                 6.1354                 6.2132
 IR Inten    --      0.0067                 0.2080                 0.3160

                     55                     56                     57
                      A                      A                      A
 Frequencies --   3088.6802              3093.0642              3100.4167
 Red. masses --      1.1052                 1.0885                 1.0913
 Frc consts  --      6.2119                 6.1355                 6.1807
 IR Inten    --    104.3373                26.3097                81.8738

 - Thermochemistry -
 -------------------
 Temperature   298.150 Kelvin.  Pressure   1.00000 Atm.
 Atom     1 has atomic number  6 and mass  12.00000

 Molecular mass:   120.09390 amu.
 Principal axes and moments of inertia in atomic units:
                           1         2         3
     Eigenvalues --   508.400421003.330531256.76187
           X            1.00000   0.00000   0.00001
           Y           -0.00000   1.00000  -0.00003
           Z           -0.00001   0.00003   1.00000
 This molecule is an asymmetric top.
 Rotational symmetry number  1.
 Warning -- assumption of classical behavior for rotation
           may cause significant error
 Rotational temperatures (Kelvin)      0.17037     0.08633     0.06892
 Rotational constants (GHZ):           3.54984     1.79875     1.43602
 Zero-point vibrational energy     491243.1 (Joules/Mol)
                                  117.40993 (Kcal/Mol)
 Warning -- explicit consideration of   5 degrees of freedom as
           vibrations may cause significant error
 Vibrational temperatures:    318.31   319.05   504.37   557.32   560.66
          (Kelvin)            898.90  1010.65  1050.07  1050.25  1075.68
                             1171.39  1188.15  1201.61  1276.59  1300.56
                             1314.89  1341.48  1363.96  1405.70  1434.96
                             1439.75  1477.76  1482.03  1564.62  1584.74
                             1631.14  1643.16  1676.00  1701.88  1718.73
                             1757.70  1783.12  1787.44  1807.33  1815.56
                             1833.31  1833.92  1891.03  1906.96  1945.54
                             1963.60  2140.07  2142.35  2171.52  2172.49
                             4366.48  4368.28  4380.79  4383.48  4409.40
                             4413.93  4414.12  4415.09  4443.10  4443.92
                             4450.23  4460.81

 Zero-point correction=                           0.187105 (Hartree/Particle)
 Thermal correction to Energy=                    0.193501
 Thermal correction to Enthalpy=                  0.194445
 Thermal correction to Gibbs Free Energy=         0.156808
 Sum of electronic and zero-point Energies=           -349.937784
 Sum of electronic and thermal Energies=              -349.931388
 Sum of electronic and thermal Enthalpies=            -349.930444
 Sum of electronic and thermal Free Energies=         -349.968081

                     E (Thermal)             CV                S
                      KCal/Mol        Cal/Mol-Kelvin    Cal/Mol-Kelvin
 Total                  121.424             28.064             79.215
 Electronic               0.000              0.000              0.000
 Translational            0.889              2.981             40.264
 Rotational               0.889              2.981             27.952
 Vibrational            119.646             22.102             10.999
 Vibration     1          0.648              1.809              1.949
 Vibration     2          0.648              1.808              1.945
 Vibration     3          0.727              1.574              1.164
 Vibration     4          0.756              1.497              1.010
 Vibration     5          0.758              1.492              1.001

 Optimization completed.
    -- Stationary point found.
 Normal termination of Gaussian 16 at Sun May 28 15:17:03 2023.
