 Gaussian 16, Revision A.03,
 Gaussian 16:  ES64L-G16RevA.03 25-Dec-2016

 -----------------------------
 # opt freq b3lyp/6-31g(2df,p)
 -----------------------------

 -------------------
 Title Card Required
 -------------------
 Symbolic Z-matrix:
 Charge =  0 Multiplicity = 1

 SCF Done:  E(RB3LYP) =  -235.898678114     A.U. after   10 cycles
 SCF Done:  E(RB3LYP) =  -235.899229730     A.U. after    9 cycles
 SCF Done:  E(RB3LYP) =  -235.899257381     A.U. after    7 cycles
 SCF Done:  E(RB3LYP) =  -235.899261449     A.U. after    6 cycles
 Optimization completed.
    -- Stationary point found.
 Normal termination of Gaussian 16 at Sun May 28 04:46:04 2023.

 ----------------------------------------------------------------------
 #N Geom=AllCheck Guess=TCheck SCRF=Check GenChk RB3LYP/6-31G(2df,p) Fr
 eq
 ----------------------------------------------------------------------

 Structure from the checkpoint file:  "C1CCCCC1.chk"
 -------------------
 Title Card Required
 -------------------
 Charge =  0 Multiplicity = 1

                         Standard orientation:
 ---------------------------------------------------------------------
 Center     Atomic      Atomic             Coordinates (Angstroms)
 Number     Number       Type             X           Y           Z
 ---------------------------------------------------------------------
      1          6           0       -1.284263    0.706306   -0.229851
      2          6           0       -0.030413    1.465262    0.229846
      3          6           0        1.253839    0.758976   -0.229881
      4          6           0        1.284241   -0.706308    0.229921
      5          6           0        0.030421   -1.465245   -0.229926
      6          6           0       -1.253824   -0.758994    0.229889
      7          1           0       -1.342443    0.738252   -1.327098
      8          1           0       -2.187456    1.203031    0.142914
      9          1           0       -0.031763    1.531439    1.327093
     10          1           0       -0.051844    2.495863   -0.142789
     11          1           0        2.135596    1.292907    0.142773
     12          1           0        1.310530    0.793226   -1.327133
     13          1           0        1.342281   -0.738256    1.327185
     14          1           0        2.187475   -1.203033   -0.142721
     15          1           0        0.051839   -2.495881    0.142585
     16          1           0        0.031819   -1.531299   -1.327192
     17          1           0       -1.310439   -0.793336    1.327143
     18          1           0       -2.135606   -1.292894   -0.142748
 ---------------------------------------------------------------------

 SCF Done:  E(RB3LYP) =  -235.899261449     A.U. after    1 cycles

 The electronic state is 1-A.
 Alpha  occ. eigenvalues --  -10.17175 -10.17165 -10.17165 -10.17144 -10.17144
 Alpha  occ. eigenvalues --  -10.17133  -0.81992  -0.73153  -0.73152  -0.59880
 Alpha  occ. eigenvalues --   -0.59880  -0.54247  -0.47044  -0.43383  -0.42718
 Alpha  occ. eigenvalues --   -0.42717  -0.36986  -0.36984  -0.36340  -0.33364
 Alpha  occ. eigenvalues --   -0.33363  -0.30880  -0.29129  -0.29128
 Alpha virt. eigenvalues --    0.08692   0.11310   0.13393   0.13394   0.16251
 Alpha virt. eigenvalues --    0.17093   0.17094   0.17406   0.18567   0.18569
 Alpha virt. eigenvalues --    0.18806   0.18806   0.23647   0.23648   0.24504

 Mulliken charges:
               1
     1  C   -0.175962
     2  C   -0.175917
     3  C   -0.175928
     4  C   -0.175965
     5  C   -0.175921
     6  C   -0.175928
     7  H    0.089581
     8  H    0.086361
     9  H    0.089580
    10  H    0.086354
    11  H    0.086358
    12  H    0.089579
    13  H    0.089579
    14  H    0.086361
    15  H    0.086354
    16  H    0.089578
    17  H    0.089579
    18  H    0.086358
 Sum of Mulliken charges =  -0.00000

 Dipole moment (field-independent basis, Debye):
    X=             -0.0000    Y=             -0.0000    Z=              0.0000  Tot=              0.0000
 Quadrupole moment (field-independent basis, Debye-Ang):
   XX=            -39.9885   YY=            -39.9891   ZZ=            -39.3157
   XY=              0.0001   XZ=              0.0000   YZ=             -0.0001

  Exact polarizability:  65.766  -0.000  65.765   0.000  -0.000  57.440
 Approx polarizability:  86.480   0.000  86.477   0.000  -0.001  88.984

                      1                      2                      3
                      A                      A                      A
 Frequencies --    230.0063               230.5509               376.2439
 Red. masses --      1.7629                 1.7627                 1.5401
 Frc consts  --      0.0550                 0.0552                 0.1285
 IR Inten    --      0.0222                 0.0222                 0.0000

                      4                      5                      6
                      A                      A                      A
 Frequencies --    430.2031               430.5879               518.6572
 Red. masses --      2.9703                 2.9691                 1.3106
 Frc consts  --      0.3239                 0.3243                 0.2077
 IR Inten    --      0.0000                 0.0000                 0.6320

                      7                      8                      9
                      A                      A                      A
 Frequencies --    794.1673               794.2680               805.8362
 Red. masses --      1.4506                 1.4504                 3.5498
 Frc consts  --      0.5390                 0.5391                 1.3581
 IR Inten    --      0.0000                 0.0000                 0.0000

                     10                     11                     12
                      A                      A                      A
 Frequencies --    867.8950               868.2587               916.8078
 Red. masses --      2.4289                 2.4282                 1.2851
 Frc consts  --      1.0779                 1.0785                 0.6364
 IR Inten    --      1.2005                 1.1998                 1.5377

                     13                     14                     15
                      A                      A                      A
 Frequencies --    917.0201              1037.0572              1037.2818
 Red. masses --      1.2843                 1.7625                 1.7603
 Frc consts  --      0.6363                 1.1168                 1.1159
 IR Inten    --      1.5381                 0.0000                 0.0000

                     16                     17                     18
                      A                      A                      A
 Frequencies --   1043.8236              1070.5673              1100.3937
 Red. masses --      2.6162                 1.0104                 2.8182
 Frc consts  --      1.6795                 0.6823                 2.0105
 IR Inten    --      1.2149                 0.0000                 0.0000

                     19                     20                     21
                      A                      A                      A
 Frequencies --   1124.0707              1184.1576              1287.0489
 Red. masses --      1.0468                 2.2518                 1.2947
 Frc consts  --      0.7793                 1.8604                 1.2636
 IR Inten    --      0.0000                 0.0000                 2.7741

                     22                     23                     24
                      A                      A                      A
 Frequencies --   1287.1704              1290.6590              1290.7537
 Red. masses --      1.2946                 1.2495                 1.2498
 Frc consts  --      1.2637                 1.2264                 1.2268
 IR Inten    --      2.7684                 0.0000                 0.0000

                     25                     26                     27
                      A                      A                      A
 Frequencies --   1348.3016              1374.2503              1378.8383
 Red. masses --      1.3047                 1.3199                 1.4826
 Frc consts  --      1.3975                 1.4687                 1.6607
 IR Inten    --      0.0000                 0.0000                 0.0000

                     28                     29                     30
                      A                      A                      A
 Frequencies --   1379.0284              1387.7475              1387.8441
 Red. masses --      1.4839                 1.4297                 1.4300
 Frc consts  --      1.6626                 1.6222                 1.6228
 IR Inten    --      0.0000                 2.9150                 2.9171

                     31                     32                     33
                      A                      A                      A
 Frequencies --   1482.6955              1482.8238              1488.3008
 Red. masses --      1.0883                 1.0882                 1.1003
 Frc consts  --      1.4096                 1.4097                 1.4359
 IR Inten    --      0.0000                 0.0000                 2.1467

                     34                     35                     36
                      A                      A                      A
 Frequencies --   1488.4585              1492.7713              1509.2363
 Red. masses --      1.1002                 1.0784                 1.0996
 Frc consts  --      1.4362                 1.4159                 1.4758
 IR Inten    --      2.1460                10.0356                 0.0000

                     37                     38                     39
                      A                      A                      A
 Frequencies --   3003.8457              3003.8614              3005.7499
 Red. masses --      1.0683                 1.0683                 1.0722
 Frc consts  --      5.6791                 5.6792                 5.7075
 IR Inten    --     28.5048                28.5004                 0.0097

                     40                     41                     42
                      A                      A                      A
 Frequencies --   3009.7924              3009.8275              3012.9163
 Red. masses --      1.0609                 1.0609                 1.0594
 Frc consts  --      5.6622                 5.6624                 5.6659
 IR Inten    --      0.0010                 0.0006                66.5034

                     43                     44                     45
                      A                      A                      A
 Frequencies --   3054.8946              3054.9050              3057.8069
 Red. masses --      1.0927                 1.0926                 1.1025
 Frc consts  --      6.0079                 6.0078                 6.0734
 IR Inten    --    110.9428               110.9684                 0.0043

                     46                     47                     48
                      A                      A                      A
 Frequencies --   3057.8223              3058.6291              3066.2344
 Red. masses --      1.1024                 1.0887                 1.1049
 Frc consts  --      6.0734                 6.0010                 6.1204
 IR Inten    --      0.0046                 0.0102               137.8332

 - Thermochemistry -
 -------------------
 Temperature   298.150 Kelvin.  Pressure   1.00000 Atm.
 Atom     1 has atomic number  6 and mass  12.00000

 Molecular mass:    84.09390 amu.
 Principal axes and moments of inertia in atomic units:
                           1         2         3
     Eigenvalues --   420.81771 420.86245 737.55684
           X            0.99999   0.00540  -0.00000
           Y           -0.00540   0.99999   0.00000
           Z            0.00000  -0.00000   1.00000
 This molecule is an asymmetric top.
 Rotational symmetry number  1.
 Rotational temperatures (Kelvin)      0.20582     0.20580     0.11743
 Rotational constants (GHZ):           4.28865     4.28820     2.44692
 Zero-point vibrational energy     445788.8 (Joules/Mol)
                                  106.54608 (Kcal/Mol)
 Warning -- explicit consideration of   6 degrees of freedom as
           vibrations may cause significant error
 Vibrational temperatures:    330.93   331.71   541.33   618.97   619.52
          (Kelvin)            746.23  1142.63  1142.77  1159.42  1248.71
                             1249.23  1319.08  1319.39  1492.09  1492.42
                             1501.83  1540.31  1583.22  1617.29  1703.74
                             1851.78  1851.95  1856.97  1857.11  1939.91
                             1977.24  1983.84  1984.11  1996.66  1996.80
                             2133.27  2133.45  2141.33  2141.56  2147.76
                             2171.45  4321.86  4321.89  4324.60  4330.42
                             4330.47  4334.91  4395.31  4395.33  4399.50
                             4399.52  4400.69  4411.63

 Zero-point correction=                           0.169792 (Hartree/Particle)
 Thermal correction to Energy=                    0.175535
 Thermal correction to Enthalpy=                  0.176479
 Thermal correction to Gibbs Free Energy=         0.140990
 Sum of electronic and zero-point Energies=           -235.729469
 Sum of electronic and thermal Energies=              -235.723726
 Sum of electronic and thermal Enthalpies=            -235.722782
 Sum of electronic and thermal Free Energies=         -235.758271

                     E (Thermal)             CV                S
                      KCal/Mol        Cal/Mol-Kelvin    Cal/Mol-Kelvin
 Total                  110.150             22.935             74.693
 Electronic               0.000              0.000              0.000
 Translational            0.889              2.981             39.202
 Rotational               0.889              2.981             26.371
 Vibrational            108.372             16.973              9.120
 Vibration     1          0.652              1.795              1.879
 Vibration     2          0.652              1.794              1.875
 Vibration     3          0.747              1.521              1.054
 Vibration     4          0.791              1.404              0.858
 Vibration     5          0.792              1.404              0.857
 Vibration     6          0.874              1.209              0.613

 Optimization completed.
    -- Stationary point found.
 Normal termination of Gaussian 16 at Sun May 28 05:01:44 2023.
