 Gaussian 16, Revision A.03,
 Gaussian 16:  ES64L-G16RevA.03 25-Dec-2016

 -----------------------------
 # opt freq b3lyp/6-31g(2df,p)
 -----------------------------

 -------------------
 Title Card Required
 -------------------
 Symbolic Z-matrix:
 Charge =  0 Multiplicity = 1

 SCF Done:  E(RB3LYP) =  -153.798180592     A.U. after   11 cycles
 SCF Done:  E(RB3LYP) =  -153.799732086     A.U. after   10 cycles
 SCF Done:  E(RB3LYP) =  -153.799835856     A.U. after    9 cycles
 SCF Done:  E(RB3LYP) =  -153.799848858     A.U. after    7 cycles
 Optimization completed.
    -- Stationary point found.
 Normal termination of Gaussian 16 at Sun May 28 14:27:15 2023.

 ----------------------------------------------------------------------
 #N Geom=AllCheck Guess=TCheck SCRF=Check GenChk RB3LYP/6-31G(2df,p) Fr
 eq
 ----------------------------------------------------------------------

 Structure from the checkpoint file:  "C1CO1.chk"
 -------------------
 Title Card Required
 -------------------
 Charge =  0 Multiplicity = 1

                         Standard orientation:
 ---------------------------------------------------------------------
 Center     Atomic      Atomic             Coordinates (Angstroms)
 Number     Number       Type             X           Y           Z
 ---------------------------------------------------------------------
      1          6           0        0.733716   -0.370159    0.000028
      2          6           0       -0.733714   -0.370161   -0.000028
      3          8           0       -0.000002    0.852246    0.000000
      4          1           0        1.271820   -0.593775   -0.919950
      5          1           0        1.271772   -0.594242    0.919886
      6          1           0       -1.271817   -0.593780    0.919949
      7          1           0       -1.271771   -0.594247   -0.919886
 ---------------------------------------------------------------------

 SCF Done:  E(RB3LYP) =  -153.799848858     A.U. after    1 cycles

 The electronic state is 1-A.
 Alpha  occ. eigenvalues --  -19.15062 -10.23597 -10.23564  -1.07018  -0.67332
 Alpha  occ. eigenvalues --   -0.63205  -0.50924  -0.47936  -0.39360  -0.38372
 Alpha  occ. eigenvalues --   -0.31153  -0.26817
 Alpha virt. eigenvalues --    0.10411   0.10538   0.12187   0.14275   0.14933
 Alpha virt. eigenvalues --    0.21444   0.26910   0.39429   0.44751   0.51298
 Alpha virt. eigenvalues --    0.53494   0.55029   0.55151   0.68576   0.71862

 Mulliken charges:
               1
     1  C   -0.132493
     2  C   -0.132493
     3  O   -0.204752
     4  H    0.117434
     5  H    0.117436
     6  H    0.117433
     7  H    0.117436
 Sum of Mulliken charges =  -0.00000

 Dipole moment (field-independent basis, Debye):
    X=              0.0000    Y=             -1.7683    Z=             -0.0000  Tot=              1.7683
 Quadrupole moment (field-independent basis, Debye-Ang):
   XX=            -16.4163   YY=            -20.2151   ZZ=            -17.1369
   XY=              0.0000   XZ=             -0.0000   YZ=             -0.0000

  Exact polarizability:  29.154   0.000  19.669  -0.001  -0.000  23.287
 Approx polarizability:  39.012  -0.000  31.427  -0.000  -0.000  30.622

                      1                      2                      3
                      A                      A                      A
 Frequencies --    813.2421               859.7074               901.0836
 Red. masses --      1.0241                 9.8677                 3.5936
 Frc consts  --      0.3991                 4.2970                 1.7191
 IR Inten    --      0.0357                11.0809                53.1760

                      4                      5                      6
                      A                      A                      A
 Frequencies --   1044.5201              1153.8676              1154.2973
 Red. masses --      1.0134                 1.3020                 1.4643
 Frc consts  --      0.6515                 1.0214                 1.1495
 IR Inten    --      0.0000                 0.5031                 0.1147

                      7                      8                      9
                      A                      A                      A
 Frequencies --   1170.7475              1174.6262              1308.3873
 Red. masses --      1.2727                 1.4251                 2.6385
 Frc consts  --      1.0278                 1.1585                 2.6612
 IR Inten    --      3.5927                 0.0000                12.3095

                     10                     11                     12
                      A                      A                      A
 Frequencies --   1506.3645              1541.3538              3081.5607
 Red. masses --      1.0724                 1.3145                 1.0435
 Frc consts  --      1.4337                 1.8400                 5.8383
 IR Inten    --      0.3072                 2.7987                39.5395

                     13                     14                     15
                      A                      A                      A
 Frequencies --   3089.7036              3162.8386              3179.6382
 Red. masses --      1.0571                 1.1195                 1.1205
 Frc consts  --      5.9459                 6.5982                 6.6743
 IR Inten    --     12.9488                 0.0001                51.8608

 - Thermochemistry -
 -------------------
 Temperature   298.150 Kelvin.  Pressure   1.00000 Atm.
 Atom     1 has atomic number  6 and mass  12.00000

 Molecular mass:    44.02621 amu.
 Principal axes and moments of inertia in atomic units:
                           1         2         3
     Eigenvalues --    70.04310  81.60623 127.28407
           X            1.00000   0.00000  -0.00002
           Y           -0.00000   1.00000  -0.00000
           Z            0.00002   0.00000   1.00000
 This molecule is an asymmetric top.
 Rotational symmetry number  1.
 Rotational temperatures (Kelvin)      1.23658     1.06136     0.68048
 Rotational constants (GHZ):          25.76615    22.11524    14.17885
 Zero-point vibrational energy     150382.2 (Joules/Mol)
                                   35.94221 (Kcal/Mol)
 Vibrational temperatures:   1170.07  1236.93  1296.46  1502.83  1660.16
          (Kelvin)           1660.78  1684.44  1690.03  1882.48  2167.32
                             2217.66  4433.68  4445.39  4550.62  4574.79

 Zero-point correction=                           0.057278 (Hartree/Particle)
 Thermal correction to Energy=                    0.060430
 Thermal correction to Enthalpy=                  0.061374
 Thermal correction to Gibbs Free Energy=         0.033196
 Sum of electronic and zero-point Energies=           -153.742571
 Sum of electronic and thermal Energies=              -153.739419
 Sum of electronic and thermal Enthalpies=            -153.738475
 Sum of electronic and thermal Free Energies=         -153.766652

                     E (Thermal)             CV                S
                      KCal/Mol        Cal/Mol-Kelvin    Cal/Mol-Kelvin
 Total                   37.920              9.181             59.305
 Electronic               0.000              0.000              0.000
 Translational            0.889              2.981             37.273
 Rotational               0.889              2.981             21.214
 Vibrational             36.143              3.219              0.818

 Optimization completed.
    -- Stationary point found.
 Normal termination of Gaussian 16 at Sun May 28 14:30:50 2023.
