 Gaussian 16, Revision A.03,
 Gaussian 16:  ES64L-G16RevA.03 25-Dec-2016

 -----------------------------
 # opt freq b3lyp/6-31g(2df,p)
 -----------------------------

 -------------------
 Title Card Required
 -------------------
 Symbolic Z-matrix:
 Charge =  0 Multiplicity = 1

 SCF Done:  E(RB3LYP) =  -543.378443030     A.U. after   26 cycles
 SCF Done:  E(RB3LYP) =  -543.714126683     A.U. after   21 cycles
 SCF Done:  E(RB3LYP) =  -544.100280571     A.U. after   21 cycles
 SCF Done:  E(RB3LYP) =  -544.285566946     A.U. after   23 cycles
 SCF Done:  E(RB3LYP) =  -544.451371900     A.U. after   19 cycles
 SCF Done:  E(RB3LYP) =  -544.710226771     A.U. after   17 cycles
 SCF Done:  E(RB3LYP) =  -544.372396805     A.U. after   20 cycles
 SCF Done:  E(RB3LYP) =  -544.801442428     A.U. after   17 cycles
 SCF Done:  E(RB3LYP) =  -544.955564238     A.U. after   17 cycles
 SCF Done:  E(RB3LYP) =  -545.089255162     A.U. after   16 cycles
 SCF Done:  E(RB3LYP) =  -545.487698418     A.U. after    8 cycles
 SCF Done:  E(RB3LYP) =  -545.487702004     A.U. after    9 cycles
 SCF Done:  E(RB3LYP) =  -545.487704447     A.U. after    7 cycles
 SCF Done:  E(RB3LYP) =  -545.487707207     A.U. after    8 cycles
 SCF Done:  E(RB3LYP) =  -545.487707603     A.U. after    6 cycles
 SCF Done:  E(RB3LYP) =  -545.487708375     A.U. after    7 cycles
 SCF Done:  E(RB3LYP) =  -545.487708895     A.U. after    6 cycles
 SCF Done:  E(RB3LYP) =  -545.487709241     A.U. after    6 cycles
 SCF Done:  E(RB3LYP) =  -545.487709381     A.U. after    6 cycles
 Optimization completed.
    -- Stationary point found.
 Normal termination of Gaussian 16 at Tue May 23 13:21:08 2023.

 ----------------------------------------------------------------------
 #N Geom=AllCheck Guess=TCheck SCRF=Check GenChk RB3LYP/6-31G(2df,p) Fr
 eq
 ----------------------------------------------------------------------

 Structure from the checkpoint file:  "C1dCCdCqC2CCCC2rCCCCdC1.chk"
 -------------------
 Title Card Required
 -------------------
 Charge =  0 Multiplicity = 1

                         Standard orientation:
 ---------------------------------------------------------------------
 Center     Atomic      Atomic             Coordinates (Angstroms)
 Number     Number       Type             X           Y           Z
 ---------------------------------------------------------------------
      1          6           0        2.692477   -2.464635   -0.814109
      2          6           0        2.487584   -1.333502   -0.145698
      3          6           0        3.273245   -0.138658    0.219399
      4          6           0        2.200910    0.470854    0.773268
      5          6           0       -1.237301   -0.593294   -0.255669
      6          6           0       -1.856470   -0.682604    1.171532
      7          6           0       -3.393094   -0.519124    0.991263
      8          6           0       -3.634268   -0.549231   -0.532310
      9          6           0       -2.347405    0.057646   -1.105955
     10          6           0        1.507104    1.759085    1.003208
     11          6           0        0.236849    1.579222    0.075458
     12          6           0        0.319723    2.506827   -1.141820
     13          6           0        0.155911    0.052076   -0.352867
     14          6           0        1.245073   -0.661337    0.488371
     15          1           0        3.663011   -2.712689   -1.231898
     16          1           0        0.833750   -1.187447    1.356814
     17          1           0        4.293698    0.164843    0.015911
     18          1           0       -1.122583   -1.621853   -0.625668
     19          1           0       -1.460845    0.100634    1.826466
     20          1           0       -1.606052   -1.634626    1.647492
     21          1           0       -3.717693    0.445713    1.396016
     22          1           0       -3.962177   -1.288012    1.520950
     23          1           0       -4.540028   -0.013500   -0.830995
     24          1           0       -3.739946   -1.584392   -0.880000
     25          1           0       -2.358626    1.144546   -0.954485
     26          1           0       -2.217197   -0.121282   -2.178071
     27          1           0        2.091543    2.645246    0.740426
     28          1           0        1.198568    1.863077    2.050855
     29          1           0       -0.654788    1.845403    0.652743
     30          1           0        0.468502    0.002030   -1.403314
     31          1           0        1.242288    2.320629   -1.704173
     32          1           0        0.315508    3.560631   -0.842762
     33          1           0       -0.520180    2.348957   -1.825478
     34          1           0        1.891219   -3.177846   -0.975247
 ---------------------------------------------------------------------

 SCF Done:  E(RB3LYP) =  -545.487709381     A.U. after    1 cycles

 The electronic state is 1-A.
 Alpha  occ. eigenvalues --  -10.19099 -10.18853 -10.18777 -10.18640 -10.18197
 Alpha  occ. eigenvalues --  -10.18050 -10.17937 -10.17637 -10.17457 -10.17385
 Alpha  occ. eigenvalues --  -10.17337 -10.17325 -10.17249 -10.15928  -0.88010
 Alpha  occ. eigenvalues --   -0.83192  -0.79583  -0.73852  -0.72169  -0.70278
 Alpha  occ. eigenvalues --   -0.68867  -0.67252  -0.61108  -0.58075  -0.56513
 Alpha  occ. eigenvalues --   -0.54776  -0.52218  -0.50388  -0.47852  -0.47410
 Alpha  occ. eigenvalues --   -0.45865  -0.44235  -0.43993  -0.42128  -0.41233
 Alpha  occ. eigenvalues --   -0.41027  -0.40188  -0.38441  -0.37471  -0.35299
 Alpha  occ. eigenvalues --   -0.33893  -0.33394  -0.33288  -0.32992  -0.32640
 Alpha  occ. eigenvalues --   -0.31656  -0.31148  -0.30598  -0.29319  -0.28874
 Alpha  occ. eigenvalues --   -0.27064  -0.21127
 Alpha virt. eigenvalues --   -0.00758   0.06718   0.07780   0.08878   0.10447
 Alpha virt. eigenvalues --    0.11138   0.12005   0.12851   0.13924   0.14615
 Alpha virt. eigenvalues --    0.14894   0.15232   0.15608   0.16133   0.16515

 Mulliken charges:
               1
     1  C   -0.466089
     2  C    0.378913
     3  C   -0.343125
     4  C    0.318933
     5  C    0.031991
     6  C   -0.209579
     7  C   -0.208860
     8  C   -0.202835
     9  C   -0.226340
    10  C   -0.360461
    11  C    0.032224
    12  C   -0.402901
    13  C   -0.039912
    14  C   -0.218885
    15  H    0.100894
    16  H    0.078406
    17  H    0.098918
    18  H    0.071014
    19  H    0.094966
    20  H    0.098995
    21  H    0.096441
    22  H    0.094138
    23  H    0.089854
    24  H    0.095320
    25  H    0.097052
    26  H    0.089216
    27  H    0.107582
    28  H    0.110334
    29  H    0.071897
    30  H    0.074494
    31  H    0.119411
    32  H    0.109479
    33  H    0.119159
    34  H    0.099357
 Sum of Mulliken charges =  -0.00000

 Dipole moment (field-independent basis, Debye):
    X=             -0.7754    Y=              1.0317    Z=              0.1564  Tot=              1.3001
 Quadrupole moment (field-independent basis, Debye-Ang):
   XX=            -87.1861   YY=            -85.8209   ZZ=            -87.3942
   XY=              2.8710   XZ=             -0.8206   YZ=              1.1843

  Exact polarizability: 164.670  -8.813 153.564  -7.321  13.904 117.460
 Approx polarizability: 215.468 -16.451 239.931 -16.083  34.504 191.014

                      1                      2                      3
                      A                      A                      A
 Frequencies --     26.0398                54.9684                72.6367
 Red. masses --      2.7927                 2.3366                 2.9171
 Frc consts  --      0.0011                 0.0042                 0.0091
 IR Inten    --      0.0665                 0.0055                 0.0276

                      4                      5                      6
                      A                      A                      A
 Frequencies --    119.6382               131.5394               136.6253
 Red. masses --      3.3317                 3.0888                 2.9136
 Frc consts  --      0.0281                 0.0315                 0.0320
 IR Inten    --      0.0939                 0.1712                 0.0544

                      7                      8                      9
                      A                      A                      A
 Frequencies --    201.3086               236.1211               263.9203
 Red. masses --      2.4166                 2.1067                 1.1364
 Frc consts  --      0.0577                 0.0692                 0.0466
 IR Inten    --      0.0294                 0.2473                 0.2529

                     10                     11                     12
                      A                      A                      A
 Frequencies --    279.8088               308.2094               343.9390
 Red. masses --      2.1878                 3.0769                 2.7552
 Frc consts  --      0.1009                 0.1722                 0.1920
 IR Inten    --      1.0986                 0.3741                 0.3260

                     13                     14                     15
                      A                      A                      A
 Frequencies --    380.8834               402.9256               494.0165
 Red. masses --      2.7126                 2.2144                 2.0910
 Frc consts  --      0.2319                 0.2118                 0.3007
 IR Inten    --      0.3160                 0.3755                 0.4518

                     16                     17                     18
                      A                      A                      A
 Frequencies --    548.0357               590.1212               597.9106
 Red. masses --      3.5786                 2.5606                 2.9719
 Frc consts  --      0.6333                 0.5254                 0.6260
 IR Inten    --      0.9564                 2.0850                 1.3970

                     19                     20                     21
                      A                      A                      A
 Frequencies --    615.1691               674.5291               706.2584
 Red. masses --      3.5853                 3.7145                 1.8058
 Frc consts  --      0.7994                 0.9958                 0.5307
 IR Inten    --      2.1227                 3.2437                 8.9694

                     22                     23                     24
                      A                      A                      A
 Frequencies --    713.8494               787.0757               796.8439
 Red. masses --      1.5076                 1.3171                 2.9832
 Frc consts  --      0.4526                 0.4807                 1.1160
 IR Inten    --      1.1797                 0.7230                 1.7660

                     25                     26                     27
                      A                      A                      A
 Frequencies --    833.5317               836.3241               856.9750
 Red. masses --      2.4784                 2.1891                 1.6649
 Frc consts  --      1.0145                 0.9021                 0.7204
 IR Inten    --      1.1576                 2.3516                10.3107

                     28                     29                     30
                      A                      A                      A
 Frequencies --    866.7702               881.9299               898.9666
 Red. masses --      2.0807                 1.3951                 1.9740
 Frc consts  --      0.9210                 0.6393                 0.9399
 IR Inten    --      0.4057                38.4467                 1.8541

                     31                     32                     33
                      A                      A                      A
 Frequencies --    902.5131               910.3819               922.0243
 Red. masses --      2.5116                 1.8197                 1.7660
 Frc consts  --      1.2053                 0.8886                 0.8846
 IR Inten    --      0.4728                 4.0798                 2.8931

                     34                     35                     36
                      A                      A                      A
 Frequencies --    941.1976               967.6427               993.8403
 Red. masses --      2.0039                 1.4543                 2.5940
 Frc consts  --      1.0459                 0.8023                 1.5096
 IR Inten    --      0.5172                 0.7193                 3.5478

                     37                     38                     39
                      A                      A                      A
 Frequencies --   1007.9738              1022.9835              1032.7876
 Red. masses --      1.4316                 2.1700                 2.3732
 Frc consts  --      0.8570                 1.3380                 1.4914
 IR Inten    --      0.0948                 0.5618                 0.2575

                     40                     41                     42
                      A                      A                      A
 Frequencies --   1053.8818              1059.1136              1068.4198
 Red. masses --      1.6633                 2.6772                 1.7088
 Frc consts  --      1.0884                 1.7693                 1.1493
 IR Inten    --      0.1184                 2.3530                 1.7813

                     43                     44                     45
                      A                      A                      A
 Frequencies --   1113.5093              1119.7836              1154.0549
 Red. masses --      2.5985                 1.9717                 1.8732
 Frc consts  --      1.8983                 1.4567                 1.4699
 IR Inten    --      1.5077                 1.8209                 0.3184

                     46                     47                     48
                      A                      A                      A
 Frequencies --   1172.8585              1184.1863              1186.3207
 Red. masses --      1.8129                 1.7130                 1.4936
 Frc consts  --      1.4694                 1.4153                 1.2384
 IR Inten    --      1.4236                 0.7437                 1.0182

                     49                     50                     51
                      A                      A                      A
 Frequencies --   1199.2863              1211.0039              1226.8797
 Red. masses --      1.5729                 1.5885                 1.4033
 Frc consts  --      1.3329                 1.3725                 1.2445
 IR Inten    --      0.2133                 0.7388                 0.5010

                     52                     53                     54
                      A                      A                      A
 Frequencies --   1238.0325              1243.1582              1270.9601
 Red. masses --      1.4106                 1.3676                 1.2946
 Frc consts  --      1.2738                 1.2452                 1.2321
 IR Inten    --      0.1328                 0.2432                 2.3492

                     55                     56                     57
                      A                      A                      A
 Frequencies --   1296.2042              1299.2248              1300.7539
 Red. masses --      1.2848                 2.3435                 1.3193
 Frc consts  --      1.2719                 2.3307                 1.3152
 IR Inten    --      0.8878                 2.8558                 0.7679

                     58                     59                     60
                      A                      A                      A
 Frequencies --   1311.3163              1322.6159              1332.3878
 Red. masses --      1.2360                 1.2504                 1.3494
 Frc consts  --      1.2522                 1.2888                 1.4114
 IR Inten    --      1.2780                 1.4251                 2.9129

                     61                     62                     63
                      A                      A                      A
 Frequencies --   1341.2510              1345.2578              1354.6530
 Red. masses --      1.3327                 1.3660                 1.3748
 Frc consts  --      1.4126                 1.4565                 1.4864
 IR Inten    --      0.5195                 2.6357                 4.5560

                     64                     65                     66
                      A                      A                      A
 Frequencies --   1375.9797              1387.5922              1409.8814
 Red. masses --      1.5748                 1.4017                 1.2252
 Frc consts  --      1.7567                 1.5901                 1.4349
 IR Inten    --      0.1508                 7.3221                 5.4902

                     67                     68                     69
                      A                      A                      A
 Frequencies --   1450.1945              1479.6475              1489.3569
 Red. masses --      1.1695                 1.0933                 1.0825
 Frc consts  --      1.4491                 1.4103                 1.4147
 IR Inten    --      0.1874                 3.3122                 0.1691

                     70                     71                     72
                      A                      A                      A
 Frequencies --   1490.2322              1495.5835              1498.9741
 Red. masses --      1.0844                 1.0866                 1.0551
 Frc consts  --      1.4189                 1.4320                 1.3968
 IR Inten    --      2.5878                 1.3161                 0.5153

                     73                     74                     75
                      A                      A                      A
 Frequencies --   1499.7119              1516.5127              1655.8335
 Red. masses --      1.0450                 1.1045                 7.5631
 Frc consts  --      1.3848                 1.4966                12.2175
 IR Inten    --      3.0475                 1.2241                32.7901

                     76                     77                     78
                      A                      A                      A
 Frequencies --   1745.6479              2993.7455              3020.3453
 Red. masses --      7.3460                 1.0830                 1.0788
 Frc consts  --     13.1890                 5.7190                 5.7985
 IR Inten    --     24.5998                11.6558                18.6889

                     79                     80                     81
                      A                      A                      A
 Frequencies --   3022.3451              3025.4307              3026.8005
 Red. masses --      1.0614                 1.0562                 1.0575
 Frc consts  --      5.7124                 5.6962                 5.7082
 IR Inten    --      9.6207                 6.8328                36.1242

                     82                     83                     84
                      A                      A                      A
 Frequencies --   3030.6220              3036.7756              3043.5584
 Red. masses --      1.0619                 1.0642                 1.0814
 Frc consts  --      5.7463                 5.7822                 5.9022
 IR Inten    --     49.6398                39.5457                 9.4738

                     85                     86                     87
                      A                      A                      A
 Frequencies --   3046.5983              3052.7794              3075.0256
 Red. masses --      1.0763                 1.0699                 1.0971
 Frc consts  --      5.8861                 5.8744                 6.1123
 IR Inten    --     17.4662                61.4869                16.7681

                     88                     89                     90
                      A                      A                      A
 Frequencies --   3079.1441              3085.9406              3087.3506
 Red. masses --      1.0987                 1.1003                 1.0977
 Frc consts  --      6.1372                 6.1738                 6.1647
 IR Inten    --     32.6799                26.8100                18.7116

                     91                     92                     93
                      A                      A                      A
 Frequencies --   3092.1271              3099.0866              3103.3439
 Red. masses --      1.1010                 1.1041                 1.1002
 Frc consts  --      6.2025                 6.2479                 6.2426
 IR Inten    --     34.2383                81.4471                25.9810

                     94                     95                     96
                      A                      A                      A
 Frequencies --   3143.2014              3194.5568              3223.7509
 Red. masses --      1.0598                 1.0992                 1.1146
 Frc consts  --      6.1691                 6.6092                 6.8246
 IR Inten    --      6.5635                20.2627                10.4131

 - Thermochemistry -
 -------------------
 Temperature   298.150 Kelvin.  Pressure   1.00000 Atm.
 Atom     1 has atomic number  6 and mass  12.00000

 Molecular mass:   188.15650 amu.
 Principal axes and moments of inertia in atomic units:
                           1         2         3
     Eigenvalues --  1646.514023841.644334547.75468
           X            0.99996   0.00679  -0.00644
           Y           -0.00685   0.99994  -0.00877
           Z            0.00638   0.00881   0.99994
 This molecule is an asymmetric top.
 Rotational symmetry number  1.
 Warning -- assumption of classical behavior for rotation
           may cause significant error
 Rotational temperatures (Kelvin)      0.05260     0.02255     0.01905
 Rotational constants (GHZ):           1.09610     0.46978     0.39684
 Zero-point vibrational energy     799948.9 (Joules/Mol)
                                  191.19237 (Kcal/Mol)
 Warning -- explicit consideration of  19 degrees of freedom as
           vibrations may cause significant error
 Vibrational temperatures:     37.47    79.09   104.51   172.13   189.26
          (Kelvin)            196.57   289.64   339.73   379.72   402.58
                              443.44   494.85   548.01   579.72   710.78
                              788.50   849.05   860.26   885.09   970.50
                             1016.15  1027.07  1132.43  1146.48  1199.27
                             1203.28  1233.00  1247.09  1268.90  1293.41
                             1298.51  1309.84  1326.59  1354.17  1392.22
                             1429.91  1450.25  1471.85  1485.95  1516.30
                             1523.83  1537.22  1602.09  1611.12  1660.43
                             1687.48  1703.78  1706.85  1725.51  1742.36
                             1765.21  1781.25  1788.63  1828.63  1864.95
                             1869.29  1871.49  1886.69  1902.95  1917.01
                             1929.76  1935.53  1949.04  1979.73  1996.44
                             2028.50  2086.51  2128.88  2142.85  2144.11
                             2151.81  2156.69  2157.75  2181.92  2382.38
                             2511.60  4307.33  4345.60  4348.48  4352.92
                             4354.89  4360.39  4369.24  4379.00  4383.38
                             4392.27  4424.28  4430.20  4439.98  4442.01
                             4448.88  4458.89  4465.02  4522.37  4596.25
                             4638.26

 Zero-point correction=                           0.304684 (Hartree/Particle)
 Thermal correction to Energy=                    0.318063
 Thermal correction to Enthalpy=                  0.319007
 Thermal correction to Gibbs Free Energy=         0.264027
 Sum of electronic and zero-point Energies=           -545.183025
 Sum of electronic and thermal Energies=              -545.169646
 Sum of electronic and thermal Enthalpies=            -545.168702
 Sum of electronic and thermal Free Energies=         -545.223683

                     E (Thermal)             CV                S
                      KCal/Mol        Cal/Mol-Kelvin    Cal/Mol-Kelvin
 Total                  199.588             53.111            115.716
 Electronic               0.000              0.000              0.000
 Translational            0.889              2.981             41.602
 Rotational               0.889              2.981             31.731
 Vibrational            197.810             47.149             42.383
 Vibration     1          0.593              1.985              6.110
 Vibration     2          0.596              1.976              4.630
 Vibration     3          0.599              1.967              4.081
 Vibration     4          0.609              1.933              3.106
 Vibration     5          0.612              1.922              2.923
 Vibration     6          0.614              1.917              2.851
 Vibration     7          0.638              1.838              2.121
 Vibration     8          0.655              1.785              1.832
 Vibration     9          0.670              1.739              1.636
 Vibration    10          0.680              1.711              1.535
 Vibration    11          0.698              1.658              1.372
 Vibration    12          0.723              1.588              1.194
 Vibration    13          0.751              1.511              1.036
 Vibration    14          0.768              1.464              0.952
 Vibration    15          0.850              1.263              0.673
 Vibration    16          0.903              1.144              0.548
 Vibration    17          0.947              1.053              0.467
 Vibration    18          0.956              1.036              0.453
 Vibration    19          0.975              1.000              0.424

                           ! Non-Optimized Parameters !
 Normal termination of Gaussian 16 at Tue May 23 15:52:18 2023.
