 Gaussian 16, Revision A.03,
 Gaussian 16:  ES64L-G16RevA.03 25-Dec-2016

 -----------------------------
 # opt freq b3lyp/6-31g(2df,p)
 -----------------------------

 -------------------
 Title Card Required
 -------------------
 Symbolic Z-matrix:
 Charge =  0 Multiplicity = 1

 SCF Done:  E(RB3LYP) =  -466.645699242     A.U. after   14 cycles
 SCF Done:  E(RB3LYP) =  -466.696927870     A.U. after   12 cycles
 SCF Done:  E(RB3LYP) =  -466.759445420     A.U. after   13 cycles
 SCF Done:  E(RB3LYP) =  -466.784943315     A.U. after   12 cycles
 SCF Done:  E(RB3LYP) =  -466.797904630     A.U. after   11 cycles
 SCF Done:  E(RB3LYP) =  -466.802908926     A.U. after   11 cycles
 SCF Done:  E(RB3LYP) =  -466.805035133     A.U. after   11 cycles
 SCF Done:  E(RB3LYP) =  -466.805327888     A.U. after   11 cycles
 SCF Done:  E(RB3LYP) =  -466.805397605     A.U. after   10 cycles
 SCF Done:  E(RB3LYP) =  -466.805411914     A.U. after   10 cycles
 SCF Done:  E(RB3LYP) =  -466.805423877     A.U. after    8 cycles
 SCF Done:  E(RB3LYP) =  -466.805428503     A.U. after    8 cycles
 SCF Done:  E(RB3LYP) =  -466.805429627     A.U. after    8 cycles
 SCF Done:  E(RB3LYP) =  -466.805429873     A.U. after    7 cycles
 Optimization completed.
    -- Stationary point found.
 Normal termination of Gaussian 16 at Sun May 28 10:00:00 2023.

 ----------------------------------------------------------------------
 #N Geom=AllCheck Guess=TCheck SCRF=Check GenChk RB3LYP/6-31G(2df,p) Fr
 eq
 ----------------------------------------------------------------------

 Structure from the checkpoint file:  "C1dCC2CdCqCCC2rC2CC2C1.chk"
 -------------------
 Title Card Required
 -------------------
 Charge =  0 Multiplicity = 1

                         Standard orientation:
 ---------------------------------------------------------------------
 Center     Atomic      Atomic             Coordinates (Angstroms)
 Number     Number       Type             X           Y           Z
 ---------------------------------------------------------------------
      1          6           0       -0.790811    1.932611   -0.096424
      2          6           0        0.448308    1.580524   -0.461127
      3          6           0        1.562817    1.107826    0.501579
      4          6           0        0.655071    0.151000    1.282120
      5          6           0        0.098406   -0.875969    0.619632
      6          6           0        0.875641   -1.489655   -0.521997
      7          6           0        2.373475   -1.159069   -0.390684
      8          6           0        2.672041    0.355322   -0.272118
      9          6           0       -1.384803   -1.067303    0.766505
     10          6           0       -2.276350   -1.439173   -0.386074
     11          6           0       -2.347873   -0.019177    0.135103
     12          6           0       -1.973825    1.227991   -0.728099
     13          1           0       -0.968649    2.353367    0.893311
     14          1           0        0.541565    1.112993   -1.442286
     15          1           0        1.974082    1.896912    1.135623
     16          1           0        0.091697    0.619039    2.086228
     17          1           0        0.494680   -1.149293   -1.496870
     18          1           0        0.733645   -2.578794   -0.523064
     19          1           0        2.933186   -1.585636   -1.229565
     20          1           0        2.737356   -1.653938    0.516945
     21          1           0        2.784167    0.802737   -1.266068
     22          1           0        3.634052    0.485528    0.233224
     23          1           0       -1.722704   -1.401905    1.744953
     24          1           0       -3.113900   -2.109118   -0.216571
     25          1           0       -1.808347   -1.572447   -1.357011
     26          1           0       -3.199255    0.183015    0.779133
     27          1           0       -2.871019    1.852637   -0.803389
     28          1           0       -1.713138    0.915336   -1.745086
 ---------------------------------------------------------------------

 SCF Done:  E(RB3LYP) =  -466.805429873     A.U. after    1 cycles

 The electronic state is 1-A.
 Alpha  occ. eigenvalues --  -10.19652 -10.19093 -10.19051 -10.18701 -10.18258
 Alpha  occ. eigenvalues --  -10.17831 -10.17813 -10.17629 -10.17389 -10.17302
 Alpha  occ. eigenvalues --  -10.16849 -10.16842  -0.86411  -0.83034  -0.78323
 Alpha  occ. eigenvalues --   -0.74024  -0.73250  -0.67172  -0.62714  -0.60416
 Alpha  occ. eigenvalues --   -0.58038  -0.55063  -0.53896  -0.49247  -0.49091
 Alpha  occ. eigenvalues --   -0.47466  -0.46260  -0.42241  -0.41866  -0.41359
 Alpha  occ. eigenvalues --   -0.39980  -0.39256  -0.38156  -0.36893  -0.35833
 Alpha  occ. eigenvalues --   -0.35291  -0.33827  -0.32022  -0.31585  -0.30070
 Alpha  occ. eigenvalues --   -0.28638  -0.27493  -0.23898  -0.18911
 Alpha virt. eigenvalues --   -0.00279   0.01096   0.08446   0.09522   0.09855
 Alpha virt. eigenvalues --    0.12263   0.13365   0.13660   0.14692   0.14770
 Alpha virt. eigenvalues --    0.15538   0.16398   0.17221   0.17909   0.18279

 Mulliken charges:
               1
     1  C   -0.079351
     2  C   -0.042211
     3  C   -0.089032
     4  C   -0.141363
     5  C    0.267831
     6  C   -0.297217
     7  C   -0.195698
     8  C   -0.215939
     9  C   -0.121907
    10  C   -0.308175
    11  C    0.007965
    12  C   -0.276502
    13  H    0.077790
    14  H    0.079584
    15  H    0.078448
    16  H    0.077183
    17  H    0.098195
    18  H    0.102119
    19  H    0.088101
    20  H    0.103484
    21  H    0.099249
    22  H    0.096777
    23  H    0.090294
    24  H    0.107599
    25  H    0.111219
    26  H    0.085298
    27  H    0.097013
    28  H    0.099247
 Sum of Mulliken charges =  -0.00000

 Dipole moment (field-independent basis, Debye):
    X=             -0.2437    Y=             -0.4566    Z=             -0.0094  Tot=              0.5176
 Quadrupole moment (field-independent basis, Debye-Ang):
   XX=            -70.7587   YY=            -75.6978   ZZ=            -72.3698
   XY=              0.5510   XZ=             -1.4771   YZ=              2.2401

  Exact polarizability: 139.165   1.811 115.528  -0.308   6.337  99.330
 Approx polarizability: 200.689   3.613 183.951   1.784  14.162 169.585

                      1                      2                      3
                      A                      A                      A
 Frequencies --     85.7308               173.0455               196.2614
 Red. masses --      2.5947                 2.5980                 2.3560
 Frc consts  --      0.0112                 0.0458                 0.0535
 IR Inten    --      0.3217                 1.5715                 0.3431

                      4                      5                      6
                      A                      A                      A
 Frequencies --    215.1512               279.7500               291.1258
 Red. masses --      2.1007                 3.6604                 2.3299
 Frc consts  --      0.0573                 0.1688                 0.1163
 IR Inten    --      0.5865                 2.9318                 2.0406

                      7                      8                      9
                      A                      A                      A
 Frequencies --    333.8537               375.3750               389.2763
 Red. masses --      2.6602                 2.8486                 3.9618
 Frc consts  --      0.1747                 0.2365                 0.3537
 IR Inten    --      0.9073                 1.4377                 2.9140

                     10                     11                     12
                      A                      A                      A
 Frequencies --    450.9062               453.7435               479.1136
 Red. masses --      2.7352                 2.5683                 2.6963
 Frc consts  --      0.3277                 0.3115                 0.3647
 IR Inten    --      5.7613                 6.8358                 2.5662

                     13                     14                     15
                      A                      A                      A
 Frequencies --    516.2394               543.9520               630.2192
 Red. masses --      3.6420                 3.0779                 3.5060
 Frc consts  --      0.5719                 0.5366                 0.8204
 IR Inten    --      5.2623                 9.3792                 6.6513

                     16                     17                     18
                      A                      A                      A
 Frequencies --    686.0588               723.1988               750.5346
 Red. masses --      2.4594                 3.1643                 2.0837
 Frc consts  --      0.6820                 0.9751                 0.6915
 IR Inten    --      3.2160                 2.0403                 0.5608

                     19                     20                     21
                      A                      A                      A
 Frequencies --    817.4531               825.9740               830.2070
 Red. masses --      2.1517                 1.7735                 2.4307
 Frc consts  --      0.8471                 0.7129                 0.9871
 IR Inten    --     23.1101                 4.8758                18.8778

                     22                     23                     24
                      A                      A                      A
 Frequencies --    839.6382               865.0415               898.8771
 Red. masses --      1.4556                 1.7641                 2.1523
 Frc consts  --      0.6046                 0.7778                 1.0246
 IR Inten    --      3.5690                10.8930                 7.6578

                     25                     26                     27
                      A                      A                      A
 Frequencies --    910.1396               921.8282               954.1262
 Red. masses --      2.0709                 1.7700                 2.5906
 Frc consts  --      1.0107                 0.8862                 1.3895
 IR Inten    --      7.0344                23.5743                 2.5261

                     28                     29                     30
                      A                      A                      A
 Frequencies --    964.8341               989.0438              1016.6618
 Red. masses --      1.9747                 2.5724                 2.1513
 Frc consts  --      1.0831                 1.4826                 1.3101
 IR Inten    --      2.3068                10.6880                13.0541

                     31                     32                     33
                      A                      A                      A
 Frequencies --   1039.4519              1049.5103              1073.9559
 Red. masses --      1.3793                 2.0669                 1.6124
 Frc consts  --      0.8781                 1.3414                 1.0957
 IR Inten    --     13.8640                 4.3886                 5.9532

                     34                     35                     36
                      A                      A                      A
 Frequencies --   1088.6857              1090.9128              1110.5891
 Red. masses --      1.5972                 1.4758                 2.0453
 Frc consts  --      1.1153                 1.0348                 1.4864
 IR Inten    --     13.0495                 5.3227                 1.0609

                     37                     38                     39
                      A                      A                      A
 Frequencies --   1124.8005              1140.1207              1154.5400
 Red. masses --      1.3208                 1.3290                 1.6516
 Frc consts  --      0.9846                 1.0178                 1.2971
 IR Inten    --      1.9447                 2.2839                 0.9738

                     40                     41                     42
                      A                      A                      A
 Frequencies --   1178.9374              1197.1070              1218.4334
 Red. masses --      1.3636                 1.6620                 1.3218
 Frc consts  --      1.1166                 1.4033                 1.1562
 IR Inten    --      0.2474                 1.7889                 0.4003

                     43                     44                     45
                      A                      A                      A
 Frequencies --   1231.5113              1236.7174              1284.9415
 Red. masses --      1.5405                 1.2832                 1.2483
 Frc consts  --      1.3765                 1.1564                 1.2144
 IR Inten    --      1.3821                 1.8712                 2.1847

                     46                     47                     48
                      A                      A                      A
 Frequencies --   1287.9964              1306.1429              1323.9866
 Red. masses --      1.2681                 1.3458                 1.2615
 Frc consts  --      1.2394                 1.3528                 1.3029
 IR Inten    --      0.8908                 5.8116                 0.4981

                     49                     50                     51
                      A                      A                      A
 Frequencies --   1337.6019              1361.0212              1365.1523
 Red. masses --      1.3484                 1.4220                 1.2699
 Frc consts  --      1.4214                 1.5519                 1.3944
 IR Inten    --      1.0008                 0.5679                 1.0571

                     52                     53                     54
                      A                      A                      A
 Frequencies --   1371.9770              1378.0025              1380.1398
 Red. masses --      1.5647                 1.5090                 1.4747
 Frc consts  --      1.7353                 1.6883                 1.6550
 IR Inten    --      2.3635                 1.9152                 2.6909

                     55                     56                     57
                      A                      A                      A
 Frequencies --   1389.0163              1473.4218              1481.2096
 Red. masses --      1.5072                 1.0956                 1.1256
 Frc consts  --      1.7133                 1.4013                 1.4550
 IR Inten    --      0.4405                 3.6015                 1.7371

                     58                     59                     60
                      A                      A                      A
 Frequencies --   1483.3990              1491.2034              1501.3382
 Red. masses --      1.0841                 1.1718                 1.0888
 Frc consts  --      1.4055                 1.5352                 1.4460
 IR Inten    --      2.3057                 7.5999                 2.5903

                     61                     62                     63
                      A                      A                      A
 Frequencies --   1654.6768              1657.7277              2987.9380
 Red. masses --      6.5713                 6.1159                 1.0676
 Frc consts  --     10.6006                 9.9023                 5.6155
 IR Inten    --      0.9567                 2.0207                26.5519

                     64                     65                     66
                      A                      A                      A
 Frequencies --   3022.8860              3027.0634              3034.6450
 Red. masses --      1.0833                 1.0589                 1.0630
 Frc consts  --      5.8325                 5.7169                 5.7676
 IR Inten    --      8.0435                54.7592                36.6456

                     67                     68                     69
                      A                      A                      A
 Frequencies --   3040.5238              3064.1430              3070.1289
 Red. masses --      1.0692                 1.0936                 1.1028
 Frc consts  --      5.8240                 6.0494                 6.1244
 IR Inten    --     41.7326                22.9941                11.9637

                     70                     71                     72
                      A                      A                      A
 Frequencies --   3074.4575              3085.4367              3106.6155
 Red. masses --      1.0921                 1.1027                 1.0872
 Frc consts  --      6.0820                 6.1850                 6.1821
 IR Inten    --     48.2460                40.4840                18.4883

                     73                     74                     75
                      A                      A                      A
 Frequencies --   3116.3637              3118.4250              3119.4546
 Red. masses --      1.0802                 1.0674                 1.0807
 Frc consts  --      6.1810                 6.1159                 6.1958
 IR Inten    --     14.4469                 4.8173                31.7310

                     76                     77                     78
                      A                      A                      A
 Frequencies --   3137.2316              3140.3526              3198.5934
 Red. masses --      1.0891                 1.0892                 1.1146
 Frc consts  --      6.3154                 6.3287                 6.7186
 IR Inten    --     18.9537                42.1804                17.5994

 - Thermochemistry -
 -------------------
 Temperature   298.150 Kelvin.  Pressure   1.00000 Atm.
 Atom     1 has atomic number  6 and mass  12.00000

 Molecular mass:   160.12520 amu.
 Principal axes and moments of inertia in atomic units:
                           1         2         3
     Eigenvalues --  1119.426682003.965732586.75986
           X            0.99997  -0.00443  -0.00560
           Y            0.00458   0.99962   0.02701
           Z            0.00548  -0.02704   0.99962
 This molecule is an asymmetric top.
 Rotational symmetry number  1.
 Warning -- assumption of classical behavior for rotation
           may cause significant error
 Rotational temperatures (Kelvin)      0.07737     0.04322     0.03348
 Rotational constants (GHZ):           1.61220     0.90058     0.69768
 Zero-point vibrational energy     653255.8 (Joules/Mol)
                                  156.13189 (Kcal/Mol)
 Warning -- explicit consideration of  14 degrees of freedom as
           vibrations may cause significant error
 Vibrational temperatures:    123.35   248.97   282.38   309.55   402.50
          (Kelvin)            418.87   480.34   540.08   560.08   648.75
                              652.84   689.34   742.75   782.63   906.74
                              987.09  1040.52  1079.85  1176.13  1188.39
                             1194.48  1208.05  1244.60  1293.28  1309.49
                             1326.31  1372.77  1388.18  1423.01  1462.75
                             1495.54  1510.01  1545.18  1566.38  1569.58
                             1597.89  1618.34  1640.38  1661.13  1696.23
                             1722.37  1753.05  1771.87  1779.36  1848.74
                             1853.14  1879.25  1904.92  1924.51  1958.21
                             1964.15  1973.97  1982.64  1985.71  1998.48
                             2119.93  2131.13  2134.28  2145.51  2160.09
                             2380.71  2385.10  4298.98  4349.26  4355.27
                             4366.18  4374.64  4408.62  4417.23  4423.46
                             4439.26  4469.73  4483.75  4486.72  4488.20
                             4513.78  4518.27  4602.06

 Zero-point correction=                           0.248812 (Hartree/Particle)
 Thermal correction to Energy=                    0.258759
 Thermal correction to Enthalpy=                  0.259704
 Thermal correction to Gibbs Free Energy=         0.214366
 Sum of electronic and zero-point Energies=           -466.556618
 Sum of electronic and thermal Energies=              -466.546670
 Sum of electronic and thermal Enthalpies=            -466.545726
 Sum of electronic and thermal Free Energies=         -466.591064

                     E (Thermal)             CV                S
                      KCal/Mol        Cal/Mol-Kelvin    Cal/Mol-Kelvin
 Total                  162.374             42.671             95.421
 Electronic               0.000              0.000              0.000
 Translational            0.889              2.981             41.121
 Rotational               0.889              2.981             30.141
 Vibrational            160.597             36.709             24.159
 Vibration     1          0.601              1.959              3.755
 Vibration     2          0.627              1.876              2.402
 Vibration     3          0.636              1.845              2.168
 Vibration     4          0.645              1.818              2.000
 Vibration     5          0.680              1.711              1.535
 Vibration     6          0.687              1.690              1.467
 Vibration     7          0.715              1.608              1.241
 Vibration     8          0.746              1.523              1.058
 Vibration     9          0.757              1.493              1.003
 Vibration    10          0.810              1.359              0.793
 Vibration    11          0.812              1.353              0.785
 Vibration    12          0.836              1.296              0.712
 Vibration    13          0.871              1.214              0.619
 Vibration    14          0.899              1.153              0.557

 Optimization completed.
    -- Stationary point found.
 Normal termination of Gaussian 16 at Sun May 28 11:37:43 2023.
