 Gaussian 16, Revision A.03,
 Gaussian 16:  ES64L-G16RevA.03 25-Dec-2016

 -----------------------------
 # opt freq b3lyp/6-31g(2df,p)
 -----------------------------

 -------------------
 Title Card Required
 -------------------
 Symbolic Z-matrix:
 Charge =  0 Multiplicity = 1

 SCF Done:  E(RB3LYP) =  -612.050928455     A.U. after   14 cycles
 SCF Done:  E(RB3LYP) =  -612.063725753     A.U. after   13 cycles
 SCF Done:  E(RB3LYP) =  -612.069083062     A.U. after   13 cycles
 SCF Done:  E(RB3LYP) =  -612.071897281     A.U. after   13 cycles
 SCF Done:  E(RB3LYP) =  -612.073331555     A.U. after   13 cycles
 SCF Done:  E(RB3LYP) =  -612.073915282     A.U. after   12 cycles
 SCF Done:  E(RB3LYP) =  -612.074158634     A.U. after   12 cycles
 SCF Done:  E(RB3LYP) =  -612.074254268     A.U. after   11 cycles
 SCF Done:  E(RB3LYP) =  -612.074281605     A.U. after   10 cycles
 SCF Done:  E(RB3LYP) =  -612.074290001     A.U. after   10 cycles
 SCF Done:  E(RB3LYP) =  -612.074293194     A.U. after   10 cycles
 SCF Done:  E(RB3LYP) =  -612.074294776     A.U. after    8 cycles
 SCF Done:  E(RB3LYP) =  -612.074295849     A.U. after    8 cycles
 SCF Done:  E(RB3LYP) =  -612.074296048     A.U. after    7 cycles
 SCF Done:  E(RB3LYP) =  -612.074296131     A.U. after    7 cycles
 SCF Done:  E(RB3LYP) =  -612.074296172     A.U. after    7 cycles
 SCF Done:  E(RB3LYP) =  -612.074296196     A.U. after    7 cycles
 SCF Done:  E(RB3LYP) =  -612.074296215     A.U. after    7 cycles
 Optimization completed.
    -- Stationary point found.
 Normal termination of Gaussian 16 at Thu May 25 00:10:21 2023.

 ----------------------------------------------------------------------
 #N Geom=AllCheck Guess=TCheck SCRF=Check GenChk RB3LYP/6-31G(2df,p) Fr
 eq
 ----------------------------------------------------------------------

 Structure from the checkpoint file:  "C1dCCdNCqNc2ccccc2rdCCdC1.chk"
 -------------------
 Title Card Required
 -------------------
 Charge =  0 Multiplicity = 1

                         Standard orientation:
 ---------------------------------------------------------------------
 Center     Atomic      Atomic             Coordinates (Angstroms)
 Number     Number       Type             X           Y           Z
 ---------------------------------------------------------------------
      1          6           0       -3.708101    0.649592   -0.891698
      2          6           0       -2.614828    1.416556   -1.018802
      3          6           0       -1.611794    1.615238    0.048338
      4          7           0       -0.862766    0.778010    0.632971
      5          6           0       -0.799701   -0.576980    0.278089
      6          7           0        0.453251   -1.007113   -0.132308
      7          6           0        1.732302   -0.440685   -0.052967
      8          6           0        2.740291   -1.050174   -0.818522
      9          6           0        4.046632   -0.582767   -0.780186
     10          6           0        4.381472    0.509874    0.016495
     11          6           0        3.384972    1.115297    0.777509
     12          6           0        2.072741    0.652984    0.756741
     13          6           0       -1.799741   -1.480356    0.450940
     14          6           0       -3.199138   -1.221652    0.715007
     15          6           0       -4.023779   -0.302221    0.167555
     16          1           0       -4.480881    0.758188   -1.653651
     17          1           0       -2.550442    2.116138   -1.849466
     18          1           0       -1.525072    2.651491    0.398014
     19          1           0        0.437872   -1.927129   -0.542985
     20          1           0        2.487651   -1.897279   -1.450855
     21          1           0        4.804208   -1.074888   -1.381516
     22          1           0        5.399943    0.880335    0.044732
     23          1           0        3.628286    1.962508    1.411118
     24          1           0        1.312764    1.127306    1.359112
     25          1           0       -1.509814   -2.529392    0.441365
     26          1           0       -3.671652   -1.942527    1.382429
     27          1           0       -5.074229   -0.349257    0.446064
 ---------------------------------------------------------------------

 SCF Done:  E(RB3LYP) =  -612.074296215     A.U. after    1 cycles

 The electronic state is 1-A.
 Alpha  occ. eigenvalues --  -14.36086 -14.33607 -10.25608 -10.24367 -10.22588
 Alpha  occ. eigenvalues --  -10.20006 -10.19117 -10.18963 -10.18109 -10.17970
 Alpha  occ. eigenvalues --  -10.17874 -10.17865 -10.17250 -10.17141 -10.16649
 Alpha  occ. eigenvalues --   -0.97285  -0.91764  -0.84002  -0.81012  -0.78397
 Alpha  occ. eigenvalues --   -0.73911  -0.73747  -0.69651  -0.68276  -0.61250
 Alpha  occ. eigenvalues --   -0.60960  -0.58944  -0.56541  -0.52561  -0.52109
 Alpha  occ. eigenvalues --   -0.49266  -0.47985  -0.46460  -0.46161  -0.44024
 Alpha  occ. eigenvalues --   -0.43615  -0.42757  -0.42038  -0.40945  -0.39226
 Alpha  occ. eigenvalues --   -0.38030  -0.35729  -0.35462  -0.34460  -0.33308
 Alpha  occ. eigenvalues --   -0.32150  -0.30077  -0.27907  -0.25642  -0.24386
 Alpha  occ. eigenvalues --   -0.22180  -0.17692
 Alpha virt. eigenvalues --   -0.05513   0.00226   0.00733   0.01856   0.04543
 Alpha virt. eigenvalues --    0.07738   0.09596   0.10316   0.11162   0.12984
 Alpha virt. eigenvalues --    0.14831   0.15439   0.16482   0.16670   0.17461

 Mulliken charges:
               1
     1  C   -0.057360
     2  C   -0.156072
     3  C   -0.016389
     4  N   -0.224579
     5  C    0.375792
     6  N   -0.462368
     7  C    0.389246
     8  C   -0.209756
     9  C   -0.084412
    10  C   -0.134532
    11  C   -0.083069
    12  C   -0.204772
    13  C   -0.228240
    14  C   -0.081245
    15  C   -0.126796
    16  H    0.100948
    17  H    0.101355
    18  H    0.117708
    19  H    0.249192
    20  H    0.079511
    21  H    0.091901
    22  H    0.089675
    23  H    0.092686
    24  H    0.126436
    25  H    0.073749
    26  H    0.092819
    27  H    0.088573
 Sum of Mulliken charges =  -0.00000

 Dipole moment (field-independent basis, Debye):
    X=             -0.7615    Y=             -0.2353    Z=             -1.2724  Tot=              1.5014
 Quadrupole moment (field-independent basis, Debye-Ang):
   XX=            -81.0135   YY=            -78.9384   ZZ=            -87.5611
   XY=             -1.7813   XZ=              0.3341   YZ=              1.2189

  Exact polarizability: 261.296  11.564 138.864  -2.674   3.524  98.016
 Approx polarizability: 379.718  26.070 246.382  -4.674   7.531 169.452

                      1                      2                      3
                      A                      A                      A
 Frequencies --     29.1232                33.2704                99.6263
 Red. masses --      4.9962                 3.9492                 4.7267
 Frc consts  --      0.0025                 0.0026                 0.0276
 IR Inten    --      0.5963                 0.2196                 0.5044

                      4                      5                      6
                      A                      A                      A
 Frequencies --    118.7479               159.0447               196.0577
 Red. masses --      5.2805                 3.0382                 4.3220
 Frc consts  --      0.0439                 0.0453                 0.0979
 IR Inten    --      1.7609                 2.6559                 3.7827

                      7                      8                      9
                      A                      A                      A
 Frequencies --    232.5104               279.6554               293.1378
 Red. masses --      4.1606                 4.1685                 5.3680
 Frc consts  --      0.1325                 0.1921                 0.2718
 IR Inten    --      2.0242                 3.8469                 2.8331

                     10                     11                     12
                      A                      A                      A
 Frequencies --    334.3039               372.4089               406.0663
 Red. masses --      4.4009                 4.1747                 2.9464
 Frc consts  --      0.2898                 0.3411                 0.2862
 IR Inten    --      7.4607                24.5890                22.1065

                     13                     14                     15
                      A                      A                      A
 Frequencies --    417.4616               499.2793               516.9754
 Red. masses --      3.2013                 1.3398                 2.7092
 Frc consts  --      0.3287                 0.1968                 0.4266
 IR Inten    --      0.2762                62.2437                 1.2203

                     16                     17                     18
                      A                      A                      A
 Frequencies --    543.2367               604.9777               627.1779
 Red. masses --      3.0679                 5.2575                 6.1990
 Frc consts  --      0.5334                 1.1337                 1.4367
 IR Inten    --      3.3185                16.4600                 3.6223

                     19                     20                     21
                      A                      A                      A
 Frequencies --    659.8460               688.9848               709.5845
 Red. masses --      2.6125                 2.2703                 2.1143
 Frc consts  --      0.6702                 0.6350                 0.6272
 IR Inten    --     34.0448                33.5699                12.7846

                     22                     23                     24
                      A                      A                      A
 Frequencies --    714.2790               758.0338               763.6854
 Red. masses --      2.2301                 3.1551                 1.9329
 Frc consts  --      0.6704                 1.0682                 0.6642
 IR Inten    --      7.1340                 4.1500                56.7350

                     25                     26                     27
                      A                      A                      A
 Frequencies --    779.9511               809.1744               820.3437
 Red. masses --      2.0614                 2.5858                 2.7272
 Frc consts  --      0.7388                 0.9975                 1.0813
 IR Inten    --     20.2449                30.1819                12.6694

                     28                     29                     30
                      A                      A                      A
 Frequencies --    845.3664               865.0467               903.0138
 Red. masses --      1.2921                 3.7686                 1.4400
 Frc consts  --      0.5440                 1.6615                 0.6918
 IR Inten    --      0.4585                 6.9926                 4.6868

                     31                     32                     33
                      A                      A                      A
 Frequencies --    911.3724               942.5953               947.4408
 Red. masses --      2.9140                 3.6836                 2.1734
 Frc consts  --      1.4260                 1.9283                 1.1495
 IR Inten    --      2.6553                14.8682                 5.6761

                     34                     35                     36
                      A                      A                      A
 Frequencies --    949.3873               982.9011               987.3288
 Red. masses --      1.3265                 1.2377                 1.2977
 Frc consts  --      0.7045                 0.7045                 0.7453
 IR Inten    --      0.1862                 0.7512                 9.2154

                     37                     38                     39
                      A                      A                      A
 Frequencies --   1003.4884              1007.9564              1011.8602
 Red. masses --      1.3942                 5.2211                 2.0570
 Frc consts  --      0.8272                 3.1253                 1.2408
 IR Inten    --      2.0280                 3.2864                 1.3509

                     40                     41                     42
                      A                      A                      A
 Frequencies --   1053.2584              1086.9747              1109.5284
 Red. masses --      2.1921                 1.9573                 1.5735
 Frc consts  --      1.4328                 1.3626                 1.1413
 IR Inten    --      4.0637                 9.6455                 3.4495

                     43                     44                     45
                      A                      A                      A
 Frequencies --   1180.9591              1205.8311              1229.1517
 Red. masses --      1.0782                 1.1285                 2.2213
 Frc consts  --      0.8860                 0.9668                 1.9773
 IR Inten    --      0.8014                 6.8263                17.5310

                     46                     47                     48
                      A                      A                      A
 Frequencies --   1235.7874              1266.0886              1287.9849
 Red. masses --      1.1063                 1.2780                 1.6037
 Frc consts  --      0.9954                 1.2070                 1.5675
 IR Inten    --      1.2674                28.9264                50.8670

                     49                     50                     51
                      A                      A                      A
 Frequencies --   1347.9636              1355.2755              1375.3855
 Red. masses --      1.8738                 2.3369                 1.8856
 Frc consts  --      2.0060                 2.5290                 2.1016
 IR Inten    --     48.5908                70.8428               179.2632

                     52                     53                     54
                      A                      A                      A
 Frequencies --   1412.2510              1425.3566              1454.0332
 Red. masses --      1.4171                 1.5952                 1.6138
 Frc consts  --      1.6652                 1.9094                 2.0103
 IR Inten    --     55.1102                91.4321                 2.7667

                     55                     56                     57
                      A                      A                      A
 Frequencies --   1477.7329              1526.5189              1544.3332
 Red. masses --      2.1028                 2.0874                 2.1793
 Frc consts  --      2.7055                 2.8659                 3.0623
 IR Inten    --      7.7932               142.5875                96.4580

                     58                     59                     60
                      A                      A                      A
 Frequencies --   1620.9454              1630.2230              1645.4244
 Red. masses --      6.7970                 5.0567                 6.0297
 Frc consts  --     10.5221                 7.9179                 9.6184
 IR Inten    --    267.7120               386.3665                32.0451

                     61                     62                     63
                      A                      A                      A
 Frequencies --   1667.4729              1685.2391              1768.5168
 Red. masses --      4.8988                 6.0639                11.2179
 Frc consts  --      8.0253                10.1466                20.6719
 IR Inten    --    246.7292                25.5174                73.8452

                     64                     65                     66
                      A                      A                      A
 Frequencies --   3047.5510              3111.8088              3115.0415
 Red. masses --      1.0849                 1.0826                 1.0838
 Frc consts  --      5.9369                 6.1764                 6.1963
 IR Inten    --     38.3822                26.3345                17.1221

                     67                     68                     69
                      A                      A                      A
 Frequencies --   3131.7585              3149.2731              3153.4603
 Red. masses --      1.0862                 1.0896                 1.0868
 Frc consts  --      6.2770                 6.3672                 6.3673
 IR Inten    --     30.1571                28.2867                13.6759

                     70                     71                     72
                      A                      A                      A
 Frequencies --   3153.8885              3171.2193              3180.5479
 Red. masses --      1.0919                 1.0859                 1.0914
 Frc consts  --      6.3992                 6.4343                 6.5047
 IR Inten    --     20.2079                 1.9389                25.6328

                     73                     74                     75
                      A                      A                      A
 Frequencies --   3199.0175              3246.0334              3630.1309
 Red. masses --      1.0967                 1.0913                 1.0749
 Frc consts  --      6.6128                 6.7750                 8.3457
 IR Inten    --     24.1351                 0.7483                25.1162

 - Thermochemistry -
 -------------------
 Temperature   298.150 Kelvin.  Pressure   1.00000 Atm.
 Atom     1 has atomic number  6 and mass  12.00000

 Molecular mass:   196.10005 amu.
 Principal axes and moments of inertia in atomic units:
                           1         2         3
     Eigenvalues --  1058.364265807.845816265.57483
           X            1.00000   0.00188   0.00015
           Y           -0.00188   0.99993   0.01204
           Z           -0.00012  -0.01204   0.99993
 This molecule is an asymmetric top.
 Rotational symmetry number  1.
 Warning -- assumption of classical behavior for rotation
           may cause significant error
 Rotational temperatures (Kelvin)      0.08184     0.01491     0.01382
 Rotational constants (GHZ):           1.70522     0.31074     0.28804
 Zero-point vibrational energy     572453.0 (Joules/Mol)
                                  136.81955 (Kcal/Mol)
 Warning -- explicit consideration of  17 degrees of freedom as
           vibrations may cause significant error
 Vibrational temperatures:     41.90    47.87   143.34   170.85   228.83
          (Kelvin)            282.08   334.53   402.36   421.76   480.99
                              535.81   584.24   600.63   718.35   743.81
                              781.60   870.43   902.37   949.37   991.30
                             1020.93  1027.69  1090.64  1098.77  1122.18
                             1164.22  1180.29  1216.29  1244.61  1299.24
                             1311.26  1356.18  1363.16  1365.96  1414.18
                             1420.55  1443.80  1450.22  1455.84  1515.40
                             1563.91  1596.36  1699.14  1734.92  1768.48
                             1778.02  1821.62  1853.12  1939.42  1949.94
                             1978.87  2031.91  2050.77  2092.03  2126.13
                             2196.32  2221.95  2332.18  2345.53  2367.40
                             2399.12  2424.68  2544.50  4384.75  4477.20
                             4481.85  4505.90  4531.10  4537.13  4537.74
                             4562.68  4576.10  4602.67  4670.32  5222.95

 Zero-point correction=                           0.218036 (Hartree/Particle)
 Thermal correction to Energy=                    0.230554
 Thermal correction to Enthalpy=                  0.231498
 Thermal correction to Gibbs Free Energy=         0.177981
 Sum of electronic and zero-point Energies=           -611.856260
 Sum of electronic and thermal Energies=              -611.843742
 Sum of electronic and thermal Enthalpies=            -611.842798
 Sum of electronic and thermal Free Energies=         -611.896316

                     E (Thermal)             CV                S
                      KCal/Mol        Cal/Mol-Kelvin    Cal/Mol-Kelvin
 Total                  144.675             49.552            112.638
 Electronic               0.000              0.000              0.000
 Translational            0.889              2.981             41.725
 Rotational               0.889              2.981             32.021
 Vibrational            142.897             43.590             38.891
 Vibration     1          0.593              1.984              5.888
 Vibration     2          0.594              1.983              5.624
 Vibration     3          0.604              1.949              3.462
 Vibration     4          0.609              1.934              3.121
 Vibration     5          0.621              1.892              2.561
 Vibration     6          0.636              1.845              2.170
 Vibration     7          0.653              1.791              1.859
 Vibration     8          0.680              1.711              1.536
 Vibration     9          0.688              1.687              1.456
 Vibration    10          0.716              1.607              1.239
 Vibration    11          0.744              1.529              1.070
 Vibration    12          0.771              1.457              0.941
 Vibration    13          0.780              1.432              0.901
 Vibration    14          0.855              1.252              0.660
 Vibration    15          0.872              1.212              0.617
 Vibration    16          0.898              1.155              0.558
 Vibration    17          0.964              1.021              0.441

                           ! Non-Optimized Parameters !
 Normal termination of Gaussian 16 at Thu May 25 02:12:13 2023.
