 Gaussian 16, Revision A.03,
 Gaussian 16:  ES64L-G16RevA.03 25-Dec-2016

 -----------------------------
 # opt freq b3lyp/6-31g(2df,p)
 -----------------------------

 -------------------
 Title Card Required
 -------------------
 Symbolic Z-matrix:
 Charge =  0 Multiplicity = 1

 SCF Done:  E(RB3LYP) =  -573.841556146     A.U. after   25 cycles
 SCF Done:  E(RB3LYP) =  -574.247255838     A.U. after   19 cycles
 SCF Done:  E(RB3LYP) =  -574.757997506     A.U. after   19 cycles
 SCF Done:  E(RB3LYP) =  -575.112926336     A.U. after   20 cycles
 SCF Done:  E(RB3LYP) =  -575.153293524     A.U. after   18 cycles
 SCF Done:  E(RB3LYP) =  -575.372127129     A.U. after   17 cycles
 SCF Done:  E(RB3LYP) =  -575.517935880     A.U. after   16 cycles
 SCF Done:  E(RB3LYP) =  -575.614244699     A.U. after   17 cycles
 SCF Done:  E(RB3LYP) =  -575.687605185     A.U. after   15 cycles
 SCF Done:  E(RB3LYP) =  -575.745347238     A.U. after   16 cycles
 SCF Done:  E(RB3LYP) =  -576.238785055     A.U. after    8 cycles
 SCF Done:  E(RB3LYP) =  -576.238785338     A.U. after    8 cycles
 SCF Done:  E(RB3LYP) =  -576.238785525     A.U. after    7 cycles
 SCF Done:  E(RB3LYP) =  -576.238785696     A.U. after    7 cycles
 SCF Done:  E(RB3LYP) =  -576.238785812     A.U. after    6 cycles
 SCF Done:  E(RB3LYP) =  -576.238785940     A.U. after    6 cycles
 SCF Done:  E(RB3LYP) =  -576.238786057     A.U. after    7 cycles
 SCF Done:  E(RB3LYP) =  -576.238786234     A.U. after    7 cycles
 SCF Done:  E(RB3LYP) =  -576.238786305     A.U. after    6 cycles
 Optimization completed.
    -- Stationary point found.
 Normal termination of Gaussian 16 at Sat May 27 22:58:12 2023.

 ----------------------------------------------------------------------
 #N Geom=AllCheck Guess=TCheck SCRF=Check GenChk RB3LYP/6-31G(2df,p) Fr
 eq
 ----------------------------------------------------------------------

 Structure from the checkpoint file:  "C1dCCCNCCdCC2dCCqdC1rNC2.chk"
 -------------------
 Title Card Required
 -------------------
 Charge =  0 Multiplicity = 1

                         Standard orientation:
 ---------------------------------------------------------------------
 Center     Atomic      Atomic             Coordinates (Angstroms)
 Number     Number       Type             X           Y           Z
 ---------------------------------------------------------------------
      1          6           0        4.398358    0.880869    0.016179
      2          6           0        5.036743   -0.453830    0.297765
      3          6           0        3.582507   -0.225424    0.633509
      4          6           0        2.523401   -0.945081   -0.164468
      5          7           0        1.194293   -0.323820   -0.046756
      6          6           0        0.050770   -1.187557   -0.397197
      7          6           0       -1.236565   -0.675431    0.173115
      8          6           0       -2.332685   -0.440964   -0.548362
      9          6           0       -3.638106    0.027648   -0.016549
     10          6           0       -3.664265    1.010836    1.056237
     11          6           0        0.968221    2.113209   -0.764403
     12          6           0        1.089345    0.963687   -0.422341
     13          7           0       -3.855299   -0.138534    1.518082
     14          6           0       -4.841993   -0.187654   -0.908974
     15          1           0        5.742943   -0.532244    1.116588
     16          1           0        5.267331   -1.094814   -0.547407
     17          1           0        4.664897    1.725715    0.640733
     18          1           0        3.338378   -0.117739    1.686297
     19          1           0        2.416645   -1.971205    0.205420
     20          1           0        2.838001   -1.012945   -1.219904
     21          1           0        0.861972    3.132178   -1.036876
     22          1           0        0.275223   -2.174521    0.027030
     23          1           0       -0.037859   -1.312884   -1.488112
     24          1           0       -1.247535   -0.515636    1.248556
     25          1           0       -2.302091   -0.607091   -1.624497
     26          1           0       -3.546407    2.029220    1.409401
     27          1           0        4.191717    1.140281   -1.016052
     28          1           0       -5.756405    0.158769   -0.422180
     29          1           0       -4.729778    0.357019   -1.854061
     30          1           0       -4.964381   -1.249470   -1.151274
 ---------------------------------------------------------------------

 SCF Done:  E(RB3LYP) =  -576.238786305     A.U. after    1 cycles

 The electronic state is 1-A.
 Alpha  occ. eigenvalues --  -14.35300 -14.34740 -10.23825 -10.23346 -10.22150
 Alpha  occ. eigenvalues --  -10.21936 -10.19031 -10.18973 -10.18561 -10.18369
 Alpha  occ. eigenvalues --  -10.18213 -10.18087 -10.18063 -10.15160  -0.98844
 Alpha  occ. eigenvalues --   -0.94620  -0.85432  -0.79397  -0.74549  -0.73144
 Alpha  occ. eigenvalues --   -0.70570  -0.66521  -0.60303  -0.59638  -0.58712
 Alpha  occ. eigenvalues --   -0.57362  -0.54474  -0.52854  -0.49510  -0.48997
 Alpha  occ. eigenvalues --   -0.47345  -0.46761  -0.45818  -0.44980  -0.43300
 Alpha  occ. eigenvalues --   -0.41888  -0.40279  -0.39629  -0.37690  -0.36975
 Alpha  occ. eigenvalues --   -0.36083  -0.35672  -0.34458  -0.31423  -0.30118
 Alpha  occ. eigenvalues --   -0.29515  -0.29275  -0.28240  -0.25497  -0.22984
 Alpha  occ. eigenvalues --   -0.20037
 Alpha virt. eigenvalues --   -0.01442   0.00562   0.06361   0.07857   0.10034
 Alpha virt. eigenvalues --    0.10516   0.10903   0.11741   0.11873   0.12896
 Alpha virt. eigenvalues --    0.13282   0.14008   0.14388   0.15393   0.15442

 Mulliken charges:
               1
     1  C   -0.239010
     2  C   -0.282373
     3  C    0.024866
     4  C   -0.185768
     5  N   -0.230378
     6  C   -0.229381
     7  C   -0.081920
     8  C   -0.071535
     9  C    0.261151
    10  C   -0.091144
    11  C   -0.264966
    12  C    0.202365
    13  N   -0.201761
    14  C   -0.463704
    15  H    0.112611
    16  H    0.109810
    17  H    0.113848
    18  H    0.091133
    19  H    0.106364
    20  H    0.093967
    21  H    0.171444
    22  H    0.113978
    23  H    0.099236
    24  H    0.104628
    25  H    0.084909
    26  H    0.158140
    27  H    0.118786
    28  H    0.123991
    29  H    0.121832
    30  H    0.128878
 Sum of Mulliken charges =  -0.00000

 Dipole moment (field-independent basis, Debye):
    X=              0.3699    Y=              0.3422    Z=             -1.2049  Tot=              1.3060
 Quadrupole moment (field-independent basis, Debye-Ang):
   XX=            -81.4516   YY=            -78.5483   ZZ=            -84.8756
   XY=             -8.3282   XZ=              6.4390   YZ=              3.3825

  Exact polarizability: 168.957  -8.701 130.964   3.463   0.821 111.209
 Approx polarizability: 198.927 -15.391 220.906   4.470 -10.361 181.824

                      1                      2                      3
                      A                      A                      A
 Frequencies --     22.8496                25.4087                40.1939
 Red. masses --      4.7664                 3.5030                 4.0149
 Frc consts  --      0.0015                 0.0013                 0.0038
 IR Inten    --      0.8905                 1.3366                 0.2143

                      4                      5                      6
                      A                      A                      A
 Frequencies --     57.5936                93.0034               110.1671
 Red. masses --      2.8509                 3.3568                 2.4472
 Frc consts  --      0.0056                 0.0171                 0.0175
 IR Inten    --      0.0722                 0.6136                 1.4376

                      7                      8                      9
                      A                      A                      A
 Frequencies --    131.0372               160.0784               170.7605
 Red. masses --      3.9401                 1.4727                 1.8357
 Frc consts  --      0.0399                 0.0222                 0.0315
 IR Inten    --      0.4863                 0.2935                 0.5582

                     10                     11                     12
                      A                      A                      A
 Frequencies --    191.2775               206.4667               254.1196
 Red. masses --      3.2318                 4.2541                 2.9762
 Frc consts  --      0.0697                 0.1068                 0.1132
 IR Inten    --      4.1387                 0.6559                 3.6700

                     13                     14                     15
                      A                      A                      A
 Frequencies --    288.4838               347.3593               362.8805
 Red. masses --      2.9277                 2.4917                 1.6161
 Frc consts  --      0.1436                 0.1771                 0.1254
 IR Inten    --      1.2127                 1.3264                50.5835

                     16                     17                     18
                      A                      A                      A
 Frequencies --    372.4518               377.4404               410.1050
 Red. masses --      2.6928                 2.6853                 2.3588
 Frc consts  --      0.2201                 0.2254                 0.2337
 IR Inten    --      6.1319                15.1049                 0.9536

                     19                     20                     21
                      A                      A                      A
 Frequencies --    429.3954               475.9010               537.3959
 Red. masses --      2.9984                 4.1139                 3.2403
 Frc consts  --      0.3257                 0.5490                 0.5514
 IR Inten    --      1.3227                11.1321                 2.1173

                     22                     23                     24
                      A                      A                      A
 Frequencies --    570.0602               653.9425               663.1436
 Red. masses --      3.6046                 4.4527                 4.2643
 Frc consts  --      0.6902                 1.1219                 1.1049
 IR Inten    --      0.1908                12.2660                 3.9987

                     25                     26                     27
                      A                      A                      A
 Frequencies --    680.8406               768.2254               785.9181
 Red. masses --      1.2520                 1.1909                 2.1077
 Frc consts  --      0.3419                 0.4141                 0.7670
 IR Inten    --     33.6973                 2.1626                 8.7613

                     28                     29                     30
                      A                      A                      A
 Frequencies --    805.3992               819.1081               832.3014
 Red. masses --      1.5312                 1.8132                 2.3120
 Frc consts  --      0.5852                 0.7168                 0.9436
 IR Inten    --     11.3581                24.7346                 2.9661

                     31                     32                     33
                      A                      A                      A
 Frequencies --    848.5534               870.8495               909.8969
 Red. masses --      1.9750                 2.2464                 1.7248
 Frc consts  --      0.8379                 1.0037                 0.8413
 IR Inten    --     12.7040                 2.7803                 4.6617

                     34                     35                     36
                      A                      A                      A
 Frequencies --    953.3951               964.7914               996.7365
 Red. masses --      2.1258                 1.9561                 1.8699
 Frc consts  --      1.1385                 1.0728                 1.0945
 IR Inten    --     10.6781                10.9879                24.5246

                     37                     38                     39
                      A                      A                      A
 Frequencies --   1015.8591              1029.3600              1061.6140
 Red. masses --      1.0980                 1.9960                 1.4418
 Frc consts  --      0.6676                 1.2461                 0.9574
 IR Inten    --     24.6931                11.2469                 5.7956

                     40                     41                     42
                      A                      A                      A
 Frequencies --   1063.4353              1078.8919              1080.0495
 Red. masses --      1.6413                 1.3841                 1.7069
 Frc consts  --      1.0936                 0.9492                 1.1731
 IR Inten    --      2.5990                 4.8805                 9.4868

                     43                     44                     45
                      A                      A                      A
 Frequencies --   1124.0927              1130.0087              1146.3138
 Red. masses --      1.9505                 1.7119                 1.7582
 Frc consts  --      1.4521                 1.2880                 1.3612
 IR Inten    --     44.1280                13.3171                28.4085

                     46                     47                     48
                      A                      A                      A
 Frequencies --   1182.5782              1196.0620              1197.0747
 Red. masses --      1.9440                 1.5593                 1.8544
 Frc consts  --      1.6018                 1.3143                 1.5657
 IR Inten    --      5.4309                 5.9040                 7.8557

                     49                     50                     51
                      A                      A                      A
 Frequencies --   1207.3571              1228.3019              1263.0550
 Red. masses --      2.6945                 1.7873                 1.5211
 Frc consts  --      2.3142                 1.5888                 1.4298
 IR Inten    --     19.6524                 4.7210                14.6788

                     52                     53                     54
                      A                      A                      A
 Frequencies --   1296.0976              1317.9199              1329.6715
 Red. masses --      1.3445                 1.6361                 1.8268
 Frc consts  --      1.3307                 1.6743                 1.9030
 IR Inten    --      9.4699                40.5409                 5.2475

                     55                     56                     57
                      A                      A                      A
 Frequencies --   1344.1015              1366.6659              1401.8125
 Red. masses --      1.6071                 1.4271                 1.4839
 Frc consts  --      1.7106                 1.5704                 1.7181
 IR Inten    --      9.0097                61.9882                27.3781

                     58                     59                     60
                      A                      A                      A
 Frequencies --   1412.0137              1440.9588              1470.4226
 Red. masses --      1.2584                 1.5894                 1.0858
 Frc consts  --      1.4783                 1.9444                 1.3833
 IR Inten    --      5.4836                 0.2838                 1.0273

                     61                     62                     63
                      A                      A                      A
 Frequencies --   1484.5444              1486.2598              1493.7330
 Red. masses --      1.0968                 1.0498                 1.0535
 Frc consts  --      1.4242                 1.3663                 1.3850
 IR Inten    --      0.8514                 4.9260                 8.7246

                     64                     65                     66
                      A                      A                      A
 Frequencies --   1501.4635              1509.8719              1728.4208
 Red. masses --      1.1487                 1.3100                 6.4447
 Frc consts  --      1.5258                 1.7595                11.3436
 IR Inten    --      1.8907                 2.5400                 0.0393

                     67                     68                     69
                      A                      A                      A
 Frequencies --   1740.3668              2243.0826              2956.5052
 Red. masses --      7.8008                 6.3068                 1.0700
 Frc consts  --     13.9210                18.6961                 5.5106
 IR Inten    --     23.8811                86.2667                48.1969

                     70                     71                     72
                      A                      A                      A
 Frequencies --   2974.6457              3026.5163              3036.5608
 Red. masses --      1.0664                 1.0375                 1.0943
 Frc consts  --      5.5594                 5.5993                 5.9449
 IR Inten    --     63.7646                25.2003                15.1897

                     73                     74                     75
                      A                      A                      A
 Frequencies --   3053.7470              3084.0479              3123.6114
 Red. masses --      1.0893                 1.1003                 1.0996
 Frc consts  --      5.9849                 6.1662                 6.3210
 IR Inten    --     34.6672                18.9700                12.8387

                     76                     77                     78
                      A                      A                      A
 Frequencies --   3129.7745              3136.6550              3140.4093
 Red. masses --      1.0533                 1.0888                 1.0564
 Frc consts  --      6.0787                 6.3115                 6.1383
 IR Inten    --     20.2186                15.9399                10.4467

                     79                     80                     81
                      A                      A                      A
 Frequencies --   3151.9100              3164.3489              3192.5809
 Red. masses --      1.0890                 1.0877                 1.1116
 Frc consts  --      6.3740                 6.4172                 6.6756
 IR Inten    --      8.4794                 5.9527                 5.2709

                     82                     83                     84
                      A                      A                      A
 Frequencies --   3209.6875              3227.7470              3516.6691
 Red. masses --      1.1171                 1.1155                 1.1544
 Frc consts  --      6.7806                 6.8472                 8.4112
 IR Inten    --      2.7867                16.5994                82.7056

 - Thermochemistry -
 -------------------
 Temperature   298.150 Kelvin.  Pressure   1.00000 Atm.
 Atom     1 has atomic number  6 and mass  12.00000

 Molecular mass:   188.13135 amu.
 Principal axes and moments of inertia in atomic units:
                           1         2         3
     Eigenvalues --   925.511757253.223077476.22869
           X            0.99995  -0.00247   0.00966
           Y            0.00198   0.99874   0.05016
           Z           -0.00977  -0.05014   0.99869
 This molecule is an asymmetric top.
 Rotational symmetry number  1.
 Warning -- assumption of classical behavior for rotation
           may cause significant error
 Rotational temperatures (Kelvin)      0.09358     0.01194     0.01159
 Rotational constants (GHZ):           1.94999     0.24882     0.24140
 Zero-point vibrational energy     657254.7 (Joules/Mol)
                                  157.08765 (Kcal/Mol)
 Warning -- explicit consideration of  22 degrees of freedom as
           vibrations may cause significant error
 Vibrational temperatures:     32.88    36.56    57.83    82.86   133.81
          (Kelvin)            158.51   188.53   230.32   245.69   275.21
                              297.06   365.62   415.06   499.77   522.10
                              535.88   543.05   590.05   617.80   684.72
                              773.19   820.19   940.88   954.12   979.58
                             1105.31  1130.76  1158.79  1178.51  1197.50
                             1220.88  1252.96  1309.14  1371.72  1388.12
                             1434.08  1461.59  1481.02  1527.43  1530.05
                             1552.28  1553.95  1617.32  1625.83  1649.29
                             1701.47  1720.87  1722.32  1737.12  1767.25
                             1817.25  1864.80  1896.19  1913.10  1933.86
                             1966.33  2016.90  2031.57  2073.22  2115.61
                             2135.93  2138.40  2149.15  2160.27  2172.37
                             2486.81  2504.00  3227.30  4253.75  4279.85
                             4354.48  4368.93  4393.66  4437.26  4494.18
                             4503.05  4512.95  4518.35  4534.90  4552.79
                             4593.41  4618.02  4644.01  5059.70

 Zero-point correction=                           0.250335 (Hartree/Particle)
 Thermal correction to Energy=                    0.266137
 Thermal correction to Enthalpy=                  0.267081
 Thermal correction to Gibbs Free Energy=         0.205124
 Sum of electronic and zero-point Energies=           -575.988451
 Sum of electronic and thermal Energies=              -575.972650
 Sum of electronic and thermal Enthalpies=            -575.971705
 Sum of electronic and thermal Free Energies=         -576.033662

                     E (Thermal)             CV                S
                      KCal/Mol        Cal/Mol-Kelvin    Cal/Mol-Kelvin
 Total                  167.003             57.340            130.398
 Electronic               0.000              0.000              0.000
 Translational            0.889              2.981             41.602
 Rotational               0.889              2.981             32.284
 Vibrational            165.226             51.379             56.512
 Vibration     1          0.593              1.985              6.370
 Vibration     2          0.593              1.985              6.159
 Vibration     3          0.594              1.981              5.250
 Vibration     4          0.596              1.974              4.538
 Vibration     5          0.602              1.954              3.596
 Vibration     6          0.606              1.941              3.266
 Vibration     7          0.612              1.922              2.931
 Vibration     8          0.622              1.891              2.549
 Vibration     9          0.626              1.878              2.427
 Vibration    10          0.634              1.852              2.215
 Vibration    11          0.641              1.831              2.075
 Vibration    12          0.665              1.756              1.702
 Vibration    13          0.685              1.695              1.483
 Vibration    14          0.725              1.581              1.178
 Vibration    15          0.737              1.549              1.110
 Vibration    16          0.744              1.529              1.070
 Vibration    17          0.748              1.518              1.049
 Vibration    18          0.774              1.448              0.926
 Vibration    19          0.791              1.406              0.861
 Vibration    20          0.833              1.304              0.721
 Vibration    21          0.892              1.167              0.571
 Vibration    22          0.926              1.096              0.504

                           ! Non-Optimized Parameters !
 Normal termination of Gaussian 16 at Sun May 28 00:28:19 2023.
