 Gaussian 16, Revision A.03,
 Gaussian 16:  ES64L-G16RevA.03 25-Dec-2016

 -----------------------------
 # opt freq b3lyp/6-31g(2df,p)
 -----------------------------

 -------------------
 Title Card Required
 -------------------
 Symbolic Z-matrix:
 Charge =  0 Multiplicity = 1

 SCF Done:  E(RB3LYP) =  -519.503734205     A.U. after   19 cycles
 SCF Done:  E(RB3LYP) =  -519.577254487     A.U. after   14 cycles
 SCF Done:  E(RB3LYP) =  -519.651905532     A.U. after   14 cycles
 SCF Done:  E(RB3LYP) =  -519.699425882     A.U. after   14 cycles
 SCF Done:  E(RB3LYP) =  -519.739014392     A.U. after   13 cycles
 SCF Done:  E(RB3LYP) =  -519.757855049     A.U. after   12 cycles
 SCF Done:  E(RB3LYP) =  -519.765988991     A.U. after   12 cycles
 SCF Done:  E(RB3LYP) =  -519.767838789     A.U. after   12 cycles
 SCF Done:  E(RB3LYP) =  -519.768401737     A.U. after   12 cycles
 SCF Done:  E(RB3LYP) =  -519.768577304     A.U. after   11 cycles
 SCF Done:  E(RB3LYP) =  -519.768740884     A.U. after   11 cycles
 SCF Done:  E(RB3LYP) =  -519.768771864     A.U. after    9 cycles
 SCF Done:  E(RB3LYP) =  -519.768778852     A.U. after    8 cycles
 SCF Done:  E(RB3LYP) =  -519.768785698     A.U. after    8 cycles
 SCF Done:  E(RB3LYP) =  -519.768802118     A.U. after    9 cycles
 SCF Done:  E(RB3LYP) =  -519.768815746     A.U. after    9 cycles
 SCF Done:  E(RB3LYP) =  -519.768822876     A.U. after    8 cycles
 SCF Done:  E(RB3LYP) =  -519.768823726     A.U. after    7 cycles
 SCF Done:  E(RB3LYP) =  -519.768823803     A.U. after    7 cycles
 Optimization completed.
    -- Stationary point found.
 Normal termination of Gaussian 16 at Sun May 28 09:15:18 2023.

 ----------------------------------------------------------------------
 #N Geom=AllCheck Guess=TCheck SCRF=Check GenChk RB3LYP/6-31G(2df,p) Fr
 eq
 ----------------------------------------------------------------------

 Structure from the checkpoint file:  "C1dCC2dCCCdC2C2dCqCC2rNC1.chk"
 -------------------
 Title Card Required
 -------------------
 Charge =  0 Multiplicity = 1

                         Standard orientation:
 ---------------------------------------------------------------------
 Center     Atomic      Atomic             Coordinates (Angstroms)
 Number     Number       Type             X           Y           Z
 ---------------------------------------------------------------------
      1          6           0        0.606568   -1.947258    0.528390
      2          6           0       -0.381481   -1.874053   -0.364015
      3          6           0       -1.453517   -0.899434   -0.145418
      4          6           0       -2.796010   -0.942342   -0.128045
      5          6           0       -3.332749    0.447841    0.080965
      6          6           0       -2.090893    1.292068    0.157950
      7          6           0       -0.987119    0.511598    0.027303
      8          6           0        0.389861    0.964075   -0.008426
      9          6           0        1.686138    0.496672   -0.066210
     10          6           0        2.302265    1.879053   -0.099614
     11          6           0        0.841789    2.418973   -0.010294
     12          7           0        2.451646   -0.644894   -0.089831
     13          6           0        2.030430   -2.045196    0.102545
     14          1           0        0.450545   -1.520005    1.516502
     15          1           0       -0.230201   -2.262528   -1.371560
     16          1           0       -3.416371   -1.823033   -0.230872
     17          1           0       -3.947886    0.517601    0.991218
     18          1           0       -3.996900    0.752592   -0.742721
     19          1           0       -2.105331    2.365702    0.289994
     20          1           0        2.834400    2.131573   -1.024279
     21          1           0        2.948837    2.126351    0.751464
     22          1           0        0.520824    3.019055   -0.870475
     23          1           0        0.629345    2.987939    0.903004
     24          1           0        3.443860   -0.473080   -0.048037
     25          1           0        2.687997   -2.508884    0.848674
     26          1           0        2.127679   -2.611006   -0.834869
 ---------------------------------------------------------------------

 SCF Done:  E(RB3LYP) =  -519.768823803     A.U. after    1 cycles

 The electronic state is 1-A.
 Alpha  occ. eigenvalues --  -14.34427 -10.22514 -10.21480 -10.18320 -10.17917
 Alpha  occ. eigenvalues --  -10.17874 -10.17783 -10.17672 -10.17080 -10.16968
 Alpha  occ. eigenvalues --  -10.16940 -10.16046 -10.15694  -0.92951  -0.85047
 Alpha  occ. eigenvalues --   -0.83312  -0.78559  -0.71721  -0.70705  -0.66425
 Alpha  occ. eigenvalues --   -0.63688  -0.61329  -0.56907  -0.54519  -0.52922
 Alpha  occ. eigenvalues --   -0.51956  -0.49777  -0.47959  -0.45306  -0.44284
 Alpha  occ. eigenvalues --   -0.42303  -0.41808  -0.40231  -0.38865  -0.37587
 Alpha  occ. eigenvalues --   -0.35419  -0.35205  -0.34797  -0.33002  -0.32476
 Alpha  occ. eigenvalues --   -0.31398  -0.29680  -0.28353  -0.24656  -0.21728
 Alpha  occ. eigenvalues --   -0.16456
 Alpha virt. eigenvalues --   -0.02464   0.01120   0.05236   0.08750   0.11631
 Alpha virt. eigenvalues --    0.11779   0.12884   0.13143   0.14323   0.15015
 Alpha virt. eigenvalues --    0.15758   0.16102   0.16717   0.17722   0.18443

 Mulliken charges:
               1
     1  C   -0.074490
     2  C   -0.209769
     3  C    0.238646
     4  C   -0.239374
     5  C   -0.307702
     6  C   -0.250415
     7  C    0.164264
     8  C    0.252309
     9  C    0.230790
    10  C   -0.318556
    11  C   -0.316473
    12  N   -0.422218
    13  C   -0.203621
    14  H    0.102841
    15  H    0.098600
    16  H    0.094184
    17  H    0.121843
    18  H    0.121568
    19  H    0.084251
    20  H    0.103235
    21  H    0.097913
    22  H    0.092465
    23  H    0.092265
    24  H    0.237344
    25  H    0.103061
    26  H    0.107039
 Sum of Mulliken charges =  -0.00000

 Dipole moment (field-independent basis, Debye):
    X=              1.7306    Y=             -0.7741    Z=              0.0143  Tot=              1.8959
 Quadrupole moment (field-independent basis, Debye-Ang):
   XX=            -65.0853   YY=            -75.6701   ZZ=            -76.9610
   XY=             -2.4934   XZ=              0.7236   YZ=              0.9222

  Exact polarizability: 197.035 -13.542 133.423   1.762   3.948  81.105
 Approx polarizability: 327.846 -43.533 199.125   5.958   7.636 137.953

                      1                      2                      3
                      A                      A                      A
 Frequencies --     81.3960               109.6155               141.2624
 Red. masses --      4.0315                 3.1041                 2.8754
 Frc consts  --      0.0157                 0.0220                 0.0338
 IR Inten    --      1.2378                 0.3788                11.8511

                      4                      5                      6
                      A                      A                      A
 Frequencies --    182.3435               208.9888               269.6465
 Red. masses --      2.3594                 2.3920                 2.6010
 Frc consts  --      0.0462                 0.0616                 0.1114
 IR Inten    --      1.4230                 0.3969                 1.4509

                      7                      8                      9
                      A                      A                      A
 Frequencies --    290.4431               319.4287               331.8285
 Red. masses --      3.0592                 2.0170                 5.1473
 Frc consts  --      0.1520                 0.1213                 0.3339
 IR Inten    --      0.5722                16.7346                 1.3627

                     10                     11                     12
                      A                      A                      A
 Frequencies --    347.0865               395.4961               423.7838
 Red. masses --      1.1788                 3.1622                 3.4236
 Frc consts  --      0.0837                 0.2914                 0.3623
 IR Inten    --     54.1041                 0.7182                 2.1093

                     13                     14                     15
                      A                      A                      A
 Frequencies --    470.4179               503.5466               567.3951
 Red. masses --      3.2594                 3.7449                 3.5818
 Frc consts  --      0.4250                 0.5595                 0.6794
 IR Inten    --      0.7352                 0.3601                 1.1315

                     16                     17                     18
                      A                      A                      A
 Frequencies --    606.9821               680.7339               722.2344
 Red. masses --      4.4754                 2.2383                 1.4916
 Frc consts  --      0.9715                 0.6111                 0.4584
 IR Inten    --      3.2051                 2.2631                 0.4263

                     19                     20                     21
                      A                      A                      A
 Frequencies --    748.8281               773.8816               787.4244
 Red. masses --      3.9951                 2.3526                 1.7797
 Frc consts  --      1.3199                 0.8301                 0.6502
 IR Inten    --      0.0792                11.0878                15.7725

                     22                     23                     24
                      A                      A                      A
 Frequencies --    819.8021               836.0456               854.4509
 Red. masses --      5.1703                 1.2073                 2.1110
 Frc consts  --      2.0473                 0.4972                 0.9081
 IR Inten    --      1.8378                 0.3044                20.3567

                     25                     26                     27
                      A                      A                      A
 Frequencies --    924.5059               928.8080               942.5870
 Red. masses --      2.1240                 2.5708                 2.7408
 Frc consts  --      1.0696                 1.3067                 1.4347
 IR Inten    --     12.4861                 3.3754                15.9151

                     28                     29                     30
                      A                      A                      A
 Frequencies --    955.9557               967.8964               996.1242
 Red. masses --      2.8359                 1.8398                 1.6243
 Frc consts  --      1.5269                 1.0155                 0.9496
 IR Inten    --      7.3031                 5.6205                 5.5053

                     31                     32                     33
                      A                      A                      A
 Frequencies --   1017.7159              1041.9476              1047.6800
 Red. masses --      1.1711                 4.0293                 1.7163
 Frc consts  --      0.7146                 2.5773                 1.1099
 IR Inten    --     26.4534                20.6912                 0.2190

                     34                     35                     36
                      A                      A                      A
 Frequencies --   1084.3100              1092.1441              1111.9939
 Red. masses --      3.4625                 1.2104                 1.1350
 Frc consts  --      2.3985                 0.8506                 0.8269
 IR Inten    --     18.8749                 2.4735                 0.0541

                     37                     38                     39
                      A                      A                      A
 Frequencies --   1116.6348              1167.5088              1175.3476
 Red. masses --      2.4297                 3.8428                 1.1865
 Frc consts  --      1.7850                 3.0862                 0.9657
 IR Inten    --      9.0444                 2.0679                 0.0570

                     40                     41                     42
                      A                      A                      A
 Frequencies --   1187.8425              1214.5106              1224.3228
 Red. masses --      2.2914                 1.2344                 1.4272
 Frc consts  --      1.9049                 1.0728                 1.2605
 IR Inten    --      9.5353                 2.2101                 3.7247

                     43                     44                     45
                      A                      A                      A
 Frequencies --   1237.1515              1254.1343              1272.9908
 Red. masses --      1.7014                 1.7196                 1.9599
 Frc consts  --      1.5343                 1.5935                 1.8712
 IR Inten    --     10.3263                 2.8434                19.0692

                     46                     47                     48
                      A                      A                      A
 Frequencies --   1306.8665              1320.0318              1330.4998
 Red. masses --      1.7938                 1.5823                 1.4010
 Frc consts  --      1.8050                 1.6245                 1.4612
 IR Inten    --     25.0263                13.6524                39.0149

                     49                     50                     51
                      A                      A                      A
 Frequencies --   1351.1356              1361.9425              1422.1243
 Red. masses --      1.4891                 3.2601                 1.1063
 Frc consts  --      1.6016                 3.5628                 1.3183
 IR Inten    --     51.6719                 3.8012                 5.6506

                     52                     53                     54
                      A                      A                      A
 Frequencies --   1474.4282              1498.6495              1512.7397
 Red. masses --      1.0959                 1.1516                 1.1518
 Frc consts  --      1.4037                 1.5239                 1.5530
 IR Inten    --      0.2342                23.2658                13.1620

                     55                     56                     57
                      A                      A                      A
 Frequencies --   1529.6816              1582.1235              1657.4391
 Red. masses --      1.5002                 6.0998                 7.1839
 Frc consts  --      2.0682                 8.9959                11.6274
 IR Inten    --     44.4134                20.6775               254.3198

                     58                     59                     60
                      A                      A                      A
 Frequencies --   1672.5209              1722.0095              2994.0207
 Red. masses --      7.3650                 7.2575                 1.0601
 Frc consts  --     12.1385                12.6798                 5.5988
 IR Inten    --    117.4041                15.8585               115.9923

                     61                     62                     63
                      A                      A                      A
 Frequencies --   2998.1128              3013.8905              3016.6405
 Red. masses --      1.0604                 1.0546                 1.0972
 Frc consts  --      5.6158                 5.6440                 5.8828
 IR Inten    --     30.9806                53.7531                12.5904

                     64                     65                     66
                      A                      A                      A
 Frequencies --   3021.1473              3034.6924              3046.8992
 Red. masses --      1.0583                 1.1024                 1.1071
 Frc consts  --      5.6913                 5.9817                 6.0558
 IR Inten    --     96.6487                43.1448                 8.2750

                     67                     68                     69
                      A                      A                      A
 Frequencies --   3066.1625              3118.0899              3151.3300
 Red. masses --      1.1055                 1.0882                 1.0881
 Frc consts  --      6.1235                 6.2336                 6.3666
 IR Inten    --     57.6547                14.8108                10.7361

                     70                     71                     72
                      A                      A                      A
 Frequencies --   3216.3431              3218.6304              3618.7700
 Red. masses --      1.0929                 1.0952                 1.0757
 Frc consts  --      6.6610                 6.6846                 8.2996
 IR Inten    --     15.3172                 1.0241                28.9534

 - Thermochemistry -
 -------------------
 Temperature   298.150 Kelvin.  Pressure   1.00000 Atm.
 Atom     1 has atomic number  6 and mass  12.00000

 Molecular mass:   171.10480 amu.
 Principal axes and moments of inertia in atomic units:
                           1         2         3
     Eigenvalues --  1396.506262395.473203672.51964
           X            0.99997  -0.00744  -0.00001
           Y            0.00744   0.99996   0.00394
           Z           -0.00002  -0.00394   0.99999
 This molecule is an asymmetric top.
 Rotational symmetry number  1.
 Warning -- assumption of classical behavior for rotation
           may cause significant error
 Rotational temperatures (Kelvin)      0.06202     0.03616     0.02358
 Rotational constants (GHZ):           1.29233     0.75340     0.49142
 Zero-point vibrational energy     572365.8 (Joules/Mol)
                                  136.79872 (Kcal/Mol)
 Warning -- explicit consideration of  16 degrees of freedom as
           vibrations may cause significant error
 Vibrational temperatures:    117.11   157.71   203.25   262.35   300.69
          (Kelvin)            387.96   417.88   459.59   477.43   499.38
                              569.03   609.73   676.83   724.49   816.36
                              873.31   979.42  1039.13  1077.40  1113.44
                             1132.93  1179.51  1202.88  1229.36  1330.16
                             1336.35  1356.17  1375.41  1392.59  1433.20
                             1464.27  1499.13  1507.38  1560.08  1571.35
                             1599.91  1606.59  1679.78  1691.06  1709.04
                             1747.41  1761.53  1779.99  1804.42  1831.55
                             1880.29  1899.23  1914.29  1943.98  1959.53
                             2046.12  2121.37  2156.22  2176.50  2200.87
                             2276.32  2384.69  2406.38  2477.59  4307.73
                             4313.62  4336.32  4340.27  4346.76  4366.25
                             4383.81  4411.52  4486.24  4534.06  4627.60
                             4630.89  5206.60

 Zero-point correction=                           0.218003 (Hartree/Particle)
 Thermal correction to Energy=                    0.228923
 Thermal correction to Enthalpy=                  0.229867
 Thermal correction to Gibbs Free Energy=         0.181865
 Sum of electronic and zero-point Energies=           -519.550821
 Sum of electronic and thermal Energies=              -519.539901
 Sum of electronic and thermal Enthalpies=            -519.538957
 Sum of electronic and thermal Free Energies=         -519.586959

                     E (Thermal)             CV                S
                      KCal/Mol        Cal/Mol-Kelvin    Cal/Mol-Kelvin
 Total                  143.651             44.356            101.028
 Electronic               0.000              0.000              0.000
 Translational            0.889              2.981             41.319
 Rotational               0.889              2.981             30.886
 Vibrational            141.874             38.394             28.823
 Vibration     1          0.600              1.962              3.857
 Vibration     2          0.606              1.942              3.276
 Vibration     3          0.615              1.912              2.787
 Vibration     4          0.630              1.864              2.304
 Vibration     5          0.642              1.827              2.052
 Vibration     6          0.674              1.729              1.598
 Vibration     7          0.686              1.692              1.471
 Vibration     8          0.705              1.636              1.313
 Vibration     9          0.714              1.612              1.251
 Vibration    10          0.725              1.581              1.179
 Vibration    11          0.762              1.480              0.979
 Vibration    12          0.786              1.419              0.879
 Vibration    13          0.827              1.316              0.736
 Vibration    14          0.859              1.242              0.649
 Vibration    15          0.923              1.102              0.509
 Vibration    16          0.966              1.017              0.438

                           ! Non-Optimized Parameters !
 Normal termination of Gaussian 16 at Sun May 28 10:41:37 2023.
