 Gaussian 16, Revision A.03,
 Gaussian 16:  ES64L-G16RevA.03 25-Dec-2016

 -----------------------------
 # opt freq b3lyp/6-31g(2df,p)
 -----------------------------

 -------------------
 Title Card Required
 -------------------
 Symbolic Z-matrix:
 Charge =  0 Multiplicity = 1

 SCF Done:  E(RB3LYP) =  -687.188934688     A.U. after   13 cycles
 SCF Done:  E(RB3LYP) =  -687.216712037     A.U. after   12 cycles
 SCF Done:  E(RB3LYP) =  -687.228756912     A.U. after   11 cycles
 SCF Done:  E(RB3LYP) =  -687.232708977     A.U. after   11 cycles
 SCF Done:  E(RB3LYP) =  -687.236832256     A.U. after   12 cycles
 SCF Done:  E(RB3LYP) =  -687.239803889     A.U. after   11 cycles
 SCF Done:  E(RB3LYP) =  -687.242244860     A.U. after   12 cycles
 SCF Done:  E(RB3LYP) =  -687.242450439     A.U. after   12 cycles
 SCF Done:  E(RB3LYP) =  -687.245200344     A.U. after   11 cycles
 SCF Done:  E(RB3LYP) =  -687.248187534     A.U. after   11 cycles
 SCF Done:  E(RB3LYP) =  -687.257093741     A.U. after   12 cycles
 SCF Done:  E(RB3LYP) =  -687.257473154     A.U. after   10 cycles
 SCF Done:  E(RB3LYP) =  -687.257550147     A.U. after   10 cycles
 SCF Done:  E(RB3LYP) =  -687.257579025     A.U. after    9 cycles
 SCF Done:  E(RB3LYP) =  -687.257584096     A.U. after    8 cycles
 SCF Done:  E(RB3LYP) =  -687.257584985     A.U. after    8 cycles
 SCF Done:  E(RB3LYP) =  -687.257585951     A.U. after    7 cycles
 SCF Done:  E(RB3LYP) =  -687.257586187     A.U. after    7 cycles
 SCF Done:  E(RB3LYP) =  -687.257586296     A.U. after    7 cycles
 Optimization completed.
    -- Stationary point found.
 Normal termination of Gaussian 16 at Sat May 27 21:50:03 2023.

 ----------------------------------------------------------------------
 #N Geom=AllCheck Guess=TCheck SCRF=Check GenChk RB3LYP/6-31G(2df,p) Fr
 eq
 ----------------------------------------------------------------------

 Structure from the checkpoint file:  "C1dNCN2COCCCCCCqC2rNN1.chk"
 -------------------
 Title Card Required
 -------------------
 Charge =  0 Multiplicity = 1

                         Standard orientation:
 ---------------------------------------------------------------------
 Center     Atomic      Atomic             Coordinates (Angstroms)
 Number     Number       Type             X           Y           Z
 ---------------------------------------------------------------------
      1          6           0       -2.859033   -0.006518   -0.763857
      2          7           0       -2.956347    1.017756   -0.022856
      3          6           0       -1.865107    1.934037   -0.275556
      4          7           0       -0.620981    1.185497    0.093087
      5          6           0        0.462247    2.101551    0.412088
      6          8           0        1.702530    1.453293    0.511289
      7          6           0        2.373652    1.186863   -0.716969
      8          6           0        3.493213    0.182815   -0.437098
      9          6           0        3.108977   -1.307659   -0.316254
     10          6           0        1.903824   -1.631574    0.596570
     11          6           0        0.580075   -1.658084   -0.191371
     12          6           0       -0.719563   -1.382095    0.584489
     13          6           0       -0.772159    0.098674    1.092195
     14          7           0       -1.805234   -1.858018   -0.331773
     15          7           0       -3.119282   -1.304488   -0.287503
     16          1           0       -2.322818   -0.039551   -1.718046
     17          1           0       -2.001504    2.833907    0.344503
     18          1           0       -1.764042    2.256721   -1.326216
     19          1           0        0.319657    2.593355    1.391474
     20          1           0        0.478188    2.886633   -0.360782
     21          1           0        2.803009    2.126958   -1.098872
     22          1           0        1.669270    0.816578   -1.472289
     23          1           0        3.978946    0.511376    0.490080
     24          1           0        4.245489    0.281027   -1.229215
     25          1           0        3.997551   -1.837388    0.046626
     26          1           0        2.911867   -1.713876   -1.317375
     27          1           0        1.868561   -0.901353    1.408574
     28          1           0        2.055507   -2.609961    1.067890
     29          1           0        0.490964   -2.633699   -0.685701
     30          1           0        0.599719   -0.924523   -1.001280
     31          1           0       -0.736221   -1.973257    1.517651
     32          1           0        0.086205    0.171495    1.764471
     33          1           0       -1.661518    0.242242    1.708935
     34          1           0       -1.865883   -2.866917   -0.342544
     35          1           0       -3.497037   -1.239404    0.659691
 ---------------------------------------------------------------------

 SCF Done:  E(RB3LYP) =  -687.257586296     A.U. after    1 cycles

 The electronic state is 1-A.
 Alpha  occ. eigenvalues --  -19.13979 -14.35798 -14.34667 -14.31841 -14.30081
 Alpha  occ. eigenvalues --  -10.24912 -10.24317 -10.23306 -10.22400 -10.21502
 Alpha  occ. eigenvalues --  -10.20306 -10.17917 -10.17703 -10.17171 -10.17042
 Alpha  occ. eigenvalues --   -1.03698  -0.99479  -0.93153  -0.88013  -0.81569
 Alpha  occ. eigenvalues --   -0.78579  -0.75157  -0.72910  -0.68251  -0.66062
 Alpha  occ. eigenvalues --   -0.63129  -0.60053  -0.58745  -0.57434  -0.55733
 Alpha  occ. eigenvalues --   -0.51011  -0.50192  -0.49084  -0.48638  -0.47026
 Alpha  occ. eigenvalues --   -0.45937  -0.45716  -0.45150  -0.44102  -0.41802
 Alpha  occ. eigenvalues --   -0.40664  -0.40130  -0.39121  -0.38569  -0.36395
 Alpha  occ. eigenvalues --   -0.35831  -0.34684  -0.33780  -0.33375  -0.32677
 Alpha  occ. eigenvalues --   -0.31950  -0.31272  -0.30196  -0.27046  -0.25750
 Alpha  occ. eigenvalues --   -0.24291  -0.21771  -0.20886
 Alpha virt. eigenvalues --   -0.01039   0.08437   0.08948   0.09819   0.11175
 Alpha virt. eigenvalues --    0.11593   0.12034   0.12292   0.13519   0.13967
 Alpha virt. eigenvalues --    0.14273   0.14898   0.15842   0.16417   0.16698

 Mulliken charges:
               1
     1  C    0.071681
     2  N   -0.196830
     3  C   -0.134896
     4  N   -0.088436
     5  C   -0.048921
     6  O   -0.239370
     7  C   -0.070765
     8  C   -0.195467
     9  C   -0.195352
    10  C   -0.210759
    11  C   -0.139199
    12  C    0.001214
    13  C   -0.182224
    14  N   -0.315195
    15  N   -0.273313
    16  H    0.112195
    17  H    0.090715
    18  H    0.098036
    19  H    0.087803
    20  H    0.088657
    21  H    0.087425
    22  H    0.105914
    23  H    0.109447
    24  H    0.093600
    25  H    0.091562
    26  H    0.093108
    27  H    0.114430
    28  H    0.083777
    29  H    0.080091
    30  H    0.115614
    31  H    0.061875
    32  H    0.119066
    33  H    0.119837
    34  H    0.235550
    35  H    0.229131
 Sum of Mulliken charges =  -0.00000

 Dipole moment (field-independent basis, Debye):
    X=              1.2557    Y=             -0.7373    Z=             -0.0047  Tot=              1.4562
 Quadrupole moment (field-independent basis, Debye-Ang):
   XX=            -97.8683   YY=            -86.4430   ZZ=            -90.8201
   XY=              2.1083   XZ=             -3.5707   YZ=             -3.9368

  Exact polarizability: 152.371  -1.264 147.302  -2.301  -1.242 110.413
 Approx polarizability: 197.162  -0.925 216.753  -0.978   5.295 185.954

                      1                      2                      3
                      A                      A                      A
 Frequencies --     72.6574                78.9525               139.0205
 Red. masses --      3.6322                 3.1814                 3.5620
 Frc consts  --      0.0113                 0.0117                 0.0406
 IR Inten    --      0.8870                 2.0228                 3.3518

                      4                      5                      6
                      A                      A                      A
 Frequencies --    168.1041               174.1974               190.9000
 Red. masses --      2.7769                 3.5754                 3.0474
 Frc consts  --      0.0462                 0.0639                 0.0654
 IR Inten    --      0.1809                 5.9666                 2.7195

                      7                      8                      9
                      A                      A                      A
 Frequencies --    202.3503               258.4444               277.3481
 Red. masses --      3.0437                 2.6985                 3.2898
 Frc consts  --      0.0734                 0.1062                 0.1491
 IR Inten    --      0.8974                 0.6774                13.6108

                     10                     11                     12
                      A                      A                      A
 Frequencies --    283.1617               309.7551               326.4136
 Red. masses --      2.2905                 2.9842                 2.6057
 Frc consts  --      0.1082                 0.1687                 0.1636
 IR Inten    --      1.0405                 1.5627                 3.2362

                     13                     14                     15
                      A                      A                      A
 Frequencies --    334.4784               362.0015               384.7391
 Red. masses --      2.9895                 3.0886                 2.5008
 Frc consts  --      0.1971                 0.2385                 0.2181
 IR Inten    --      0.4357                 3.5116                 8.2060

                     16                     17                     18
                      A                      A                      A
 Frequencies --    415.9201               453.9679               483.3586
 Red. masses --      2.6590                 2.6087                 2.1130
 Frc consts  --      0.2710                 0.3168                 0.2909
 IR Inten    --      2.7858                13.6877                13.2312

                     19                     20                     21
                      A                      A                      A
 Frequencies --    504.0627               513.7662               560.7434
 Red. masses --      2.1530                 2.2250                 2.7115
 Frc consts  --      0.3223                 0.3460                 0.5023
 IR Inten    --     11.8728                20.0844                15.4087

                     22                     23                     24
                      A                      A                      A
 Frequencies --    610.3598               648.1898               696.6646
 Red. masses --      3.4386                 2.9956                 2.9103
 Frc consts  --      0.7548                 0.7415                 0.8322
 IR Inten    --      9.1117                 0.8252                20.7291

                     25                     26                     27
                      A                      A                      A
 Frequencies --    752.5930               768.3629               803.9002
 Red. masses --      1.7911                 2.9739                 2.1983
 Frc consts  --      0.5977                 1.0345                 0.8370
 IR Inten    --      3.9402                 3.9156                 0.0315

                     28                     29                     30
                      A                      A                      A
 Frequencies --    839.0633               874.7633               881.3504
 Red. masses --      2.2139                 1.9503                 2.5783
 Frc consts  --      0.9183                 0.8793                 1.1800
 IR Inten    --      8.4045                10.3084                 3.5278

                     31                     32                     33
                      A                      A                      A
 Frequencies --    901.8203               942.0241               947.1098
 Red. masses --      2.1529                 1.9817                 2.3559
 Frc consts  --      1.0316                 1.0361                 1.2451
 IR Inten    --    113.9050                95.0378                13.3091

                     34                     35                     36
                      A                      A                      A
 Frequencies --    970.5557              1001.6860              1012.0186
 Red. masses --      2.3582                 1.9042                 2.2169
 Frc consts  --      1.3088                 1.1257                 1.3377
 IR Inten    --     17.5788                12.7645                 1.9875

                     37                     38                     39
                      A                      A                      A
 Frequencies --   1033.7979              1044.7582              1074.7932
 Red. masses --      2.3252                 2.3141                 2.1210
 Frc consts  --      1.4642                 1.4882                 1.4436
 IR Inten    --     21.1721                10.8581                12.7390

                     40                     41                     42
                      A                      A                      A
 Frequencies --   1075.0313              1092.5918              1095.9853
 Red. masses --      2.7966                 2.3219                 2.8515
 Frc consts  --      1.9042                 1.6331                 2.0180
 IR Inten    --     15.0988                66.9569                 0.2938

                     43                     44                     45
                      A                      A                      A
 Frequencies --   1104.6904              1131.3440              1140.2258
 Red. masses --      2.2051                 2.4363                 3.2410
 Frc consts  --      1.5855                 1.8372                 2.4826
 IR Inten    --      0.3990                73.0303                73.6168

                     46                     47                     48
                      A                      A                      A
 Frequencies --   1150.7862              1170.7630              1186.0712
 Red. masses --      2.6731                 2.6568                 2.1839
 Frc consts  --      2.0857                 2.1456                 1.8101
 IR Inten    --     32.6543                66.4159                18.3697

                     49                     50                     51
                      A                      A                      A
 Frequencies --   1189.6241              1222.1221              1226.1632
 Red. masses --      1.3431                 1.9947                 1.3280
 Frc consts  --      1.1199                 1.7553                 1.1764
 IR Inten    --      2.6844                32.0475                 6.0869

                     52                     53                     54
                      A                      A                      A
 Frequencies --   1252.9637              1272.5270              1283.0052
 Red. masses --      1.5287                 1.2041                 1.2439
 Frc consts  --      1.4140                 1.1488                 1.2064
 IR Inten    --      2.8597                 6.6753                 2.5451

                     55                     56                     57
                      A                      A                      A
 Frequencies --   1304.2903              1317.4672              1324.5797
 Red. masses --      1.1498                 1.1920                 1.2029
 Frc consts  --      1.1524                 1.2190                 1.2435
 IR Inten    --      5.0860                 0.4543                18.3512

                     58                     59                     60
                      A                      A                      A
 Frequencies --   1340.3994              1352.0381              1364.8261
 Red. masses --      1.1334                 1.2619                 1.2859
 Frc consts  --      1.1998                 1.3591                 1.4113
 IR Inten    --      0.6353                 3.2093                 5.1044

                     61                     62                     63
                      A                      A                      A
 Frequencies --   1373.2840              1374.3231              1384.0467
 Red. masses --      1.2467                 1.2698                 1.3101
 Frc consts  --      1.3853                 1.4131                 1.4786
 IR Inten    --     27.4892                 7.7662                10.5485

                     64                     65                     66
                      A                      A                      A
 Frequencies --   1389.4128              1400.3486              1409.2349
 Red. masses --      1.3559                 1.4434                 1.2676
 Frc consts  --      1.5422                 1.6676                 1.4831
 IR Inten    --      2.3679                 5.5427                31.1696

                     67                     68                     69
                      A                      A                      A
 Frequencies --   1419.9417              1443.5757              1450.1518
 Red. masses --      1.3280                 1.2158                 1.2473
 Frc consts  --      1.5776                 1.4928                 1.5454
 IR Inten    --      8.7762                 2.4145                 9.1915

                     70                     71                     72
                      A                      A                      A
 Frequencies --   1469.9079              1472.4424              1478.4548
 Red. masses --      1.1202                 1.0957                 1.0874
 Frc consts  --      1.4260                 1.3997                 1.4004
 IR Inten    --     16.9540                 5.3817                 4.8884

                     73                     74                     75
                      A                      A                      A
 Frequencies --   1488.9221              1495.3606              1497.5961
 Red. masses --      1.1938                 1.0896                 1.0864
 Frc consts  --      1.5593                 1.4355                 1.4356
 IR Inten    --      3.1870                 2.2940                 8.0005

                     76                     77                     78
                      A                      A                      A
 Frequencies --   1509.0969              1523.5650              1529.1219
 Red. masses --      1.0901                 1.0893                 1.0957
 Frc consts  --      1.4627                 1.4898                 1.5095
 IR Inten    --      2.7057                 3.6543                 5.5233

                     79                     80                     81
                      A                      A                      A
 Frequencies --   1714.5141              2931.9262              2933.8594
 Red. masses --      6.1070                 1.0601                 1.0821
 Frc consts  --     10.5770                 5.3692                 5.4880
 IR Inten    --    202.3481                61.8165                59.8043

                     82                     83                     84
                      A                      A                      A
 Frequencies --   2943.9082              2972.7716              2980.6215
 Red. masses --      1.0633                 1.0691                 1.1010
 Frc consts  --      5.4296                 5.5666                 5.7629
 IR Inten    --    113.7294                48.2213                69.8420

                     85                     86                     87
                      A                      A                      A
 Frequencies --   2989.0308              3013.6834              3022.9274
 Red. masses --      1.0961                 1.0629                 1.0735
 Frc consts  --      5.7699                 5.6878                 5.7800
 IR Inten    --     71.3338                20.4031                12.8682

                     88                     89                     90
                      A                      A                      A
 Frequencies --   3025.6546              3032.8819              3042.7358
 Red. masses --      1.0654                 1.0702                 1.0919
 Frc consts  --      5.7465                 5.7999                 5.9558
 IR Inten    --     24.8236                31.5492                43.3470

                     91                     92                     93
                      A                      A                      A
 Frequencies --   3054.1386              3068.0586              3069.9012
 Red. masses --      1.0924                 1.0605                 1.1016
 Frc consts  --      6.0036                 5.8813                 6.1166
 IR Inten    --     54.6292                22.6508                33.7842

                     94                     95                     96
                      A                      A                      A
 Frequencies --   3071.7628              3095.4588              3102.8127
 Red. masses --      1.0876                 1.0863                 1.0963
 Frc consts  --      6.0466                 6.1327                 6.2184
 IR Inten    --     27.6588                33.3793                25.6120

                     97                     98                     99
                      A                      A                      A
 Frequencies --   3109.2571              3414.6393              3572.4098
 Red. masses --      1.1026                 1.0732                 1.0760
 Frc consts  --      6.2803                 7.3725                 8.0907
 IR Inten    --     11.1385                 3.4990                 4.7244

 - Thermochemistry -
 -------------------
 Temperature   298.150 Kelvin.  Pressure   1.00000 Atm.
 Atom     1 has atomic number  6 and mass  12.00000

 Molecular mass:   212.16371 amu.
 Principal axes and moments of inertia in atomic units:
                           1         2         3
     Eigenvalues --  1823.252143842.366335115.06722
           X            0.99988  -0.01314  -0.00866
           Y            0.01304   0.99985  -0.01174
           Z            0.00882   0.01162   0.99989
 This molecule is an asymmetric top.
 Rotational symmetry number  1.
 Warning -- assumption of classical behavior for rotation
           may cause significant error
 Rotational temperatures (Kelvin)      0.04751     0.02254     0.01693
 Rotational constants (GHZ):           0.98985     0.46970     0.35283
 Zero-point vibrational energy     820443.2 (Joules/Mol)
                                  196.09063 (Kcal/Mol)
 Warning -- explicit consideration of  22 degrees of freedom as
           vibrations may cause significant error
 Vibrational temperatures:    104.54   113.59   200.02   241.86   250.63
          (Kelvin)            274.66   291.14   371.84   399.04   407.41
                              445.67   469.64   481.24   520.84   553.55
                              598.42   653.16   695.45   725.23   739.19
                              806.78   878.17   932.60  1002.34  1082.81
                             1105.50  1156.63  1207.22  1258.59  1268.07
                             1297.52  1355.36  1362.68  1396.41  1441.20
                             1456.07  1487.40  1503.17  1546.39  1546.73
                             1572.00  1576.88  1589.40  1627.75  1640.53
                             1655.72  1684.47  1706.49  1711.60  1758.36
                             1764.18  1802.74  1830.88  1845.96  1876.58
                             1895.54  1905.77  1928.54  1945.28  1963.68
                             1975.85  1977.34  1991.33  1999.06  2014.79
                             2027.57  2042.98  2076.98  2086.44  2114.87
                             2118.52  2127.17  2142.23  2151.49  2154.71
                             2171.25  2192.07  2200.07  2466.80  4218.39
                             4221.17  4235.63  4277.16  4288.45  4300.55
                             4336.02  4349.32  4353.24  4363.64  4377.82
                             4394.22  4414.25  4416.90  4419.58  4453.67
                             4464.26  4473.53  4912.90  5139.90

 Zero-point correction=                           0.312490 (Hartree/Particle)
 Thermal correction to Energy=                    0.326176
 Thermal correction to Enthalpy=                  0.327120
 Thermal correction to Gibbs Free Energy=         0.273362
 Sum of electronic and zero-point Energies=           -686.945096
 Sum of electronic and thermal Energies=              -686.931410
 Sum of electronic and thermal Enthalpies=            -686.930466
 Sum of electronic and thermal Free Energies=         -686.984225

                     E (Thermal)             CV                S
                      KCal/Mol        Cal/Mol-Kelvin    Cal/Mol-Kelvin
 Total                  204.679             55.892            113.145
 Electronic               0.000              0.000              0.000
 Translational            0.889              2.981             41.960
 Rotational               0.889              2.981             31.950
 Vibrational            202.901             49.930             39.236
 Vibration     1          0.599              1.967              4.080
 Vibration     2          0.600              1.963              3.917
 Vibration     3          0.615              1.914              2.817
 Vibration     4          0.625              1.882              2.457
 Vibration     5          0.627              1.874              2.390
 Vibration     6          0.634              1.852              2.219
 Vibration     7          0.639              1.837              2.112
 Vibration     8          0.667              1.748              1.672
 Vibration     9          0.678              1.715              1.550
 Vibration    10          0.682              1.705              1.514
 Vibration    11          0.699              1.655              1.364
 Vibration    12          0.710              1.623              1.278
 Vibration    13          0.716              1.607              1.238
 Vibration    14          0.736              1.551              1.113
 Vibration    15          0.754              1.503              1.020
 Vibration    16          0.779              1.436              0.906
 Vibration    17          0.812              1.352              0.784
 Vibration    18          0.840              1.287              0.701
 Vibration    19          0.859              1.241              0.648
 Vibration    20          0.869              1.219              0.625
 Vibration    21          0.916              1.116              0.522
 Vibration    22          0.969              1.010              0.432

 Optimization completed.
    -- Stationary point found.
 Normal termination of Gaussian 16 at Sun May 28 01:25:57 2023.
