 Gaussian 16, Revision A.03,
 Gaussian 16:  ES64L-G16RevA.03 25-Dec-2016

 -----------------------------
 # opt freq b3lyp/6-31g(2df,p)
 -----------------------------

 -------------------
 Title Card Required
 -------------------
 Symbolic Z-matrix:
 Charge =  0 Multiplicity = 1

 SCF Done:  E(RB3LYP) =  -79.8382477710     A.U. after    9 cycles
 SCF Done:  E(RB3LYP) =  -79.8386798849     A.U. after    8 cycles
 SCF Done:  E(RB3LYP) =  -79.8386939072     A.U. after    6 cycles
 Optimization completed.
    -- Stationary point found.
 Normal termination of Gaussian 16 at Sat May 27 18:26:28 2023.

 ----------------------------------------------------------------------
 #N Geom=AllCheck Guess=TCheck SCRF=Check GenChk RB3LYP/6-31G(2df,p) Fr
 eq
 ----------------------------------------------------------------------

 Structure from the checkpoint file:  "CC.chk"
 -------------------
 Title Card Required
 -------------------
 Charge =  0 Multiplicity = 1

                         Standard orientation:
 ---------------------------------------------------------------------
 Center     Atomic      Atomic             Coordinates (Angstroms)
 Number     Number       Type             X           Y           Z
 ---------------------------------------------------------------------
      1          6           0        0.765252    0.000000   -0.000000
      2          6           0       -0.765252   -0.000000    0.000000
      3          1           0        1.163890    0.977093   -0.291521
      4          1           0        1.163896   -0.741011   -0.700424
      5          1           0        1.163893   -0.236079    0.991947
      6          1           0       -1.163894    0.236081   -0.991946
      7          1           0       -1.163896    0.741010    0.700425
      8          1           0       -1.163890   -0.977093    0.291521
 ---------------------------------------------------------------------

 SCF Done:  E(RB3LYP) =  -79.8386939072     A.U. after    1 cycles

 The electronic state is 1-A.
 Alpha  occ. eigenvalues --  -10.17146 -10.17125  -0.74738  -0.61148  -0.42898
 Alpha  occ. eigenvalues --   -0.42898  -0.36235  -0.33868  -0.33868
 Alpha virt. eigenvalues --    0.10397   0.15352   0.16374   0.16374   0.18985
 Alpha virt. eigenvalues --    0.18985   0.23622   0.48563   0.51492   0.51492
 Alpha virt. eigenvalues --    0.57080   0.57080   0.57812   0.73075   0.73075

 Mulliken charges:
               1
     1  C   -0.345654
     2  C   -0.345654
     3  H    0.115218
     4  H    0.115218
     5  H    0.115218
     6  H    0.115218
     7  H    0.115218
     8  H    0.115218
 Sum of Mulliken charges =  -0.00000

 Dipole moment (field-independent basis, Debye):
    X=             -0.0000    Y=              0.0000    Z=              0.0000  Tot=              0.0000
 Quadrupole moment (field-independent basis, Debye-Ang):
   XX=            -15.2107   YY=            -14.6533   ZZ=            -14.6534
   XY=             -0.0000   XZ=              0.0000   YZ=             -0.0000

  Exact polarizability:  25.386   0.000  23.218   0.000  -0.000  23.218
 Approx polarizability:  30.152  -0.000  30.982  -0.000   0.000  30.981

                      1                      2                      3
                      A                      A                      A
 Frequencies --    310.4245               822.4588               822.4832
 Red. masses --      1.0078                 1.0582                 1.0582
 Frc consts  --      0.0572                 0.4217                 0.4218
 IR Inten    --      0.0000                 3.8674                 3.8675

                      4                      5                      6
                      A                      A                      A
 Frequencies --   1002.0127              1221.6243              1221.6751
 Red. masses --      3.3042                 1.4704                 1.4705
 Frc consts  --      1.9546                 1.2929                 1.2930
 IR Inten    --      0.0000                 0.0000                 0.0000

                      7                      8                      9
                      A                      A                      A
 Frequencies --   1407.9218              1421.3359              1502.2232
 Red. masses --      1.1982                 1.2498                 1.0181
 Frc consts  --      1.3994                 1.4876                 1.3537
 IR Inten    --      0.0199                 0.0000                 0.0000

                     10                     11                     12
                      A                      A                      A
 Frequencies --   1502.2594              1507.3183              1507.3783
 Red. masses --      1.0181                 1.0619                 1.0619
 Frc consts  --      1.3538                 1.4215                 1.4216
 IR Inten    --      0.0000                 5.7838                 5.7839

                     13                     14                     15
                      A                      A                      A
 Frequencies --   3034.8674              3036.1965              3087.7617
 Red. masses --      1.0362                 1.0341                 1.1005
 Frc consts  --      5.6232                 5.6168                 6.1819
 IR Inten    --      0.0000                55.0699                 0.0000

                     16                     17                     18
                      A                      A                      A
 Frequencies --   3087.7883              3112.7227              3112.7491
 Red. masses --      1.1005                 1.1024                 1.1024
 Frc consts  --      6.1820                 6.2934                 6.2935
 IR Inten    --      0.0000                63.3207                63.3188

 - Thermochemistry -
 -------------------
 Temperature   298.150 Kelvin.  Pressure   1.00000 Atm.
 Atom     1 has atomic number  6 and mass  12.00000

 Molecular mass:    30.04695 amu.
 Principal axes and moments of inertia in atomic units:
                           1         2         3
     Eigenvalues --    22.45117  90.66804  90.66806
           X            1.00000  -0.00000   0.00000
           Y            0.00000   1.00000   0.00000
           Z           -0.00000  -0.00000   1.00000
 This molecule is an asymmetric top.
 Rotational symmetry number  1.
 Rotational temperatures (Kelvin)      3.85788     0.95529     0.95529
 Rotational constants (GHZ):          80.38517    19.90493    19.90493
 Zero-point vibrational energy     195716.2 (Joules/Mol)
                                   46.77731 (Kcal/Mol)
 Warning -- explicit consideration of   1 degrees of freedom as
           vibrations may cause significant error
 Vibrational temperatures:    446.63  1183.33  1183.37  1441.67  1757.64
          (Kelvin)           1757.72  2025.69  2044.99  2161.36  2161.42
                             2168.69  2168.78  4366.50  4368.41  4442.60
                             4442.64  4478.51  4478.55

 Zero-point correction=                           0.074544 (Hartree/Particle)
 Thermal correction to Energy=                    0.078029
 Thermal correction to Enthalpy=                  0.078973
 Thermal correction to Gibbs Free Energy=         0.051428
 Sum of electronic and zero-point Energies=            -79.764150
 Sum of electronic and thermal Energies=               -79.760665
 Sum of electronic and thermal Enthalpies=             -79.759721
 Sum of electronic and thermal Free Energies=          -79.787265

                     E (Thermal)             CV                S
                      KCal/Mol        Cal/Mol-Kelvin    Cal/Mol-Kelvin
 Total                   48.964             10.099             57.973
 Electronic               0.000              0.000              0.000
 Translational            0.889              2.981             36.134
 Rotational               0.889              2.981             19.851
 Vibrational             47.187              4.137              1.988
 Vibration     1          0.699              1.654              1.360

 Optimization completed.
    -- Stationary point found.
 Normal termination of Gaussian 16 at Sat May 27 18:29:01 2023.
