 Gaussian 16, Revision A.03,
 Gaussian 16:  ES64L-G16RevA.03 25-Dec-2016

 -----------------------------
 # opt freq b3lyp/6-31g(2df,p)
 -----------------------------

 -------------------
 Title Card Required
 -------------------
 Symbolic Z-matrix:
 Charge =  0 Multiplicity = 1

 SCF Done:  E(RB3LYP) =  -311.635333441     A.U. after   16 cycles
 SCF Done:  E(RB3LYP) =  -311.692360847     A.U. after   14 cycles
 SCF Done:  E(RB3LYP) =  -311.766691435     A.U. after   13 cycles
 SCF Done:  E(RB3LYP) =  -311.784893058     A.U. after   13 cycles
 SCF Done:  E(RB3LYP) =  -311.795802469     A.U. after   11 cycles
 SCF Done:  E(RB3LYP) =  -311.820426206     A.U. after   11 cycles
 SCF Done:  E(RB3LYP) =  -311.820723578     A.U. after    7 cycles
 SCF Done:  E(RB3LYP) =  -311.835804139     A.U. after   11 cycles
 SCF Done:  E(RB3LYP) =  -311.860377582     A.U. after   12 cycles
 SCF Done:  E(RB3LYP) =  -311.890200440     A.U. after   11 cycles
 SCF Done:  E(RB3LYP) =  -311.979560472     A.U. after   11 cycles
 SCF Done:  E(RB3LYP) =  -311.984749590     A.U. after   10 cycles
 SCF Done:  E(RB3LYP) =  -311.986756418     A.U. after   10 cycles
 SCF Done:  E(RB3LYP) =  -311.986977626     A.U. after   10 cycles
 SCF Done:  E(RB3LYP) =  -311.987146168     A.U. after    9 cycles
 SCF Done:  E(RB3LYP) =  -311.987204881     A.U. after    8 cycles
 SCF Done:  E(RB3LYP) =  -311.987224582     A.U. after    8 cycles
 SCF Done:  E(RB3LYP) =  -311.987229307     A.U. after    8 cycles
 SCF Done:  E(RB3LYP) =  -311.987229832     A.U. after    6 cycles
 Optimization completed.
    -- Stationary point found.
 Normal termination of Gaussian 16 at Sun May 28 19:20:51 2023.

 ----------------------------------------------------------------------
 #N Geom=AllCheck Guess=TCheck SCRF=Check GenChk RB3LYP/6-31G(2df,p) Fr
 eq
 ----------------------------------------------------------------------

 Structure from the checkpoint file:  "CC12CC3qCrC1CC23.chk"
 -------------------
 Title Card Required
 -------------------
 Charge =  0 Multiplicity = 1

                         Standard orientation:
 ---------------------------------------------------------------------
 Center     Atomic      Atomic             Coordinates (Angstroms)
 Number     Number       Type             X           Y           Z
 ---------------------------------------------------------------------
      1          6           0       -2.456184   -0.296899   -0.000153
      2          6           0       -0.951844   -0.304924    0.000084
      3          6           0        0.000017   -1.518999    0.000273
      4          6           0        0.951803   -0.304791    0.000366
      5          6           0        2.456107   -0.296968   -0.000183
      6          6           0       -0.000011    0.521503    0.943349
      7          6           0        0.000074    1.739915   -0.000182
      8          6           0       -0.000019    0.521084   -0.943140
      9          1           0       -2.852934   -0.808539    0.884113
     10          1           0       -2.852465   -0.808510   -0.884680
     11          1           0       -2.851661    0.724927   -0.000278
     12          1           0        0.000201   -2.145562   -0.899970
     13          1           0       -0.000056   -2.146320    0.899920
     14          1           0        2.853005   -0.808804    0.883935
     15          1           0        2.851820    0.724770   -0.000186
     16          1           0        2.852131   -0.808519   -0.884845
     17          1           0       -0.000310    0.491903    2.035690
     18          1           0        0.897441    2.367035   -0.000354
     19          1           0       -0.896812    2.367692   -0.000309
     20          1           0       -0.000017    0.490401   -2.035522
 ---------------------------------------------------------------------

 SCF Done:  E(RB3LYP) =  -311.987229832     A.U. after    1 cycles

 The electronic state is 1-A.
 Alpha  occ. eigenvalues --  -10.19460 -10.19458 -10.18605 -10.18603 -10.17499
 Alpha  occ. eigenvalues --  -10.17190 -10.17190 -10.17053  -0.92970  -0.73819
 Alpha  occ. eigenvalues --   -0.73611  -0.69850  -0.62325  -0.60077  -0.55054
 Alpha  occ. eigenvalues --   -0.49289  -0.46190  -0.44444  -0.43124  -0.43026
 Alpha  occ. eigenvalues --   -0.41027  -0.39616  -0.38632  -0.38077  -0.31166
 Alpha  occ. eigenvalues --   -0.29857  -0.28469  -0.28431  -0.27886  -0.27174
 Alpha virt. eigenvalues --    0.10120   0.11436   0.11765   0.13104   0.13639
 Alpha virt. eigenvalues --    0.14306   0.14738   0.14908   0.15886   0.17374
 Alpha virt. eigenvalues --    0.18032   0.18723   0.18795   0.20490   0.20962

 Mulliken charges:
               1
     1  C   -0.519479
     2  C    0.362393
     3  C   -0.350851
     4  C    0.362443
     5  C   -0.519492
     6  C   -0.109830
     7  C   -0.277662
     8  C   -0.109673
     9  H    0.117136
    10  H    0.117131
    11  H    0.118180
    12  H    0.080920
    13  H    0.080942
    14  H    0.117131
    15  H    0.118174
    16  H    0.117146
    17  H    0.059437
    18  H    0.088264
    19  H    0.088268
    20  H    0.059423
 Sum of Mulliken charges =  -0.00000

 Dipole moment (field-independent basis, Debye):
    X=              0.0001    Y=             -0.0612    Z=             -0.0000  Tot=              0.0612
 Quadrupole moment (field-independent basis, Debye-Ang):
   XX=            -49.5942   YY=            -50.5467   ZZ=            -49.2608
   XY=             -0.0005   XZ=             -0.0003   YZ=              0.0005

  Exact polarizability:  87.543   0.000  80.893   0.000   0.003  71.220
 Approx polarizability: 115.210   0.002 117.273   0.003   0.005 113.564

                      1                      2                      3
                      A                      A                      A
 Frequencies --    203.9890               210.5945               216.2966
 Red. masses --      2.2732                 1.0080                 1.0832
 Frc consts  --      0.0557                 0.0263                 0.0299
 IR Inten    --      0.2398                 0.0000                 0.0057

                      4                      5                      6
                      A                      A                      A
 Frequencies --    231.2971               275.6902               356.3548
 Red. masses --      2.4882                 2.3257                 2.1796
 Frc consts  --      0.0784                 0.1041                 0.1631
 IR Inten    --      0.1021                 0.0017                 0.0000

                      7                      8                      9
                      A                      A                      A
 Frequencies --    410.5521               471.9163               578.3630
 Red. masses --      1.8603                 2.0481                 3.9325
 Frc consts  --      0.1847                 0.2687                 0.7750
 IR Inten    --      0.5710                 1.2553                 0.0789

                     10                     11                     12
                      A                      A                      A
 Frequencies --    653.7826               693.3238               762.5753
 Red. masses --      2.6508                 3.2246                 3.6675
 Frc consts  --      0.6676                 0.9133                 1.2566
 IR Inten    --      0.5679                 0.0000                 0.1703

                     13                     14                     15
                      A                      A                      A
 Frequencies --    838.6950               862.2910               869.7684
 Red. masses --      1.9744                 2.1837                 2.1375
 Frc consts  --      0.8183                 0.9566                 0.9527
 IR Inten    --      0.3118                 0.8921                 1.3855

                     16                     17                     18
                      A                      A                      A
 Frequencies --    901.4581               927.1769               987.2123
 Red. masses --      1.9418                 2.1329                 1.0950
 Frc consts  --      0.9297                 1.0803                 0.6288
 IR Inten    --      0.1153                 1.1035                 0.0000

                     19                     20                     21
                      A                      A                      A
 Frequencies --   1006.5012              1014.0624              1021.3085
 Red. masses --      1.2690                 1.3604                 1.1021
 Frc consts  --      0.7574                 0.8242                 0.6773
 IR Inten    --      0.0092                 0.6473                 0.0000

                     22                     23                     24
                      A                      A                      A
 Frequencies --   1057.0146              1097.3134              1122.6228
 Red. masses --      3.6985                 1.8676                 1.2628
 Frc consts  --      2.4347                 1.3250                 0.9377
 IR Inten    --      0.0010                 0.4234                 0.0000

                     25                     26                     27
                      A                      A                      A
 Frequencies --   1135.8774              1158.8872              1162.8445
 Red. masses --      1.9296                 2.5051                 1.5548
 Frc consts  --      1.4668                 1.9823                 1.2387
 IR Inten    --      4.1121                 0.5229                 0.0000

                     28                     29                     30
                      A                      A                      A
 Frequencies --   1163.3527              1193.9117              1223.2278
 Red. masses --      1.5419                 1.7484                 2.6181
 Frc consts  --      1.2295                 1.4684                 2.3081
 IR Inten    --      0.1005                 0.9014                 6.9068

                     31                     32                     33
                      A                      A                      A
 Frequencies --   1238.9106              1276.4170              1303.7947
 Red. masses --      1.7550                 2.4741                 2.7550
 Frc consts  --      1.5871                 2.3750                 2.7593
 IR Inten    --      6.5972                 0.7811                44.0472

                     34                     35                     36
                      A                      A                      A
 Frequencies --   1370.8952              1409.1427              1412.5096
 Red. masses --      2.1896                 1.3136                 1.5637
 Frc consts  --      2.4246                 1.5368                 1.8381
 IR Inten    --      0.0635                 3.7316                 0.6706

                     37                     38                     39
                      A                      A                      A
 Frequencies --   1486.1927              1487.0203              1492.2773
 Red. masses --      1.0454                 1.0475                 1.0656
 Frc consts  --      1.3605                 1.3647                 1.3981
 IR Inten    --      0.0009                 8.4186                 3.8521

                     40                     41                     42
                      A                      A                      A
 Frequencies --   1492.3149              1511.0703              1514.4344
 Red. masses --      1.0479                 1.1203                 1.2318
 Frc consts  --      1.3750                 1.5072                 1.6646
 IR Inten    --      0.8005                 2.2016                 0.0046

                     43                     44                     45
                      A                      A                      A
 Frequencies --   3015.0796              3021.9050              3022.6744
 Red. masses --      1.0535                 1.0351                 1.0368
 Frc consts  --      5.6424                 5.5693                 5.5814
 IR Inten    --     54.7658                66.0033                15.2080

                     46                     47                     48
                      A                      A                      A
 Frequencies --   3036.8215              3069.5795              3077.5962
 Red. masses --      1.0540                 1.1087                 1.0892
 Frc consts  --      5.7271                 6.1547                 6.0781
 IR Inten    --     42.6506                26.7103               119.6734

                     49                     50                     51
                      A                      A                      A
 Frequencies --   3085.0144              3085.8800              3085.9481
 Red. masses --      1.0910                 1.1007                 1.1007
 Frc consts  --      6.1177                 6.1758                 6.1756
 IR Inten    --      1.5887                19.4307                31.2666

                     52                     53                     54
                      A                      A                      A
 Frequencies --   3087.5703              3090.6490              3091.9880
 Red. masses --      1.1052                 1.1001                 1.1040
 Frc consts  --      6.2077                 6.1914                 6.2187
 IR Inten    --     26.4644                47.1296                16.3908

 - Thermochemistry -
 -------------------
 Temperature   298.150 Kelvin.  Pressure   1.00000 Atm.
 Atom     1 has atomic number  6 and mass  12.00000

 Molecular mass:   108.09390 amu.
 Principal axes and moments of inertia in atomic units:
                           1         2         3
     Eigenvalues --   479.00078 899.325731131.98837
           X            1.00000  -0.00000  -0.00001
           Y            0.00000   1.00000   0.00002
           Z            0.00001  -0.00002   1.00000
 This molecule is an asymmetric top.
 Rotational symmetry number  1.
 Warning -- assumption of classical behavior for rotation
           may cause significant error
 Rotational temperatures (Kelvin)      0.18082     0.09631     0.07651
 Rotational constants (GHZ):           3.76772     2.00677     1.59431
 Zero-point vibrational energy     463995.2 (Joules/Mol)
                                  110.89753 (Kcal/Mol)
 Warning -- explicit consideration of   9 degrees of freedom as
           vibrations may cause significant error
 Vibrational temperatures:    293.49   303.00   311.20   332.79   396.66
          (Kelvin)            512.72   590.69   678.98   832.14   940.65
                              997.54  1097.18  1206.70  1240.64  1251.40
                             1297.00  1334.00  1420.38  1448.13  1459.01
                             1469.44  1520.81  1578.79  1615.20  1634.27
                             1667.38  1673.07  1673.81  1717.77  1759.95
                             1782.52  1836.48  1875.87  1972.41  2027.44
                             2032.29  2138.30  2139.49  2147.05  2147.11
                             2174.09  2178.93  4338.03  4347.85  4348.95
                             4369.31  4416.44  4427.97  4438.65  4439.89
                             4439.99  4442.33  4446.75  4448.68

 Zero-point correction=                           0.176726 (Hartree/Particle)
 Thermal correction to Energy=                    0.184285
 Thermal correction to Enthalpy=                  0.185229
 Thermal correction to Gibbs Free Energy=         0.145695
 Sum of electronic and zero-point Energies=           -311.810503
 Sum of electronic and thermal Energies=              -311.802945
 Sum of electronic and thermal Enthalpies=            -311.802001
 Sum of electronic and thermal Free Energies=         -311.841534

                     E (Thermal)             CV                S
                      KCal/Mol        Cal/Mol-Kelvin    Cal/Mol-Kelvin
 Total                  115.640             30.420             83.205
 Electronic               0.000              0.000              0.000
 Translational            0.889              2.981             39.950
 Rotational               0.889              2.981             27.680
 Vibrational            113.863             24.458             15.575
 Vibration     1          0.640              1.834              2.097
 Vibration     2          0.643              1.825              2.039
 Vibration     3          0.645              1.816              1.990
 Vibration     4          0.653              1.793              1.869
 Vibration     5          0.677              1.718              1.560
 Vibration     6          0.732              1.562              1.138
 Vibration     7          0.775              1.447              0.925
 Vibration     8          0.829              1.312              0.732
 Vibration     9          0.935              1.078              0.488

 Optimization completed.
    -- Stationary point found.
 Normal termination of Gaussian 16 at Sun May 28 19:47:12 2023.
