 Gaussian 16, Revision A.03,
 Gaussian 16:  ES64L-G16RevA.03 25-Dec-2016

 -----------------------------
 # opt freq b3lyp/6-31g(2df,p)
 -----------------------------

 -------------------
 Title Card Required
 -------------------
 Symbolic Z-matrix:
 Charge =  0 Multiplicity = 1

 SCF Done:  E(RB3LYP) =  -312.004074966     A.U. after   12 cycles
 SCF Done:  E(RB3LYP) =  -312.020760781     A.U. after   11 cycles
 SCF Done:  E(RB3LYP) =  -312.022569938     A.U. after   10 cycles
 SCF Done:  E(RB3LYP) =  -312.022891657     A.U. after    9 cycles
 SCF Done:  E(RB3LYP) =  -312.022998619     A.U. after    9 cycles
 SCF Done:  E(RB3LYP) =  -312.023027350     A.U. after    8 cycles
 SCF Done:  E(RB3LYP) =  -312.023040775     A.U. after    8 cycles
 SCF Done:  E(RB3LYP) =  -312.023041089     A.U. after    6 cycles
 Optimization completed.
    -- Stationary point found.
 Normal termination of Gaussian 16 at Sun May 28 11:11:23 2023.

 ----------------------------------------------------------------------
 #N Geom=AllCheck Guess=TCheck SCRF=Check GenChk RB3LYP/6-31G(2df,p) Fr
 eq
 ----------------------------------------------------------------------

 Structure from the checkpoint file:  "CC12CCC3C1CC32.chk"
 -------------------
 Title Card Required
 -------------------
 Charge =  0 Multiplicity = 1

                         Standard orientation:
 ---------------------------------------------------------------------
 Center     Atomic      Atomic             Coordinates (Angstroms)
 Number     Number       Type             X           Y           Z
 ---------------------------------------------------------------------
      1          6           0        1.725212    1.336568    0.000060
      2          6           0        0.427942    0.555630   -0.000046
      3          6           0       -0.862663    1.389094   -0.000120
      4          6           0       -1.934171    0.269217    0.000144
      5          6           0       -1.018367   -0.951018    0.000050
      6          6           0        0.202940   -0.688288   -0.939070
      7          6           0        1.072171   -1.557752   -0.000086
      8          6           0        0.203033   -0.688306    0.939034
      9          1           0        1.786593    1.984535   -0.882204
     10          1           0        2.609595    0.693593    0.000231
     11          1           0        1.786188    1.984509    0.882385
     12          1           0       -0.923842    2.037056   -0.881659
     13          1           0       -0.923747    2.037551    0.881038
     14          1           0       -2.582048    0.300330   -0.881925
     15          1           0       -2.581537    0.300327    0.882580
     16          1           0       -1.466521   -1.946803    0.000024
     17          1           0        0.194422   -0.683639   -2.032204
     18          1           0        2.150466   -1.383864   -0.000141
     19          1           0        0.858748   -2.630646   -0.000092
     20          1           0        0.195095   -0.683833    2.032172
 ---------------------------------------------------------------------

 SCF Done:  E(RB3LYP) =  -312.023041089     A.U. after    1 cycles

 The electronic state is 1-A.
 Alpha  occ. eigenvalues --  -10.19019 -10.18777 -10.18775 -10.18326 -10.17689
 Alpha  occ. eigenvalues --  -10.17116 -10.17013 -10.16952  -0.91579  -0.76449
 Alpha  occ. eigenvalues --   -0.73445  -0.64501  -0.62681  -0.61935  -0.55744
 Alpha  occ. eigenvalues --   -0.49230  -0.48465  -0.45728  -0.44406  -0.42639
 Alpha  occ. eigenvalues --   -0.40807  -0.37813  -0.35413  -0.33271  -0.32367
 Alpha  occ. eigenvalues --   -0.31440  -0.30042  -0.29439  -0.28935  -0.27639
 Alpha virt. eigenvalues --    0.09770   0.10759   0.12783   0.12923   0.14786
 Alpha virt. eigenvalues --    0.15035   0.15135   0.15948   0.16268   0.17149
 Alpha virt. eigenvalues --    0.18261   0.18822   0.20083   0.20782   0.20807

 Mulliken charges:
               1
     1  C   -0.500869
     2  C    0.386137
     3  C   -0.275897
     4  C   -0.252493
     5  C    0.010061
     6  C   -0.087813
     7  C   -0.251998
     8  C   -0.087824
     9  H    0.114141
    10  H    0.115813
    11  H    0.114142
    12  H    0.091599
    13  H    0.091593
    14  H    0.094123
    15  H    0.094129
    16  H    0.056922
    17  H    0.057459
    18  H    0.088103
    19  H    0.085213
    20  H    0.057461
 Sum of Mulliken charges =  -0.00000

 Dipole moment (field-independent basis, Debye):
    X=             -0.0417    Y=              0.1466    Z=              0.0000  Tot=              0.1524
 Quadrupole moment (field-independent basis, Debye-Ang):
   XX=            -50.2438   YY=            -50.1163   ZZ=            -49.3079
   XY=              0.3430   XZ=              0.0007   YZ=             -0.0002

  Exact polarizability:  82.974  -0.498  82.323   0.002  -0.001  69.977
 Approx polarizability: 114.300  -0.382 116.003   0.003  -0.002 112.446

                      1                      2                      3
                      A                      A                      A
 Frequencies --    203.2330               204.4808               305.5667
 Red. masses --      1.0849                 1.6288                 2.0907
 Frc consts  --      0.0264                 0.0401                 0.1150
 IR Inten    --      0.0000                 0.0292                 0.0141

                      4                      5                      6
                      A                      A                      A
 Frequencies --    329.2343               369.6144               448.3265
 Red. masses --      2.5163                 2.2090                 2.2368
 Frc consts  --      0.1607                 0.1778                 0.2649
 IR Inten    --      0.0834                 0.5866                 0.5249

                      7                      8                      9
                      A                      A                      A
 Frequencies --    614.8371               674.1110               717.1968
 Red. masses --      3.4593                 3.9907                 3.8293
 Frc consts  --      0.7705                 1.0685                 1.1605
 IR Inten    --      1.2882                 0.3303                 0.4923

                     10                     11                     12
                      A                      A                      A
 Frequencies --    718.6276               815.1980               824.2809
 Red. masses --      2.9760                 1.7977                 1.6845
 Frc consts  --      0.9055                 0.7039                 0.6743
 IR Inten    --      0.0061                 0.0087                 0.0200

                     13                     14                     15
                      A                      A                      A
 Frequencies --    885.3508               894.9739               910.1456
 Red. masses --      1.7442                 2.7852                 2.0808
 Frc consts  --      0.8055                 1.3144                 1.0155
 IR Inten    --      1.0871                 0.5579                 0.1758

                     16                     17                     18
                      A                      A                      A
 Frequencies --    930.6164               958.7276               998.6353
 Red. masses --      2.0392                 2.0556                 1.2296
 Frc consts  --      1.0405                 1.1132                 0.7225
 IR Inten    --      0.0017                 0.6671                 1.7988

                     19                     20                     21
                      A                      A                      A
 Frequencies --   1007.3561              1011.2292              1056.1881
 Red. masses --      1.9425                 1.0801                 1.5967
 Frc consts  --      1.1614                 0.6508                 1.0495
 IR Inten    --      0.3825                 0.2317                 1.1153

                     22                     23                     24
                      A                      A                      A
 Frequencies --   1067.5236              1075.3016              1113.5651
 Red. masses --      2.2259                 1.1183                 1.5484
 Frc consts  --      1.4945                 0.7618                 1.1313
 IR Inten    --      0.5986                 1.1938                 0.5650

                     25                     26                     27
                      A                      A                      A
 Frequencies --   1125.7356              1174.9662              1181.5235
 Red. masses --      1.7671                 2.3901                 1.4876
 Frc consts  --      1.3194                 1.9441                 1.2236
 IR Inten    --      1.3861                 0.8535                 0.1381

                     28                     29                     30
                      A                      A                      A
 Frequencies --   1205.9195              1219.8636              1237.9979
 Red. masses --      1.4046                 1.9720                 2.0003
 Frc consts  --      1.2035                 1.7289                 1.8062
 IR Inten    --      0.9288                 2.7296                 4.7562

                     31                     32                     33
                      A                      A                      A
 Frequencies --   1251.4642              1260.7159              1269.4735
 Red. masses --      1.1604                 1.6971                 1.8468
 Frc consts  --      1.0708                 1.5893                 1.7535
 IR Inten    --      0.3615                 7.9018                 1.2005

                     34                     35                     36
                      A                      A                      A
 Frequencies --   1292.0907              1332.4788              1360.5303
 Red. masses --      2.3599                 1.7562                 1.8513
 Frc consts  --      2.3212                 1.8372                 2.0190
 IR Inten    --      2.6934                 7.5706                 3.1758

                     37                     38                     39
                      A                      A                      A
 Frequencies --   1414.8219              1486.0300              1492.6477
 Red. masses --      1.3078                 1.0796                 1.0473
 Frc consts  --      1.5424                 1.4046                 1.3748
 IR Inten    --      3.8569                 0.2804                 4.8477

                     40                     41                     42
                      A                      A                      A
 Frequencies --   1494.7362              1509.2672              1527.3402
 Red. masses --      1.0686                 1.1073                 1.1123
 Frc consts  --      1.4067                 1.4861                 1.5288
 IR Inten    --      1.4039                 1.0416                 0.8103

                     43                     44                     45
                      A                      A                      A
 Frequencies --   3024.7829              3032.3023              3045.2082
 Red. masses --      1.0390                 1.0568                 1.0601
 Frc consts  --      5.6006                 5.7250                 5.7920
 IR Inten    --     16.7238                57.5009                55.6107

                     46                     47                     48
                      A                      A                      A
 Frequencies --   3050.6277              3063.8192              3070.9835
 Red. masses --      1.0565                 1.1055                 1.0891
 Frc consts  --      5.7929                 6.1143                 6.0518
 IR Inten    --     45.2841                 0.7127               121.0832

                     49                     50                     51
                      A                      A                      A
 Frequencies --   3076.4315              3080.1705              3086.4637
 Red. masses --      1.0880                 1.1003                 1.1051
 Frc consts  --      6.0672                 6.1503                 6.2025
 IR Inten    --      6.0355                15.1436                61.9980

                     52                     53                     54
                      A                      A                      A
 Frequencies --   3097.1022              3103.1490              3111.5915
 Red. masses --      1.0907                 1.1021                 1.1037
 Frc consts  --      6.1643                 6.2527                 6.2962
 IR Inten    --     42.1100                41.1231                41.1026

 - Thermochemistry -
 -------------------
 Temperature   298.150 Kelvin.  Pressure   1.00000 Atm.
 Atom     1 has atomic number  6 and mass  12.00000

 Molecular mass:   108.09390 amu.
 Principal axes and moments of inertia in atomic units:
                           1         2         3
     Eigenvalues --   590.16628 675.939141021.90497
           X            0.99921   0.03966   0.00001
           Y           -0.03966   0.99921  -0.00000
           Z           -0.00001   0.00000   1.00000
 This molecule is an asymmetric top.
 Rotational symmetry number  1.
 Warning -- assumption of classical behavior for rotation
           may cause significant error
 Rotational temperatures (Kelvin)      0.14676     0.12814     0.08476
 Rotational constants (GHZ):           3.05802     2.66998     1.76606
 Zero-point vibrational energy     471415.7 (Joules/Mol)
                                  112.67106 (Kcal/Mol)
 Warning -- explicit consideration of   7 degrees of freedom as
           vibrations may cause significant error
 Vibrational temperatures:    292.41   294.20   439.64   473.69   531.79
          (Kelvin)            645.04   884.61   969.90  1031.89  1033.94
                             1172.89  1185.96  1273.82  1287.67  1309.50
                             1338.95  1379.40  1436.81  1449.36  1454.93
                             1519.62  1535.93  1547.12  1602.17  1619.68
                             1690.51  1699.95  1735.05  1755.11  1781.20
                             1800.58  1813.89  1826.49  1859.03  1917.14
                             1957.50  2035.61  2138.07  2147.59  2150.59
                             2171.50  2197.50  4351.99  4362.81  4381.38
                             4389.17  4408.15  4418.46  4426.30  4431.68
                             4440.73  4456.04  4464.74  4476.89

 Zero-point correction=                           0.179553 (Hartree/Particle)
 Thermal correction to Energy=                    0.186210
 Thermal correction to Enthalpy=                  0.187154
 Thermal correction to Gibbs Free Energy=         0.149328
 Sum of electronic and zero-point Energies=           -311.843488
 Sum of electronic and thermal Energies=              -311.836831
 Sum of electronic and thermal Enthalpies=            -311.835887
 Sum of electronic and thermal Free Energies=         -311.873713

                     E (Thermal)             CV                S
                      KCal/Mol        Cal/Mol-Kelvin    Cal/Mol-Kelvin
 Total                  116.848             27.887             79.610
 Electronic               0.000              0.000              0.000
 Translational            0.889              2.981             39.950
 Rotational               0.889              2.981             27.502
 Vibrational            115.071             21.925             12.158
 Vibration     1          0.639              1.835              2.104
 Vibration     2          0.640              1.834              2.092
 Vibration     3          0.696              1.663              1.386
 Vibration     4          0.712              1.617              1.264
 Vibration     5          0.742              1.535              1.081
 Vibration     6          0.807              1.365              0.801
 Vibration     7          0.974              1.000              0.425

 Optimization completed.
    -- Stationary point found.
 Normal termination of Gaussian 16 at Sun May 28 11:41:32 2023.
