 Gaussian 16, Revision A.03,
 Gaussian 16:  ES64L-G16RevA.03 25-Dec-2016

 -----------------------------
 # opt freq b3lyp/6-31g(2df,p)
 -----------------------------

 -------------------
 Title Card Required
 -------------------
 Symbolic Z-matrix:
 Charge =  0 Multiplicity = 1

 SCF Done:  E(RB3LYP) =  -273.904537844     A.U. after   12 cycles
 SCF Done:  E(RB3LYP) =  -273.922018607     A.U. after   11 cycles
 SCF Done:  E(RB3LYP) =  -273.923393780     A.U. after   10 cycles
 SCF Done:  E(RB3LYP) =  -273.923562543     A.U. after    9 cycles
 SCF Done:  E(RB3LYP) =  -273.923594305     A.U. after    8 cycles
 SCF Done:  E(RB3LYP) =  -273.923596043     A.U. after    7 cycles
 SCF Done:  E(RB3LYP) =  -273.923597150     A.U. after    5 cycles
 SCF Done:  E(RB3LYP) =  -273.923598496     A.U. after    5 cycles
 SCF Done:  E(RB3LYP) =  -273.923596833     A.U. after    5 cycles
 SCF Done:  E(RB3LYP) =  -273.923597061     A.U. after    5 cycles
 SCF Done:  E(RB3LYP) =  -273.923596594     A.U. after    5 cycles
 Optimization completed.
    -- Stationary point found.
 Normal termination of Gaussian 16 at Sun May 28 00:53:47 2023.

 ----------------------------------------------------------------------
 #N Geom=AllCheck Guess=TCheck SCRF=Check GenChk RB3LYP/6-31G(2df,p) Fr
 eq
 ----------------------------------------------------------------------

 Structure from the checkpoint file:  "CC12CCqCrqC1rC2.chk"
 -------------------
 Title Card Required
 -------------------
 Charge =  0 Multiplicity = 1

                         Standard orientation:
 ---------------------------------------------------------------------
 Center     Atomic      Atomic             Coordinates (Angstroms)
 Number     Number       Type             X           Y           Z
 ---------------------------------------------------------------------
      1          6           0       -2.453443    0.000025    0.000004
      2          6           0       -0.948079   -0.000068    0.000048
      3          6           0        0.000045    0.525370    1.121141
      4          6           0        0.948086    0.000008   -0.000066
      5          6           0        2.453447    0.000068   -0.000051
      6          6           0        0.000051   -1.233658   -0.105539
      7          6           0       -0.000103    0.708205   -1.015522
      8          1           0       -2.848500   -0.585763    0.837574
      9          1           0       -2.848377   -0.432347   -0.926184
     10          1           0       -2.848247    1.018380    0.088549
     11          1           0        0.000120   -0.030923    2.064338
     12          1           0        0.000010    1.606174    1.297093
     13          1           0        2.848349   -0.585181    0.837971
     14          1           0        2.848333    1.018446    0.087839
     15          1           0        2.848458   -0.432978   -0.925890
     16          1           0        0.000115   -1.926543    0.742430
     17          1           0        0.000031   -1.772391   -1.058891
     18          1           0       -0.000170    0.320218   -2.039521
     19          1           0       -0.000144    1.803210   -1.005397
 ---------------------------------------------------------------------

 SCF Done:  E(RB3LYP) =  -273.923596594     A.U. after    1 cycles

 The electronic state is 1-A.
 Alpha  occ. eigenvalues --  -10.19789 -10.19787 -10.17506 -10.17506 -10.17505
 Alpha  occ. eigenvalues --  -10.17040 -10.17040  -0.90403  -0.73374  -0.70050
 Alpha  occ. eigenvalues --   -0.65732  -0.65731  -0.54208  -0.52658  -0.44487
 Alpha  occ. eigenvalues --   -0.44486  -0.43264  -0.41433  -0.41432  -0.39053
 Alpha  occ. eigenvalues --   -0.39053  -0.34286  -0.30092  -0.30090  -0.29315
 Alpha  occ. eigenvalues --   -0.29314  -0.29007
 Alpha virt. eigenvalues --    0.09632   0.10632   0.14239   0.14872   0.14873
 Alpha virt. eigenvalues --    0.15836   0.15837   0.16483   0.16484   0.17445
 Alpha virt. eigenvalues --    0.17978   0.17979   0.18521   0.18521   0.23228

 Mulliken charges:
               1
     1  C   -0.509145
     2  C    0.344473
     3  C   -0.281570
     4  C    0.344468
     5  C   -0.509145
     6  C   -0.281609
     7  C   -0.281556
     8  H    0.115689
     9  H    0.115692
    10  H    0.115692
    11  H    0.079990
    12  H    0.079988
    13  H    0.115693
    14  H    0.115691
    15  H    0.115690
    16  H    0.079996
    17  H    0.079991
    18  H    0.079979
    19  H    0.079990
 Sum of Mulliken charges =  -0.00000

 Dipole moment (field-independent basis, Debye):
    X=              0.0000    Y=              0.0001    Z=              0.0000  Tot=              0.0001
 Quadrupole moment (field-independent basis, Debye-Ang):
   XX=            -45.1671   YY=            -44.6676   ZZ=            -44.6681
   XY=             -0.0001   XZ=              0.0001   YZ=             -0.0002

  Exact polarizability:  79.408  -0.001  69.077   0.001   0.000  69.076
 Approx polarizability: 100.080  -0.001 103.735   0.001   0.000 103.733

                      1                      2                      3
                      A                      A                      A
 Frequencies --    205.3993               212.5425               222.3607
 Red. masses --      1.0078                 1.0520                 2.4605
 Frc consts  --      0.0251                 0.0280                 0.0717
 IR Inten    --      0.0000                 0.0000                 0.1117

                      4                      5                      6
                      A                      A                      A
 Frequencies --    222.4014               360.4075               360.7000
 Red. masses --      2.4608                 2.2248                 2.2255
 Frc consts  --      0.0717                 0.1703                 0.1706
 IR Inten    --      0.1115                 0.0000                 0.0000

                      7                      8                      9
                      A                      A                      A
 Frequencies --    543.3424               544.1317               583.6562
 Red. masses --      1.7622                 1.7634                 3.9007
 Frc consts  --      0.3065                 0.3076                 0.7829
 IR Inten    --      0.1953                 0.1965                 0.0000

                     10                     11                     12
                      A                      A                      A
 Frequencies --    642.8711               762.5475               762.6237
 Red. masses --      2.8157                 2.6460                 2.6464
 Frc consts  --      0.6856                 0.9065                 0.9068
 IR Inten    --      0.0307                 0.0000                 0.0000

                     13                     14                     15
                      A                      A                      A
 Frequencies --    912.1135               912.2078               928.9531
 Red. masses --      1.9189                 1.9179                 4.7596
 Frc consts  --      0.9406                 0.9403                 2.4200
 IR Inten    --      0.6716                 0.6722                 0.0000

                     16                     17                     18
                      A                      A                      A
 Frequencies --    961.1864               991.6744              1018.4294
 Red. masses --      1.2611                 1.0078                 1.1739
 Frc consts  --      0.6865                 0.5839                 0.7174
 IR Inten    --      0.0000                 0.0000                 0.0000

                     19                     20                     21
                      A                      A                      A
 Frequencies --   1018.5199              1092.4352              1092.5603
 Red. masses --      1.1740                 1.7417                 1.7407
 Frc consts  --      0.7176                 1.2247                 1.2243
 IR Inten    --      0.0000                 2.7494                 2.7478

                     22                     23                     24
                      A                      A                      A
 Frequencies --   1107.8799              1145.3099              1145.7452
 Red. masses --      1.7518                 1.3623                 1.3612
 Frc consts  --      1.2669                 1.0529                 1.0528
 IR Inten    --      0.4325                 0.0000                 0.0000

                     25                     26                     27
                      A                      A                      A
 Frequencies --   1189.9525              1190.1151              1224.2037
 Red. masses --      1.6085                 1.6080                 2.5851
 Frc consts  --      1.3419                 1.3419                 2.2826
 IR Inten    --      0.0000                 0.0000                 0.2708

                     28                     29                     30
                      A                      A                      A
 Frequencies --   1224.3391              1312.6879              1351.2812
 Red. masses --      2.5863                 2.6234                 2.5969
 Frc consts  --      2.2842                 2.6634                 2.7938
 IR Inten    --      0.2708                58.9986                 0.0000

                     31                     32                     33
                      A                      A                      A
 Frequencies --   1409.8346              1413.0676              1490.1662
 Red. masses --      1.3231                 1.5007                 1.0465
 Frc consts  --      1.5495                 1.7655                 1.3691
 IR Inten    --      3.0347                 0.0000                 0.0005

                     34                     35                     36
                      A                      A                      A
 Frequencies --   1490.2419              1490.5219              1490.5930
 Red. masses --      1.0465                 1.0542                 1.0541
 Frc consts  --      1.3693                 1.3799                 1.3799
 IR Inten    --      0.0003                 6.8773                 6.8830

                     37                     38                     39
                      A                      A                      A
 Frequencies --   1496.0449              1496.2025              1560.4494
 Red. masses --      1.0902                 1.0902                 1.2706
 Frc consts  --      1.4376                 1.4379                 1.8229
 IR Inten    --      0.7733                 0.7678                 0.0000

                     40                     41                     42
                      A                      A                      A
 Frequencies --   3022.4763              3022.8896              3027.2387
 Red. masses --      1.0359                 1.0352                 1.0533
 Frc consts  --      5.5757                 5.5733                 5.6871
 IR Inten    --      0.0002                67.0203                74.5353

                     43                     44                     45
                      A                      A                      A
 Frequencies --   3027.3351              3040.0860              3088.4413
 Red. masses --      1.0533                 1.0541                 1.1124
 Frc consts  --      5.6873                 5.7399                 6.2518
 IR Inten    --     74.8218                 0.0011                 0.0006

                     46                     47                     48
                      A                      A                      A
 Frequencies --   3089.4705              3089.5179              3090.1220
 Red. masses --      1.1017                 1.1018                 1.1010
 Frc consts  --      6.1957                 6.1961                 6.1941
 IR Inten    --     16.3123                15.8607                 0.0009

                     49                     50                     51
                      A                      A                      A
 Frequencies --   3090.1792              3095.9699              3096.0637
 Red. masses --      1.1010                 1.1082                 1.1083
 Frc consts  --      6.1944                 6.2586                 6.2592
 IR Inten    --      0.0007                91.5407                90.6010

 - Thermochemistry -
 -------------------
 Temperature   298.150 Kelvin.  Pressure   1.00000 Atm.
 Atom     1 has atomic number  6 and mass  12.00000

 Molecular mass:    96.09390 amu.
 Principal axes and moments of inertia in atomic units:
                           1         2         3
     Eigenvalues --   311.67825 923.96611 923.97343
           X            1.00000  -0.00000   0.00000
           Y            0.00000   0.99901  -0.04440
           Z           -0.00000   0.04440   0.99901
 This molecule is an asymmetric top.
 Rotational symmetry number  1.
 Rotational temperatures (Kelvin)      0.27790     0.09374     0.09374
 Rotational constants (GHZ):           5.79040     1.95325     1.95324
 Zero-point vibrational energy     450749.9 (Joules/Mol)
                                  107.73180 (Kcal/Mol)
 Warning -- explicit consideration of   9 degrees of freedom as
           vibrations may cause significant error
 Vibrational temperatures:    295.52   305.80   319.93   319.99   518.55
          (Kelvin)            518.97   781.75   782.88   839.75   924.95
                             1097.14  1097.25  1312.33  1312.46  1336.56
                             1382.93  1426.80  1465.29  1465.42  1571.77
                             1571.95  1593.99  1647.85  1648.47  1712.08
                             1712.31  1761.36  1761.55  1888.67  1944.19
                             2028.44  2033.09  2144.02  2144.13  2144.53
                             2144.63  2152.47  2152.70  2245.14  4348.67
                             4349.26  4355.52  4355.66  4374.01  4443.58
                             4445.06  4445.13  4446.00  4446.08  4454.41
                             4454.55

 Zero-point correction=                           0.171682 (Hartree/Particle)
 Thermal correction to Energy=                    0.178786
 Thermal correction to Enthalpy=                  0.179730
 Thermal correction to Gibbs Free Energy=         0.141366
 Sum of electronic and zero-point Energies=           -273.751915
 Sum of electronic and thermal Energies=              -273.744810
 Sum of electronic and thermal Enthalpies=            -273.743866
 Sum of electronic and thermal Free Energies=         -273.782231

                     E (Thermal)             CV                S
                      KCal/Mol        Cal/Mol-Kelvin    Cal/Mol-Kelvin
 Total                  112.190             28.162             80.745
 Electronic               0.000              0.000              0.000
 Translational            0.889              2.981             39.599
 Rotational               0.889              2.981             27.078
 Vibrational            110.413             22.201             14.067
 Vibration     1          0.640              1.832              2.084
 Vibration     2          0.644              1.822              2.022
 Vibration     3          0.648              1.807              1.940
 Vibration     4          0.648              1.807              1.939
 Vibration     5          0.735              1.554              1.120
 Vibration     6          0.735              1.553              1.119
 Vibration     7          0.898              1.154              0.558
 Vibration     8          0.899              1.153              0.556
 Vibration     9          0.941              1.067              0.479

                           ! Non-Optimized Parameters !
 Normal termination of Gaussian 16 at Sun May 28 01:13:10 2023.
