 Gaussian 16, Revision A.03,
 Gaussian 16:  ES64L-G16RevA.03 25-Dec-2016

 -----------------------------
 # opt freq b3lyp/6-31g(2df,p)
 -----------------------------

 -------------------
 Title Card Required
 -------------------
 Symbolic Z-matrix:
 Charge =  0 Multiplicity = 1

 SCF Done:  E(RB3LYP) =  -273.952721620     A.U. after   12 cycles
 SCF Done:  E(RB3LYP) =  -273.959765755     A.U. after   10 cycles
 SCF Done:  E(RB3LYP) =  -273.960295970     A.U. after    9 cycles
 SCF Done:  E(RB3LYP) =  -273.960340872     A.U. after    8 cycles
 SCF Done:  E(RB3LYP) =  -273.960348508     A.U. after    7 cycles
 SCF Done:  E(RB3LYP) =  -273.960350382     A.U. after    6 cycles
 SCF Done:  E(RB3LYP) =  -273.960351389     A.U. after    6 cycles
 SCF Done:  E(RB3LYP) =  -273.960351519     A.U. after    5 cycles
 Optimization completed.
    -- Stationary point found.
 Normal termination of Gaussian 16 at Sun May 28 14:35:24 2023.

 ----------------------------------------------------------------------
 #N Geom=AllCheck Guess=TCheck SCRF=Check GenChk RB3LYP/6-31G(2df,p) Fr
 eq
 ----------------------------------------------------------------------

 Structure from the checkpoint file:  "CC12CCCqC1rC2.chk"
 -------------------
 Title Card Required
 -------------------
 Charge =  0 Multiplicity = 1

                         Standard orientation:
 ---------------------------------------------------------------------
 Center     Atomic      Atomic             Coordinates (Angstroms)
 Number     Number       Type             X           Y           Z
 ---------------------------------------------------------------------
      1          6           0       -2.186921    0.176892   -0.000020
      2          6           0       -0.682121    0.039309   -0.000066
      3          6           0        0.156924    1.338106    0.000004
      4          6           0        1.595122    0.725129    0.000044
      5          6           0        1.217639   -0.769119    0.000042
      6          6           0        0.082990   -0.814582   -1.061355
      7          6           0        0.082847   -0.814625    1.061310
      8          1           0       -2.534279    0.725438   -0.883686
      9          1           0       -2.534146    0.725043    0.883946
     10          1           0       -2.679370   -0.801468   -0.000212
     11          1           0       -0.042448    1.952824    0.883800
     12          1           0       -0.042355    1.952930   -0.883739
     13          1           0        2.174567    1.007690    0.884096
     14          1           0        2.174702    1.007792   -0.883886
     15          1           0        2.033528   -1.492539    0.000061
     16          1           0       -0.347246   -1.812837   -1.178437
     17          1           0        0.272941   -0.369270   -2.043865
     18          1           0        0.272669   -0.369383    2.043875
     19          1           0       -0.347448   -1.812877    1.178287
 ---------------------------------------------------------------------

 SCF Done:  E(RB3LYP) =  -273.960351519     A.U. after    1 cycles

 The electronic state is 1-A.
 Alpha  occ. eigenvalues --  -10.18845 -10.18227 -10.17282 -10.17240 -10.17240
 Alpha  occ. eigenvalues --  -10.17172 -10.16866  -0.88095  -0.73103  -0.71405
 Alpha  occ. eigenvalues --   -0.65136  -0.64230  -0.54000  -0.52813  -0.46500
 Alpha  occ. eigenvalues --   -0.45766  -0.44931  -0.41306  -0.39511  -0.35966
 Alpha  occ. eigenvalues --   -0.35890  -0.34615  -0.32617  -0.31015  -0.29957
 Alpha  occ. eigenvalues --   -0.28803  -0.28624
 Alpha virt. eigenvalues --    0.08640   0.10992   0.13109   0.13335   0.14754
 Alpha virt. eigenvalues --    0.15760   0.16475   0.17258   0.17391   0.18248
 Alpha virt. eigenvalues --    0.19084   0.19229   0.21723   0.22059   0.22762

 Mulliken charges:
               1
     1  C   -0.497436
     2  C    0.362532
     3  C   -0.237014
     4  C   -0.209387
     5  C   -0.010247
     6  C   -0.250518
     7  C   -0.250517
     8  H    0.112399
     9  H    0.112404
    10  H    0.109711
    11  H    0.089982
    12  H    0.089981
    13  H    0.092048
    14  H    0.092053
    15  H    0.053948
    16  H    0.088986
    17  H    0.081041
    18  H    0.081043
    19  H    0.088991
 Sum of Mulliken charges =  -0.00000

 Dipole moment (field-independent basis, Debye):
    X=             -0.0749    Y=             -0.0109    Z=              0.0000  Tot=              0.0757
 Quadrupole moment (field-independent basis, Debye-Ang):
   XX=            -45.3614   YY=            -44.6577   ZZ=            -44.5797
   XY=              0.1820   XZ=             -0.0002   YZ=             -0.0001

  Exact polarizability:  74.905   0.473  69.687  -0.000  -0.000  67.339
 Approx polarizability:  99.652   0.541 100.617  -0.001  -0.001 101.883

                      1                      2                      3
                      A                      A                      A
 Frequencies --    219.8387               250.1245               293.8148
 Red. masses --      1.0466                 1.8508                 2.3395
 Frc consts  --      0.0298                 0.0682                 0.1190
 IR Inten    --      0.0233                 0.0219                 0.0101

                      4                      5                      6
                      A                      A                      A
 Frequencies --    344.5025               432.1156               506.9781
 Red. masses --      1.8939                 1.8784                 1.7478
 Frc consts  --      0.1324                 0.2066                 0.2647
 IR Inten    --      0.0205                 0.2162                 0.0266

                      7                      8                      9
                      A                      A                      A
 Frequencies --    582.1286               672.5098               813.4940
 Red. masses --      3.6953                 3.3443                 2.6616
 Frc consts  --      0.7378                 0.8911                 1.0378
 IR Inten    --      0.2923                 0.1181                 0.0503

                     10                     11                     12
                      A                      A                      A
 Frequencies --    829.1627               832.3869               870.1423
 Red. masses --      4.0065                 1.1581                 2.1053
 Frc consts  --      1.6229                 0.4728                 0.9392
 IR Inten    --      1.3986                 0.0482                 0.1352

                     13                     14                     15
                      A                      A                      A
 Frequencies --    894.2969               922.0896               941.6330
 Red. masses --      2.5761                 2.2041                 2.0910
 Frc consts  --      1.2139                 1.1041                 1.0924
 IR Inten    --      0.3141                 0.1309                 0.2524

                     16                     17                     18
                      A                      A                      A
 Frequencies --    964.7209               975.5892               991.7578
 Red. masses --      1.2978                 1.2070                 2.2675
 Frc consts  --      0.7116                 0.6768                 1.3140
 IR Inten    --      0.0581                 0.3878                 0.1403

                     19                     20                     21
                      A                      A                      A
 Frequencies --   1039.7792              1062.0360              1089.8853
 Red. masses --      1.5193                 1.1527                 1.2522
 Frc consts  --      0.9678                 0.7660                 0.8764
 IR Inten    --      2.0355                 0.6439                 1.1193

                     22                     23                     24
                      A                      A                      A
 Frequencies --   1129.8102              1151.6041              1177.6239
 Red. masses --      1.2485                 1.7907                 1.9949
 Frc consts  --      0.9389                 1.3992                 1.6300
 IR Inten    --      0.1325                 0.4000                 0.3212

                     25                     26                     27
                      A                      A                      A
 Frequencies --   1208.8747              1242.1190              1252.9403
 Red. masses --      1.4055                 1.5357                 1.2252
 Frc consts  --      1.2102                 1.3960                 1.1332
 IR Inten    --      0.2049                 3.5152                 0.0062

                     28                     29                     30
                      A                      A                      A
 Frequencies --   1256.3021              1275.1249              1286.6626
 Red. masses --      1.9724                 1.7131                 2.1081
 Frc consts  --      1.8341                 1.6411                 2.0562
 IR Inten    --      1.0580                 0.0181                 3.1662

                     31                     32                     33
                      A                      A                      A
 Frequencies --   1321.9617              1351.8727              1413.6705
 Red. masses --      1.5432                 2.1034                 1.3394
 Frc consts  --      1.5890                 2.2649                 1.5771
 IR Inten    --      1.9966                 9.1719                 2.2117

                     34                     35                     36
                      A                      A                      A
 Frequencies --   1485.4006              1489.7522              1494.1896
 Red. masses --      1.0949                 1.0721                 1.0490
 Frc consts  --      1.4234                 1.4018                 1.3799
 IR Inten    --      1.0530                 1.1483                 3.7781

                     37                     38                     39
                      A                      A                      A
 Frequencies --   1495.3697              1500.6502              1531.5084
 Red. masses --      1.0667                 1.0991                 1.1392
 Frc consts  --      1.4054                 1.4584                 1.5743
 IR Inten    --      1.3915                 2.1527                 0.2009

                     40                     41                     42
                      A                      A                      A
 Frequencies --   3018.8272              3036.1506              3037.7848
 Red. masses --      1.0359                 1.0572                 1.0580
 Frc consts  --      5.5621                 5.7420                 5.7522
 IR Inten    --     29.1116                80.3077                39.2159

                     43                     44                     45
                      A                      A                      A
 Frequencies --   3042.7181              3052.0829              3074.3155
 Red. masses --      1.0588                 1.0597                 1.1067
 Frc consts  --      5.7753                 5.8158                 6.1627
 IR Inten    --     27.1499                34.8762                 0.2391

                     46                     47                     48
                      A                      A                      A
 Frequencies --   3080.8129              3089.2699              3094.5831
 Red. masses --      1.1004                 1.1010                 1.1063
 Frc consts  --      6.1539                 6.1908                 6.2419
 IR Inten    --     22.3723                17.4717                29.3278

                     49                     50                     51
                      A                      A                      A
 Frequencies --   3100.9660              3103.1537              3109.9347
 Red. masses --      1.1080                 1.1017                 1.0933
 Frc consts  --      6.2774                 6.2505                 6.2298
 IR Inten    --     40.8119                55.0485                70.1763

 - Thermochemistry -
 -------------------
 Temperature   298.150 Kelvin.  Pressure   1.00000 Atm.
 Atom     1 has atomic number  6 and mass  12.00000

 Molecular mass:    96.09390 amu.
 Principal axes and moments of inertia in atomic units:
                           1         2         3
     Eigenvalues --   409.83689 674.91085 777.79928
           X            0.99996   0.00936  -0.00000
           Y           -0.00936   0.99996   0.00000
           Z            0.00000  -0.00000   1.00000
 This molecule is an asymmetric top.
 Rotational symmetry number  1.
 Rotational temperatures (Kelvin)      0.21134     0.12833     0.11136
 Rotational constants (GHZ):           4.40356     2.67404     2.32032
 Zero-point vibrational energy     457183.0 (Joules/Mol)
                                  109.26935 (Kcal/Mol)
 Warning -- explicit consideration of   7 degrees of freedom as
           vibrations may cause significant error
 Vibrational temperatures:    316.30   359.87   422.73   495.66   621.72
          (Kelvin)            729.43   837.55   967.59  1170.44  1192.98
                             1197.62  1251.94  1286.69  1326.68  1354.80
                             1388.02  1403.66  1426.92  1496.01  1528.03
                             1568.10  1625.54  1656.90  1694.34  1739.30
                             1787.13  1802.70  1807.54  1834.62  1851.22
                             1902.01  1945.04  2033.96  2137.16  2143.42
                             2149.81  2151.50  2159.10  2203.50  4343.42
                             4368.34  4370.69  4377.79  4391.27  4423.25
                             4432.60  4444.77  4452.41  4461.60  4464.75
                             4474.50

 Zero-point correction=                           0.174132 (Hartree/Particle)
 Thermal correction to Energy=                    0.180400
 Thermal correction to Enthalpy=                  0.181344
 Thermal correction to Gibbs Free Energy=         0.144648
 Sum of electronic and zero-point Energies=           -273.786220
 Sum of electronic and thermal Energies=              -273.779951
 Sum of electronic and thermal Enthalpies=            -273.779007
 Sum of electronic and thermal Free Energies=         -273.815704

                     E (Thermal)             CV                S
                      KCal/Mol        Cal/Mol-Kelvin    Cal/Mol-Kelvin
 Total                  113.203             25.906             77.235
 Electronic               0.000              0.000              0.000
 Translational            0.889              2.981             39.599
 Rotational               0.889              2.981             26.867
 Vibrational            111.425             19.944             10.769
 Vibration     1          0.647              1.811              1.960
 Vibration     2          0.663              1.763              1.730
 Vibration     3          0.689              1.685              1.452
 Vibration     4          0.723              1.586              1.191
 Vibration     5          0.793              1.400              0.852
 Vibration     6          0.862              1.235              0.641
 Vibration     7          0.939              1.070              0.481

 Optimization completed.
    -- Stationary point found.
 Normal termination of Gaussian 16 at Sun May 28 14:56:01 2023.
