 Gaussian 16, Revision A.03,
 Gaussian 16:  ES64L-G16RevA.03 25-Dec-2016

 -----------------------------
 # opt freq b3lyp/6-31g(2df,p)
 -----------------------------

 -------------------
 Title Card Required
 -------------------
 Symbolic Z-matrix:
 Charge =  0 Multiplicity = 1

 SCF Done:  E(RB3LYP) =  -352.585356949     A.U. after   12 cycles
 SCF Done:  E(RB3LYP) =  -352.592846510     A.U. after   10 cycles
 SCF Done:  E(RB3LYP) =  -352.593532145     A.U. after   10 cycles
 SCF Done:  E(RB3LYP) =  -352.593569492     A.U. after    9 cycles
 SCF Done:  E(RB3LYP) =  -352.593625112     A.U. after    8 cycles
 SCF Done:  E(RB3LYP) =  -352.593632474     A.U. after    7 cycles
 Optimization completed.
    -- Stationary point found.
 Normal termination of Gaussian 16 at Sun May 28 19:11:15 2023.

 ----------------------------------------------------------------------
 #N Geom=AllCheck Guess=TCheck SCRF=Check GenChk RB3LYP/6-31G(2df,p) Fr
 eq
 ----------------------------------------------------------------------

 Structure from the checkpoint file:  "CC12CCqC1rCqCrqCrC2.chk"
 -------------------
 Title Card Required
 -------------------
 Charge =  0 Multiplicity = 1

                         Standard orientation:
 ---------------------------------------------------------------------
 Center     Atomic      Atomic             Coordinates (Angstroms)
 Number     Number       Type             X           Y           Z
 ---------------------------------------------------------------------
      1          6           0        2.665494    0.000084   -0.755125
      2          6           0        1.276042    0.000027   -0.159927
      3          6           0        0.815015    1.056663    0.890026
      4          6           0       -0.290536   -0.000047    1.180880
      5          6           0        0.815051   -1.056724    0.889942
      6          6           0       -1.130281    0.000043   -0.129143
      7          6           0       -2.023537    1.242677   -0.263752
      8          6           0       -2.023891   -1.242408   -0.263649
      9          6           0        0.077047   -0.000261   -1.139139
     10          1           0        3.434182   -0.000270    0.025322
     11          1           0        2.827744    0.884145   -1.383096
     12          1           0        2.827561   -0.883545   -1.383765
     13          1           0        0.527147    2.050297    0.537745
     14          1           0        1.525190    1.151335    1.716126
     15          1           0       -0.850778   -0.000162    2.118053
     16          1           0        0.527261   -2.050410    0.537734
     17          1           0        1.525239   -1.151328    1.716063
     18          1           0       -2.796040    1.253781    0.514262
     19          1           0       -2.534257    1.246196   -1.233389
     20          1           0       -1.461254    2.176588   -0.187132
     21          1           0       -2.795990   -1.253599    0.514760
     22          1           0       -1.461617   -2.176365   -0.187517
     23          1           0       -2.535106   -1.245583   -1.233024
     24          1           0        0.079091    0.883222   -1.786999
     25          1           0        0.079204   -0.884622   -1.785821
 ---------------------------------------------------------------------

 SCF Done:  E(RB3LYP) =  -352.593632474     A.U. after    1 cycles

 The electronic state is 1-A.
 Alpha  occ. eigenvalues --  -10.18848 -10.18716 -10.18070 -10.17201 -10.17201
 Alpha  occ. eigenvalues --  -10.16897 -10.16851 -10.16523 -10.16522  -0.88409
 Alpha  occ. eigenvalues --   -0.77366  -0.72376  -0.68115  -0.67576  -0.64458
 Alpha  occ. eigenvalues --   -0.60937  -0.53060  -0.51037  -0.46959  -0.46486
 Alpha  occ. eigenvalues --   -0.44151  -0.41272  -0.41188  -0.40649  -0.38443
 Alpha  occ. eigenvalues --   -0.38109  -0.36219  -0.35464  -0.34116  -0.33597
 Alpha  occ. eigenvalues --   -0.31364  -0.29264  -0.28982  -0.28912  -0.28634
 Alpha virt. eigenvalues --    0.08391   0.09817   0.12067   0.13372   0.13538
 Alpha virt. eigenvalues --    0.14530   0.14912   0.15675   0.16550   0.16670
 Alpha virt. eigenvalues --    0.16858   0.18103   0.18866   0.19436   0.20291

 Mulliken charges:
               1
     1  C   -0.496243
     2  C    0.356821
     3  C   -0.271208
     4  C   -0.038570
     5  C   -0.271179
     6  C    0.352503
     7  C   -0.447124
     8  C   -0.447134
     9  C   -0.295715
    10  H    0.109495
    11  H    0.112233
    12  H    0.112228
    13  H    0.084982
    14  H    0.088685
    15  H    0.049600
    16  H    0.084980
    17  H    0.088673
    18  H    0.106946
    19  H    0.109193
    20  H    0.110701
    21  H    0.106945
    22  H    0.110693
    23  H    0.109193
    24  H    0.086642
    25  H    0.086660
 Sum of Mulliken charges =  -0.00000

 Dipole moment (field-independent basis, Debye):
    X=              0.1021    Y=              0.0001    Z=             -0.0117  Tot=              0.1028
 Quadrupole moment (field-independent basis, Debye-Ang):
   XX=            -58.6867   YY=            -58.4168   ZZ=            -57.9353
   XY=             -0.0001   XZ=              0.2949   YZ=             -0.0003

  Exact polarizability: 102.802   0.000  87.357   0.682  -0.001  86.652
 Approx polarizability: 133.466   0.000 131.836   0.822  -0.001 131.296

                      1                      2                      3
                      A                      A                      A
 Frequencies --    153.4587               201.7654               217.1215
 Red. masses --      2.0295                 1.1804                 1.0471
 Frc consts  --      0.0282                 0.0283                 0.0291
 IR Inten    --      0.0116                 0.0002                 0.0034

                      4                      5                      6
                      A                      A                      A
 Frequencies --    229.3195               255.9939               262.5360
 Red. masses --      1.3033                 2.1757                 1.6637
 Frc consts  --      0.0404                 0.0840                 0.0676
 IR Inten    --      0.0307                 0.0516                 0.0122

                      7                      8                      9
                      A                      A                      A
 Frequencies --    335.3716               367.8434               401.8919
 Red. masses --      2.3479                 2.4275                 2.1654
 Frc consts  --      0.1556                 0.1935                 0.2061
 IR Inten    --      0.0810                 0.0162                 0.0240

                     10                     11                     12
                      A                      A                      A
 Frequencies --    440.7605               476.6144               520.8839
 Red. masses --      1.7352                 2.5696                 2.1249
 Frc consts  --      0.1986                 0.3439                 0.3397
 IR Inten    --      0.0057                 0.4589                 0.0505

                     13                     14                     15
                      A                      A                      A
 Frequencies --    542.1589               645.4986               744.9794
 Red. masses --      2.5920                 3.1735                 2.9855
 Frc consts  --      0.4489                 0.7791                 0.9762
 IR Inten    --      0.0740                 0.5143                 0.2586

                     16                     17                     18
                      A                      A                      A
 Frequencies --    824.6081               829.3421               866.5586
 Red. masses --      3.4631                 2.5046                 1.9315
 Frc consts  --      1.3874                 1.0150                 0.8546
 IR Inten    --      0.5293                 0.1098                 0.1068

                     19                     20                     21
                      A                      A                      A
 Frequencies --    883.1341               915.1415               924.9528
 Red. masses --      2.1810                 1.6432                 2.1535
 Frc consts  --      1.0022                 0.8108                 1.0855
 IR Inten    --      0.8442                 0.1322                 0.1103

                     22                     23                     24
                      A                      A                      A
 Frequencies --    952.8965               965.3916               974.1897
 Red. masses --      1.3443                 2.2109                 1.7379
 Frc consts  --      0.7192                 1.2140                 0.9718
 IR Inten    --      0.3395                 0.1669                 0.7425

                     25                     26                     27
                      A                      A                      A
 Frequencies --    982.1006              1030.9413              1039.2717
 Red. masses --      1.3529                 1.1539                 1.5356
 Frc consts  --      0.7688                 0.7226                 0.9772
 IR Inten    --      0.0031                 0.1083                 1.3985

                     28                     29                     30
                      A                      A                      A
 Frequencies --   1047.4852              1066.5141              1080.9090
 Red. masses --      1.4899                 1.1806                 1.2991
 Frc consts  --      0.9632                 0.7912                 0.8943
 IR Inten    --      0.0033                 0.6556                 3.9283

                     31                     32                     33
                      A                      A                      A
 Frequencies --   1163.0561              1169.2531              1211.4418
 Red. masses --      1.4295                 2.0081                 2.0088
 Frc consts  --      1.1393                 1.6176                 1.7370
 IR Inten    --      0.6655                 2.7786                10.1937

                     34                     35                     36
                      A                      A                      A
 Frequencies --   1214.1249              1232.0340              1238.4340
 Red. masses --      1.9386                 1.7383                 2.1216
 Frc consts  --      1.6837                 1.5546                 1.9172
 IR Inten    --      1.2914                 0.7299                 0.3211

                     37                     38                     39
                      A                      A                      A
 Frequencies --   1248.0198              1271.9944              1282.3088
 Red. masses --      1.4990                 2.3109                 1.9449
 Frc consts  --      1.3756                 2.2029                 1.8842
 IR Inten    --      1.0421                 0.4639                 1.6541

                     40                     41                     42
                      A                      A                      A
 Frequencies --   1308.7829              1352.3481              1400.6392
 Red. masses --      2.4460                 2.0841                 1.2462
 Frc consts  --      2.4685                 2.2457                 1.4404
 IR Inten    --      4.4130                15.1281                 5.1373

                     43                     44                     45
                      A                      A                      A
 Frequencies --   1413.0603              1423.0705              1479.6012
 Red. masses --      1.3296                 1.2336                 1.0705
 Frc consts  --      1.5642                 1.4719                 1.3807
 IR Inten    --      2.4236                 1.6162                 0.3883

                     46                     47                     48
                      A                      A                      A
 Frequencies --   1485.5290              1490.2440              1493.6734
 Red. masses --      1.0451                 1.0711                 1.0490
 Frc consts  --      1.3589                 1.4015                 1.3789
 IR Inten    --      0.0967                 0.2980                 4.2503

                     49                     50                     51
                      A                      A                      A
 Frequencies --   1496.2044              1500.2481              1503.2261
 Red. masses --      1.0632                 1.0725                 1.0704
 Frc consts  --      1.4024                 1.4223                 1.4251
 IR Inten    --      5.4675                 4.7127                 0.4579

                     52                     53                     54
                      A                      A                      A
 Frequencies --   1511.2312              1533.9187              3018.9013
 Red. masses --      1.0562                 1.1293                 1.0360
 Frc consts  --      1.4212                 1.5656                 5.5628
 IR Inten    --      4.6113                 1.7501                28.8342

                     55                     56                     57
                      A                      A                      A
 Frequencies --   3022.7386              3027.3679              3032.9691
 Red. masses --      1.0374                 1.0416                 1.0542
 Frc consts  --      5.5849                 5.6245                 5.7138
 IR Inten    --     14.1739                44.9627                44.6617

                     58                     59                     60
                      A                      A                      A
 Frequencies --   3051.5695              3058.0380              3072.2853
 Red. masses --      1.0560                 1.0578                 1.1059
 Frc consts  --      5.7940                 5.8284                 6.1504
 IR Inten    --     54.9303                 9.7619                13.8793

                     61                     62                     63
                      A                      A                      A
 Frequencies --   3081.2689              3082.2052              3086.9870
 Red. masses --      1.1006                 1.1010                 1.0996
 Frc consts  --      6.1566                 6.1624                 6.1740
 IR Inten    --     10.6099                20.5896                26.9957

                     64                     65                     66
                      A                      A                      A
 Frequencies --   3088.8524              3093.2740              3102.1036
 Red. masses --      1.1010                 1.0894                 1.1068
 Frc consts  --      6.1889                 6.1416                 6.2752
 IR Inten    --     22.4950                69.3864                 0.4597

                     67                     68                     69
                      A                      A                      A
 Frequencies --   3107.3391              3115.1980              3116.6098
 Red. masses --      1.1041                 1.1005                 1.1004
 Frc consts  --      6.2809                 6.2921                 6.2974
 IR Inten    --     87.9504                63.6053                10.2895

 - Thermochemistry -
 -------------------
 Temperature   298.150 Kelvin.  Pressure   1.00000 Atm.
 Atom     1 has atomic number  6 and mass  12.00000

 Molecular mass:   124.12520 amu.
 Principal axes and moments of inertia in atomic units:
                           1         2         3
     Eigenvalues --   640.323511384.710081415.69264
           X            1.00000  -0.00000  -0.00039
           Y            0.00000   1.00000  -0.00000
           Z            0.00039   0.00000   1.00000
 This molecule is an asymmetric top.
 Rotational symmetry number  1.
 Warning -- assumption of classical behavior for rotation
           may cause significant error
 Rotational temperatures (Kelvin)      0.13527     0.06255     0.06118
 Rotational constants (GHZ):           2.81848     1.30334     1.27481
 Zero-point vibrational energy     602677.4 (Joules/Mol)
                                  144.04335 (Kcal/Mol)
 Warning -- explicit consideration of  13 degrees of freedom as
           vibrations may cause significant error
 Vibrational temperatures:    220.79   290.30   312.39   329.94   368.32
          (Kelvin)            377.73   482.52   529.24   578.23   634.16
                              685.74   749.44   780.05   928.73  1071.86
                             1186.43  1193.24  1246.78  1270.63  1316.68
                             1330.80  1371.01  1388.98  1401.64  1413.02
                             1483.29  1495.28  1507.10  1534.48  1555.19
                             1673.38  1682.29  1742.99  1746.85  1772.62
                             1781.83  1795.62  1830.12  1844.96  1883.05
                             1945.73  2015.21  2033.08  2047.48  2128.82
                             2137.34  2144.13  2149.06  2152.70  2158.52
                             2162.81  2174.32  2206.97  4343.53  4349.05
                             4355.71  4363.77  4390.53  4399.83  4420.33
                             4433.26  4434.61  4441.49  4444.17  4450.53
                             4463.24  4470.77  4482.08  4484.11

 Zero-point correction=                           0.229548 (Hartree/Particle)
 Thermal correction to Energy=                    0.238651
 Thermal correction to Enthalpy=                  0.239596
 Thermal correction to Gibbs Free Energy=         0.196909
 Sum of electronic and zero-point Energies=           -352.364085
 Sum of electronic and thermal Energies=              -352.354981
 Sum of electronic and thermal Enthalpies=            -352.354037
 Sum of electronic and thermal Free Energies=         -352.396724

                     E (Thermal)             CV                S
                      KCal/Mol        Cal/Mol-Kelvin    Cal/Mol-Kelvin
 Total                  149.756             37.600             89.842
 Electronic               0.000              0.000              0.000
 Translational            0.889              2.981             40.362
 Rotational               0.889              2.981             28.619
 Vibrational            147.979             31.639             20.860
 Vibration     1          0.619              1.899              2.629
 Vibration     2          0.639              1.837              2.117
 Vibration     3          0.646              1.815              1.983
 Vibration     4          0.652              1.796              1.884
 Vibration     5          0.666              1.753              1.689
 Vibration     6          0.670              1.741              1.645
 Vibration     7          0.716              1.605              1.234
 Vibration     8          0.740              1.538              1.089
 Vibration     9          0.768              1.466              0.956
 Vibration    10          0.801              1.381              0.824
 Vibration    11          0.833              1.302              0.719
 Vibration    12          0.876              1.204              0.608
 Vibration    13          0.897              1.157              0.561

 Optimization completed.
    -- Stationary point found.
 Normal termination of Gaussian 16 at Sun May 28 19:56:39 2023.
