 Gaussian 16, Revision A.03,
 Gaussian 16:  ES64L-G16RevA.03 25-Dec-2016

 -----------------------------
 # opt freq b3lyp/6-31g(2df,p)
 -----------------------------

 -------------------
 Title Card Required
 -------------------
 Symbolic Z-matrix:
 Charge =  0 Multiplicity = 1

 SCF Done:  E(RB3LYP) =  -234.579758257     A.U. after   12 cycles
 SCF Done:  E(RB3LYP) =  -234.597439235     A.U. after   10 cycles
 SCF Done:  E(RB3LYP) =  -234.599396415     A.U. after   10 cycles
 SCF Done:  E(RB3LYP) =  -234.599695307     A.U. after    9 cycles
 SCF Done:  E(RB3LYP) =  -234.599734176     A.U. after    8 cycles
 SCF Done:  E(RB3LYP) =  -234.599740306     A.U. after    7 cycles
 SCF Done:  E(RB3LYP) =  -234.599742934     A.U. after    6 cycles
 SCF Done:  E(RB3LYP) =  -234.599740443     A.U. after    5 cycles
 SCF Done:  E(RB3LYP) =  -234.599741753     A.U. after    5 cycles
 SCF Done:  E(RB3LYP) =  -234.599741222     A.U. after    5 cycles
 SCF Done:  E(RB3LYP) =  -234.599741190     A.U. after    5 cycles
 SCF Done:  E(RB3LYP) =  -234.599741050     A.U. after    5 cycles
 SCF Done:  E(RB3LYP) =  -234.599740816     A.U. after    5 cycles
 SCF Done:  E(RB3LYP) =  -234.599741058     A.U. after    5 cycles
 SCF Done:  E(RB3LYP) =  -234.599740858     A.U. after    5 cycles
 SCF Done:  E(RB3LYP) =  -234.599740965     A.U. after    5 cycles
 SCF Done:  E(RB3LYP) =  -234.599740833     A.U. after    5 cycles
 SCF Done:  E(RB3LYP) =  -234.599741500     A.U. after    5 cycles
 Optimization completed.
    -- Stationary point found.
 Normal termination of Gaussian 16 at Sat May 27 23:54:01 2023.

 ----------------------------------------------------------------------
 #N Geom=AllCheck Guess=TCheck SCRF=Check GenChk RB3LYP/6-31G(2df,p) Fr
 eq
 ----------------------------------------------------------------------

 Structure from the checkpoint file:  "CC12CCqC1rC2.chk"
 -------------------
 Title Card Required
 -------------------
 Charge =  0 Multiplicity = 1

                         Standard orientation:
 ---------------------------------------------------------------------
 Center     Atomic      Atomic             Coordinates (Angstroms)
 Number     Number       Type             X           Y           Z
 ---------------------------------------------------------------------
      1          6           0       -1.992474   -0.000007    0.000021
      2          6           0       -0.486769    0.000010    0.000106
      3          6           0        0.464349    0.574058   -1.098592
      4          6           0        1.401008   -0.000082   -0.000050
      5          6           0        0.464518    0.664589    1.046378
      6          6           0        0.464353   -1.238560    0.052253
      7          1           0       -2.387109    1.021480   -0.038816
      8          1           0       -2.387196   -0.477153    0.904014
      9          1           0       -2.386938   -0.544360   -0.865254
     10          1           0        0.463380    1.660947   -1.226950
     11          1           0        0.463123    0.058840   -2.064161
     12          1           0        2.491317   -0.000425   -0.000412
     13          1           0        0.463446    1.758422    1.082525
     14          1           0        0.463546    0.232530    2.051896
     15          1           0        0.463322   -1.817121    0.981256
     16          1           0        0.463197   -1.893205   -0.824801
 ---------------------------------------------------------------------

 SCF Done:  E(RB3LYP) =  -234.599741500     A.U. after    1 cycles

 The electronic state is 1-A.
 Alpha  occ. eigenvalues --  -10.20034 -10.19359 -10.17831 -10.17830 -10.17829
 Alpha  occ. eigenvalues --  -10.17174  -0.90425  -0.72131  -0.65824  -0.65821
 Alpha  occ. eigenvalues --   -0.58346  -0.52835  -0.45554  -0.44480  -0.44477
 Alpha  occ. eigenvalues --   -0.40458  -0.40457  -0.34458  -0.31217  -0.31214
 Alpha  occ. eigenvalues --   -0.29990  -0.29987  -0.29340
 Alpha virt. eigenvalues --    0.09835   0.11566   0.15119   0.15119   0.15809
 Alpha virt. eigenvalues --    0.15850   0.15851   0.16729   0.16729   0.18107
 Alpha virt. eigenvalues --    0.18107   0.18177   0.24560   0.24653   0.24655

 Mulliken charges:
               1
     1  C   -0.510377
     2  C    0.351957
     3  C   -0.240739
     4  C   -0.035032
     5  C   -0.240776
     6  C   -0.240784
     7  H    0.116501
     8  H    0.116503
     9  H    0.116514
    10  H    0.083227
    11  H    0.083204
    12  H    0.066881
    13  H    0.083239
    14  H    0.083222
    15  H    0.083225
    16  H    0.083235
 Sum of Mulliken charges =  -0.00000

 Dipole moment (field-independent basis, Debye):
    X=             -0.2077    Y=              0.0000    Z=             -0.0000  Tot=              0.2077
 Quadrupole moment (field-independent basis, Debye-Ang):
   XX=            -38.6123   YY=            -38.1077   ZZ=            -38.1086
   XY=             -0.0003   XZ=             -0.0003   YZ=             -0.0001

  Exact polarizability:  62.356  -0.001  60.450  -0.001  -0.001  60.447
 Approx polarizability:  84.638  -0.001  88.615  -0.001  -0.002  88.608

                      1                      2                      3
                      A                      A                      A
 Frequencies --    205.4022               298.8557               299.1836
 Red. masses --      1.0303                 2.2891                 2.2895
 Frc consts  --      0.0256                 0.1205                 0.1207
 IR Inten    --      0.0000                 0.0312                 0.0314

                      4                      5                      6
                      A                      A                      A
 Frequencies --    541.2225               541.6513               619.1457
 Red. masses --      1.7722                 1.7724                 3.2764
 Frc consts  --      0.3059                 0.3064                 0.7400
 IR Inten    --      0.2204                 0.2205                 0.0593

                      7                      8                      9
                      A                      A                      A
 Frequencies --    772.5720               772.6408               882.9544
 Red. masses --      2.7113                 2.7075                 3.6607
 Frc consts  --      0.9535                 0.9523                 1.6815
 IR Inten    --      0.0637                 0.0640                 0.1799

                     10                     11                     12
                      A                      A                      A
 Frequencies --    908.2543               908.4189               961.0848
 Red. masses --      1.9081                 1.9069                 1.2568
 Frc consts  --      0.9274                 0.9271                 0.6840
 IR Inten    --      0.0043                 0.0042                 0.0000

                     13                     14                     15
                      A                      A                      A
 Frequencies --    971.1130               995.3342              1022.7561
 Red. masses --      2.9866                 1.0086                 1.1275
 Frc consts  --      1.6595                 0.5887                 0.6949
 IR Inten    --      0.0559                 0.0000                 1.8115

                     16                     17                     18
                      A                      A                      A
 Frequencies --   1022.9418              1105.3188              1105.3695
 Red. masses --      1.1277                 1.6027                 1.6025
 Frc consts  --      0.6953                 1.1536                 1.1536
 IR Inten    --      1.8135                 0.8465                 0.8476

                     19                     20                     21
                      A                      A                      A
 Frequencies --   1146.5387              1146.7669              1196.5308
 Red. masses --      1.3589                 1.3578                 1.6260
 Frc consts  --      1.0525                 1.0521                 1.3716
 IR Inten    --      0.0984                 0.0975                 0.0484

                     22                     23                     24
                      A                      A                      A
 Frequencies --   1196.6719              1233.3371              1245.6805
 Red. masses --      1.6255                 1.8687                 1.9136
 Frc consts  --      1.3715                 1.6748                 1.7495
 IR Inten    --      0.0483                 8.0502                 0.0813

                     25                     26                     27
                      A                      A                      A
 Frequencies --   1245.7789              1327.1671              1409.8385
 Red. masses --      1.9149                 2.9979                 1.3765
 Frc consts  --      1.7510                 3.1111                 1.6120
 IR Inten    --      0.0811                31.6441                 2.8139

                     28                     29                     30
                      A                      A                      A
 Frequencies --   1490.0395              1490.0922              1497.5663
 Red. masses --      1.0494                 1.0493                 1.0953
 Frc consts  --      1.3727                 1.3728                 1.4473
 IR Inten    --      3.8316                 3.8333                 0.1660

                     31                     32                     33
                      A                      A                      A
 Frequencies --   1497.6325              1554.9892              3023.2476
 Red. masses --      1.0952                 1.1957                 1.0353
 Frc consts  --      1.4473                 1.7035                 5.5755
 IR Inten    --      0.1662                 0.6575                30.9999

                     34                     35                     36
                      A                      A                      A
 Frequencies --   3034.7943              3034.8571              3044.0869
 Red. masses --      1.0535                 1.0535                 1.0537
 Frc consts  --      5.7167                 5.7169                 5.7529
 IR Inten    --     75.5099                75.5569                 2.7277

                     37                     38                     39
                      A                      A                      A
 Frequencies --   3090.7690              3090.9504              3096.3832
 Red. masses --      1.1010                 1.1010                 1.1124
 Frc consts  --      6.1970                 6.1978                 6.2839
 IR Inten    --     14.1167                13.9389                 0.0102

                     40                     41                     42
                      A                      A                      A
 Frequencies --   3102.8523              3102.9590              3107.0996
 Red. masses --      1.1096                 1.1096                 1.0922
 Frc consts  --      6.2940                 6.2945                 6.2127
 IR Inten    --     72.0003                71.8836                68.0876

 - Thermochemistry -
 -------------------
 Temperature   298.150 Kelvin.  Pressure   1.00000 Atm.
 Atom     1 has atomic number  6 and mass  12.00000

 Molecular mass:    82.07825 amu.
 Principal axes and moments of inertia in atomic units:
                           1         2         3
     Eigenvalues --   300.90883 530.89365 530.93505
           X            1.00000  -0.00000  -0.00000
           Y            0.00000   0.99981  -0.01953
           Z            0.00000   0.01953   0.99981
 This molecule is an asymmetric top.
 Rotational symmetry number  1.
 Rotational temperatures (Kelvin)      0.28784     0.16315     0.16313
 Rotational constants (GHZ):           5.99763     3.39944     3.39918
 Zero-point vibrational energy     378862.4 (Joules/Mol)
                                   90.55029 (Kcal/Mol)
 Warning -- explicit consideration of   6 degrees of freedom as
           vibrations may cause significant error
 Vibrational temperatures:    295.53   429.99   430.46   778.70   779.32
          (Kelvin)            890.81  1111.56  1111.66  1270.37  1306.78
                             1307.01  1382.79  1397.21  1432.06  1471.52
                             1471.79  1590.31  1590.38  1649.61  1649.94
                             1721.54  1721.74  1774.50  1792.26  1792.40
                             1909.50  2028.44  2143.83  2143.91  2154.66
                             2154.76  2237.28  4349.78  4366.39  4366.48
                             4379.76  4446.93  4447.19  4455.00  4464.31
                             4464.47  4470.42

 Zero-point correction=                           0.144301 (Hartree/Particle)
 Thermal correction to Energy=                    0.149801
 Thermal correction to Enthalpy=                  0.150746
 Thermal correction to Gibbs Free Energy=         0.115863
 Sum of electronic and zero-point Energies=           -234.455440
 Sum of electronic and thermal Energies=              -234.449940
 Sum of electronic and thermal Enthalpies=            -234.448996
 Sum of electronic and thermal Free Energies=         -234.483879

                     E (Thermal)             CV                S
                      KCal/Mol        Cal/Mol-Kelvin    Cal/Mol-Kelvin
 Total                   94.002             21.863             73.417
 Electronic               0.000              0.000              0.000
 Translational            0.889              2.981             39.129
 Rotational               0.889              2.981             25.942
 Vibrational             92.224             15.901              8.345
 Vibration     1          0.640              1.832              2.084
 Vibration     2          0.692              1.676              1.423
 Vibration     3          0.692              1.675              1.421
 Vibration     4          0.896              1.159              0.563
 Vibration     5          0.897              1.158              0.562
 Vibration     6          0.979              0.991              0.418

                           ! Non-Optimized Parameters !
 Normal termination of Gaussian 16 at Sun May 28 00:13:52 2023.
