 Gaussian 16, Revision A.03,
 Gaussian 16:  ES64L-G16RevA.03 25-Dec-2016

 -----------------------------
 # opt freq b3lyp/6-31g(2df,p)
 -----------------------------

 -------------------
 Title Card Required
 -------------------
 Symbolic Z-matrix:
 Charge =  0 Multiplicity = 1

 SCF Done:  E(RB3LYP) =  -351.320964725     A.U. after   12 cycles
 SCF Done:  E(RB3LYP) =  -351.339526417     A.U. after   10 cycles
 SCF Done:  E(RB3LYP) =  -351.341772381     A.U. after   10 cycles
 SCF Done:  E(RB3LYP) =  -351.342314564     A.U. after    9 cycles
 SCF Done:  E(RB3LYP) =  -351.342516501     A.U. after    9 cycles
 SCF Done:  E(RB3LYP) =  -351.342596695     A.U. after    8 cycles
 SCF Done:  E(RB3LYP) =  -351.342652321     A.U. after    8 cycles
 SCF Done:  E(RB3LYP) =  -351.342654065     A.U. after    7 cycles
 SCF Done:  E(RB3LYP) =  -351.342654490     A.U. after    6 cycles
 SCF Done:  E(RB3LYP) =  -351.342654586     A.U. after    5 cycles
 Optimization completed.
    -- Stationary point found.
 Normal termination of Gaussian 16 at Mon May 29 01:44:56 2023.

 ----------------------------------------------------------------------
 #N Geom=AllCheck Guess=TCheck SCRF=Check GenChk RB3LYP/6-31G(2df,p) Fr
 eq
 ----------------------------------------------------------------------

 Structure from the checkpoint file:  "CC12CCC3qCrC1CC23.chk"
 -------------------
 Title Card Required
 -------------------
 Charge =  0 Multiplicity = 1

                         Standard orientation:
 ---------------------------------------------------------------------
 Center     Atomic      Atomic             Coordinates (Angstroms)
 Number     Number       Type             X           Y           Z
 ---------------------------------------------------------------------
      1          6           0        2.514572   -0.277139   -0.000087
      2          6           0        1.052180    0.118113    0.000038
      3          6           0        0.771349    1.625112    0.000060
      4          6           0       -0.771341    1.625132   -0.000063
      5          6           0       -1.052143    0.118165   -0.000004
      6          6           0       -2.514564   -0.277135   -0.000074
      7          6           0        0.000022   -0.580693   -0.939278
      8          6           0       -0.000032   -1.810685    0.000099
      9          6           0       -0.000042   -0.580614    0.939367
     10          1           0        3.022434    0.129277   -0.882703
     11          1           0        2.669418   -1.359179    0.000660
     12          1           0        3.023059    0.130547    0.881568
     13          1           0        1.200223    2.115017   -0.881246
     14          1           0        1.199998    2.114805    0.881609
     15          1           0       -1.200026    2.114891   -0.881543
     16          1           0       -1.200122    2.115022    0.881309
     17          1           0       -3.022777    0.130460   -0.881941
     18          1           0       -3.022686    0.129388    0.882331
     19          1           0       -2.669376   -1.359172   -0.000734
     20          1           0        0.000001   -0.573164   -2.033136
     21          1           0        0.893097   -2.438287    0.000138
     22          1           0       -0.893014   -2.438453    0.000113
     23          1           0       -0.000228   -0.572694    2.033220
 ---------------------------------------------------------------------

 SCF Done:  E(RB3LYP) =  -351.342654586     A.U. after    1 cycles

 The electronic state is 1-A.
 Alpha  occ. eigenvalues --  -10.18916 -10.18915 -10.18635 -10.18634 -10.17541
 Alpha  occ. eigenvalues --  -10.16886 -10.16886 -10.16864 -10.16844  -0.91507
 Alpha  occ. eigenvalues --   -0.76479  -0.75039  -0.70055  -0.62643  -0.62202
 Alpha  occ. eigenvalues --   -0.61909  -0.53901  -0.49085  -0.48003  -0.44503
 Alpha  occ. eigenvalues --   -0.44382  -0.43414  -0.41914  -0.39714  -0.39027
 Alpha  occ. eigenvalues --   -0.36216  -0.34510  -0.33209  -0.31591  -0.31268
 Alpha  occ. eigenvalues --   -0.29454  -0.29337  -0.28302  -0.27168
 Alpha virt. eigenvalues --    0.09577   0.10495   0.11064   0.12497   0.14415
 Alpha virt. eigenvalues --    0.14948   0.15127   0.15333   0.15570   0.16054
 Alpha virt. eigenvalues --    0.18186   0.18454   0.18594   0.19323   0.20164

 Mulliken charges:
               1
     1  C   -0.500932
     2  C    0.382092
     3  C   -0.288038
     4  C   -0.288053
     5  C    0.382126
     6  C   -0.500928
     7  C   -0.126695
     8  C   -0.269067
     9  C   -0.126706
    10  H    0.113955
    11  H    0.115638
    12  H    0.113946
    13  H    0.091001
    14  H    0.091001
    15  H    0.091002
    16  H    0.091000
    17  H    0.113944
    18  H    0.113948
    19  H    0.115636
    20  H    0.054249
    21  H    0.088310
    22  H    0.088321
    23  H    0.054252
 Sum of Mulliken charges =  -0.00000

 Dipole moment (field-independent basis, Debye):
    X=              0.0001    Y=              0.1187    Z=             -0.0001  Tot=              0.1187
 Quadrupole moment (field-independent basis, Debye-Ang):
   XX=            -56.6600   YY=            -57.1749   ZZ=            -55.8048
   XY=              0.0001   XZ=             -0.0002   YZ=              0.0004

  Exact polarizability:  99.696   0.000  90.914  -0.001   0.001  78.216
 Approx polarizability: 131.961  -0.000 130.582  -0.001   0.002 127.767

                      1                      2                      3
                      A                      A                      A
 Frequencies --    190.9064               194.4462               204.6438
 Red. masses --      1.5261                 1.1366                 1.4347
 Frc consts  --      0.0328                 0.0253                 0.0354
 IR Inten    --      0.1039                 0.0000                 0.0000

                      4                      5                      6
                      A                      A                      A
 Frequencies --    210.3581               298.7619               371.0456
 Red. masses --      1.4226                 2.5368                 2.2076
 Frc consts  --      0.0371                 0.1334                 0.1791
 IR Inten    --      0.0415                 0.1016                 0.4300

                      7                      8                      9
                      A                      A                      A
 Frequencies --    377.9041               379.4129               477.0078
 Red. masses --      2.0726                 2.5261                 2.3109
 Frc consts  --      0.1744                 0.2143                 0.3098
 IR Inten    --      0.0000                 0.0897                 0.7159

                     10                     11                     12
                      A                      A                      A
 Frequencies --    568.4018               651.3643               679.3535
 Red. masses --      4.1703                 2.9185                 4.0582
 Frc consts  --      0.7938                 0.7295                 1.1035
 IR Inten    --      0.2504                 3.3641                 0.2110

                     13                     14                     15
                      A                      A                      A
 Frequencies --    702.2573               712.6928               815.2855
 Red. masses --      2.9531                 3.3317                 1.5806
 Frc consts  --      0.8581                 0.9971                 0.6190
 IR Inten    --      0.0000                 0.0233                 0.1464

                     16                     17                     18
                      A                      A                      A
 Frequencies --    828.5981               882.7514               905.1824
 Red. masses --      2.0699                 1.7055                 2.0797
 Frc consts  --      0.8373                 0.7830                 1.0040
 IR Inten    --      0.6410                 0.4446                 0.0920

                     19                     20                     21
                      A                      A                      A
 Frequencies --    923.2842               928.7785               999.9060
 Red. masses --      2.0210                 1.6443                 1.3510
 Frc consts  --      1.0150                 0.8357                 0.7958
 IR Inten    --      0.0967                 0.0420                 0.0000

                     22                     23                     24
                      A                      A                      A
 Frequencies --   1000.8728              1007.8873              1037.3678
 Red. masses --      2.4522                 1.0611                 1.2930
 Frc consts  --      1.4473                 0.6351                 0.8198
 IR Inten    --      0.5770                 0.0000                 0.3726

                     25                     26                     27
                      A                      A                      A
 Frequencies --   1060.2317              1070.7757              1108.2066
 Red. masses --      3.1452                 1.2013                 2.0210
 Frc consts  --      2.0831                 0.8115                 1.4624
 IR Inten    --      0.5216                 0.0695                 5.1407

                     28                     29                     30
                      A                      A                      A
 Frequencies --   1113.3698              1122.3278              1162.1417
 Red. masses --      1.6209                 1.5757                 1.7019
 Frc consts  --      1.1838                 1.1694                 1.3542
 IR Inten    --      3.6919                 0.0000                 0.0000

                     31                     32                     33
                      A                      A                      A
 Frequencies --   1191.6384              1202.5488              1204.8161
 Red. masses --      2.3069                 2.1515                 1.4081
 Frc consts  --      1.9301                 1.8332                 1.2043
 IR Inten    --      3.0480                 0.2012                 1.2781

                     34                     35                     36
                      A                      A                      A
 Frequencies --   1249.7588              1252.7854              1253.5981
 Red. masses --      1.9464                 1.1421                 1.8242
 Frc consts  --      1.7911                 1.0562                 1.6890
 IR Inten    --      3.6731                 0.0001                 4.7400

                     37                     38                     39
                      A                      A                      A
 Frequencies --   1267.3058              1277.6181              1338.1794
 Red. masses --      2.7841                 2.6736                 1.8620
 Frc consts  --      2.6345                 2.5713                 1.9646
 IR Inten    --      6.6061                10.0513                 6.9482

                     40                     41                     42
                      A                      A                      A
 Frequencies --   1352.9468              1415.4607              1416.9888
 Red. masses --      2.3951                 1.2626                 1.3758
 Frc consts  --      2.5830                 1.4905                 1.6275
 IR Inten    --      0.0202                 4.5853                 1.3829

                     43                     44                     45
                      A                      A                      A
 Frequencies --   1485.1541              1491.5135              1491.9302
 Red. masses --      1.0785                 1.0742                 1.0457
 Frc consts  --      1.4015                 1.4080                 1.3714
 IR Inten    --      0.1148                 1.9683                 0.0002

                     46                     47                     48
                      A                      A                      A
 Frequencies --   1494.0469              1498.2155              1509.4850
 Red. masses --      1.0485                 1.0553                 1.1105
 Frc consts  --      1.3789                 1.3957                 1.4908
 IR Inten    --      9.3104                 1.1041                 1.2537

                     49                     50                     51
                      A                      A                      A
 Frequencies --   1538.3811              3024.6471              3025.5544
 Red. masses --      1.1020                 1.0424                 1.0386
 Frc consts  --      1.5366                 5.6185                 5.6018
 IR Inten    --      2.6086                16.6769                 0.3357

                     52                     53                     54
                      A                      A                      A
 Frequencies --   3029.5335              3039.7653              3059.1853
 Red. masses --      1.0532                 1.0602                 1.1053
 Frc consts  --      5.6954                 5.7718                 6.0944
 IR Inten    --     95.6827                56.0364                 0.0002

                     55                     56                     57
                      A                      A                      A
 Frequencies --   3061.9680              3062.9811              3077.9415
 Red. masses --      1.0707                 1.0889                 1.1028
 Frc consts  --      5.9143                 6.0193                 6.1554
 IR Inten    --     17.4525               120.0779                 0.0013

                     58                     59                     60
                      A                      A                      A
 Frequencies --   3079.8518              3080.0612              3081.6046
 Red. masses --      1.1001                 1.0756                 1.1021
 Frc consts  --      6.1482                 6.0119                 6.1662
 IR Inten    --      0.0010                17.0685                98.9530

                     61                     62                     63
                      A                      A                      A
 Frequencies --   3105.9826              3109.5481              3122.5065
 Red. masses --      1.1000                 1.0960                 1.1063
 Frc consts  --      6.2525                 6.2442                 6.3554
 IR Inten    --      5.8864                62.4806                38.8664

 - Thermochemistry -
 -------------------
 Temperature   298.150 Kelvin.  Pressure   1.00000 Atm.
 Atom     1 has atomic number  6 and mass  12.00000

 Molecular mass:   122.10955 amu.
 Principal axes and moments of inertia in atomic units:
                           1         2         3
     Eigenvalues --   654.375161024.856471423.70667
           X            1.00000  -0.00000  -0.00000
           Y            0.00000   1.00000   0.00001
           Z            0.00000  -0.00001   1.00000
 This molecule is an asymmetric top.
 Rotational symmetry number  1.
 Warning -- assumption of classical behavior for rotation
           may cause significant error
 Rotational temperatures (Kelvin)      0.13236     0.08451     0.06084
 Rotational constants (GHZ):           2.75796     1.76097     1.26764
 Zero-point vibrational energy     543577.3 (Joules/Mol)
                                  129.91809 (Kcal/Mol)
 Warning -- explicit consideration of  10 degrees of freedom as
           vibrations may cause significant error
 Vibrational temperatures:    274.67   279.76   294.44   302.66   429.85
          (Kelvin)            533.85   543.72   545.89   686.31   817.80
                              937.17   977.44  1010.39  1025.41  1173.01
                             1192.17  1270.08  1302.36  1328.40  1336.31
                             1438.64  1440.03  1450.13  1492.54  1525.44
                             1540.61  1594.46  1601.89  1614.78  1672.06
                             1714.50  1730.20  1733.46  1798.12  1802.48
                             1803.65  1823.37  1838.21  1925.34  1946.59
                             2036.53  2038.73  2136.81  2145.96  2146.55
                             2149.60  2155.60  2171.81  2213.39  4351.79
                             4353.10  4358.82  4373.54  4401.49  4405.49
                             4406.95  4428.47  4431.22  4431.52  4433.74
                             4468.82  4473.95  4492.59

 Zero-point correction=                           0.207038 (Hartree/Particle)
 Thermal correction to Energy=                    0.215254
 Thermal correction to Enthalpy=                  0.216198
 Thermal correction to Gibbs Free Energy=         0.175148
 Sum of electronic and zero-point Energies=           -351.135617
 Sum of electronic and thermal Energies=              -351.127401
 Sum of electronic and thermal Enthalpies=            -351.126457
 Sum of electronic and thermal Free Energies=         -351.167507

                     E (Thermal)             CV                S
                      KCal/Mol        Cal/Mol-Kelvin    Cal/Mol-Kelvin
 Total                  135.074             34.118             86.397
 Electronic               0.000              0.000              0.000
 Translational            0.889              2.981             40.313
 Rotational               0.889              2.981             28.348
 Vibrational            133.296             28.156             17.736
 Vibration     1          0.634              1.852              2.219
 Vibration     2          0.635              1.848              2.185
 Vibration     3          0.640              1.833              2.091
 Vibration     4          0.643              1.825              2.041
 Vibration     5          0.692              1.676              1.424
 Vibration     6          0.743              1.532              1.075
 Vibration     7          0.748              1.517              1.048
 Vibration     8          0.749              1.514              1.042
 Vibration     9          0.834              1.301              0.718
 Vibration    10          0.924              1.100              0.507

 Optimization completed.
    -- Stationary point found.
 Normal termination of Gaussian 16 at Mon May 29 02:30:32 2023.
