 Gaussian 16, Revision A.03,
 Gaussian 16:  ES64L-G16RevA.03 25-Dec-2016

 -----------------------------
 # opt freq b3lyp/6-31g(2df,p)
 -----------------------------

 -------------------
 Title Card Required
 -------------------
 Symbolic Z-matrix:
 Charge =  0 Multiplicity = 1

 SCF Done:  E(RB3LYP) =  -312.003722383     A.U. after   12 cycles
 SCF Done:  E(RB3LYP) =  -312.019039391     A.U. after   10 cycles
 SCF Done:  E(RB3LYP) =  -312.020556465     A.U. after   10 cycles
 SCF Done:  E(RB3LYP) =  -312.020754879     A.U. after    9 cycles
 SCF Done:  E(RB3LYP) =  -312.020797538     A.U. after    8 cycles
 SCF Done:  E(RB3LYP) =  -312.020806467     A.U. after    8 cycles
 SCF Done:  E(RB3LYP) =  -312.020807289     A.U. after    6 cycles
 Optimization completed.
    -- Stationary point found.
 Normal termination of Gaussian 16 at Sun May 28 03:15:26 2023.

 ----------------------------------------------------------------------
 #N Geom=AllCheck Guess=TCheck SCRF=Check GenChk RB3LYP/6-31G(2df,p) Fr
 eq
 ----------------------------------------------------------------------

 Structure from the checkpoint file:  "CC1CC2C3CC2C13.chk"
 -------------------
 Title Card Required
 -------------------
 Charge =  0 Multiplicity = 1

                         Standard orientation:
 ---------------------------------------------------------------------
 Center     Atomic      Atomic             Coordinates (Angstroms)
 Number     Number       Type             X           Y           Z
 ---------------------------------------------------------------------
      1          6           0       -2.407015   -0.676148   -0.261152
      2          6           0       -1.262019   -0.017862    0.510892
      3          6           0       -0.787652    1.349287   -0.074383
      4          6           0        0.685716    1.036612   -0.328140
      5          6           0        1.234028    0.163862    0.848998
      6          6           0        2.162241   -0.570537   -0.145676
      7          6           0        0.813013   -0.418671   -0.886049
      8          6           0        0.062738   -0.784778    0.438936
      9          1           0       -3.314418   -0.063927   -0.224226
     10          1           0       -2.653030   -1.660666    0.152103
     11          1           0       -2.143442   -0.815003   -1.315932
     12          1           0       -1.567231    0.099603    1.558211
     13          1           0       -0.922608    2.180002    0.626133
     14          1           0       -1.319784    1.609353   -0.996585
     15          1           0        1.325926    1.816633   -0.746642
     16          1           0        1.468635    0.507293    1.859257
     17          1           0        2.466462   -1.586867    0.121994
     18          1           0        3.008038   -0.001083   -0.542849
     19          1           0        0.564994   -0.753917   -1.895389
     20          1           0        0.080167   -1.822010    0.783364
 ---------------------------------------------------------------------

 SCF Done:  E(RB3LYP) =  -312.020807289     A.U. after    1 cycles

 The electronic state is 1-A.
 Alpha  occ. eigenvalues --  -10.18955 -10.18926 -10.18445 -10.18252 -10.17849
 Alpha  occ. eigenvalues --  -10.17799 -10.17046 -10.16862  -0.91678  -0.78061
 Alpha  occ. eigenvalues --   -0.70743  -0.66037  -0.62168  -0.61451  -0.54818
 Alpha  occ. eigenvalues --   -0.51278  -0.49026  -0.46992  -0.43772  -0.41268
 Alpha  occ. eigenvalues --   -0.39424  -0.38778  -0.35496  -0.32682  -0.31787
 Alpha  occ. eigenvalues --   -0.31587  -0.30128  -0.29361  -0.29006  -0.28526
 Alpha virt. eigenvalues --    0.09610   0.11837   0.12491   0.13691   0.13949
 Alpha virt. eigenvalues --    0.14738   0.15612   0.16251   0.16319   0.17245
 Alpha virt. eigenvalues --    0.17458   0.18988   0.19060   0.20381   0.20689

 Mulliken charges:
               1
     1  C   -0.403764
     2  C    0.014844
     3  C   -0.262733
     4  C    0.011599
     5  C   -0.062719
     6  C   -0.239732
     7  C   -0.052585
     8  C    0.011030
     9  H    0.111160
    10  H    0.109203
    11  H    0.112821
    12  H    0.064168
    13  H    0.092940
    14  H    0.091935
    15  H    0.055894
    16  H    0.060458
    17  H    0.085194
    18  H    0.085179
    19  H    0.061805
    20  H    0.053304
 Sum of Mulliken charges =  -0.00000

 Dipole moment (field-independent basis, Debye):
    X=             -0.1366    Y=              0.0580    Z=              0.0761  Tot=              0.1668
 Quadrupole moment (field-independent basis, Debye-Ang):
   XX=            -50.6121   YY=            -49.6626   ZZ=            -49.5341
   XY=              0.1336   XZ=             -0.1917   YZ=             -0.1126

  Exact polarizability:  88.853  -0.942  75.961  -0.511  -0.403  70.312
 Approx polarizability: 115.707  -0.611 113.653  -0.598  -0.414 112.073

                      1                      2                      3
                      A                      A                      A
 Frequencies --    138.1565               232.2187               259.7071
 Red. masses --      2.5537                 1.0615                 2.2870
 Frc consts  --      0.0287                 0.0337                 0.0909
 IR Inten    --      0.0038                 0.0082                 0.1099

                      4                      5                      6
                      A                      A                      A
 Frequencies --    359.5206               437.4278               458.5499
 Red. masses --      1.9486                 2.0296                 2.9674
 Frc consts  --      0.1484                 0.2288                 0.3676
 IR Inten    --      0.3146                 0.1694                 0.4891

                      7                      8                      9
                      A                      A                      A
 Frequencies --    649.3565               691.8037               758.4276
 Red. masses --      3.5768                 3.6537                 2.8560
 Frc consts  --      0.8886                 1.0303                 0.9679
 IR Inten    --      0.1623                 0.8581                 0.0164

                     10                     11                     12
                      A                      A                      A
 Frequencies --    811.9120               841.6547               871.4795
 Red. masses --      2.3855                 2.7473                 2.4374
 Frc consts  --      0.9265                 1.1466                 1.0906
 IR Inten    --      0.2187                 0.5105                 0.2663

                     13                     14                     15
                      A                      A                      A
 Frequencies --    878.6328               914.3420               930.6073
 Red. masses --      2.0636                 2.2931                 1.4596
 Frc consts  --      0.9386                 1.1295                 0.7447
 IR Inten    --      1.5731                 0.1728                 0.3783

                     16                     17                     18
                      A                      A                      A
 Frequencies --    943.7171               963.4209               999.0046
 Red. masses --      1.6051                 3.2018                 1.1582
 Frc consts  --      0.8423                 1.7510                 0.6810
 IR Inten    --      0.5482                 0.5797                 1.1339

                     19                     20                     21
                      A                      A                      A
 Frequencies --   1003.4977              1031.3226              1056.3713
 Red. masses --      1.4802                 1.1274                 1.5205
 Frc consts  --      0.8782                 0.7065                 0.9997
 IR Inten    --      1.7485                 0.3659                 0.5464

                     22                     23                     24
                      A                      A                      A
 Frequencies --   1064.7279              1088.2212              1110.2721
 Red. masses --      1.4984                 1.3167                 3.4460
 Frc consts  --      1.0008                 0.9187                 2.5028
 IR Inten    --      0.6979                 2.3993                 0.3297

                     25                     26                     27
                      A                      A                      A
 Frequencies --   1131.9031              1135.2728              1171.2883
 Red. masses --      1.7839                 1.6281                 1.6529
 Frc consts  --      1.3466                 1.2363                 1.3360
 IR Inten    --      0.0413                 0.5314                 0.9764

                     28                     29                     30
                      A                      A                      A
 Frequencies --   1195.9891              1217.5353              1235.9276
 Red. masses --      1.4813                 1.4359                 1.6958
 Frc consts  --      1.2484                 1.2541                 1.5262
 IR Inten    --      0.0384                 1.7099                 2.3945

                     31                     32                     33
                      A                      A                      A
 Frequencies --   1249.7333              1260.1221              1272.2747
 Red. masses --      1.5553                 1.5692                 1.7632
 Frc consts  --      1.4312                 1.4681                 1.6815
 IR Inten    --      2.5079                 9.0068                 1.4286

                     34                     35                     36
                      A                      A                      A
 Frequencies --   1288.6010              1315.4314              1355.2209
 Red. masses --      1.7721                 1.5214                 1.4672
 Frc consts  --      1.7337                 1.5511                 1.5877
 IR Inten    --      0.4739                 1.1932                11.4653

                     37                     38                     39
                      A                      A                      A
 Frequencies --   1382.6056              1410.4889              1494.7021
 Red. masses --      1.6738                 1.2405                 1.0770
 Frc consts  --      1.8852                 1.4541                 1.4177
 IR Inten    --      2.3195                 2.7092                 2.1741

                     40                     41                     42
                      A                      A                      A
 Frequencies --   1498.7517              1500.1957              1518.2519
 Red. masses --      1.0462                 1.0687                 1.1321
 Frc consts  --      1.3846                 1.4171                 1.5375
 IR Inten    --      3.9946                 0.6252                 0.0209

                     43                     44                     45
                      A                      A                      A
 Frequencies --   3018.8402              3023.7331              3035.9352
 Red. masses --      1.0829                 1.0357                 1.0604
 Frc consts  --      5.8148                 5.5793                 5.7587
 IR Inten    --     21.0290                24.8353                42.5608

                     46                     47                     48
                      A                      A                      A
 Frequencies --   3040.0851              3075.3403              3076.5788
 Red. masses --      1.0539                 1.1043                 1.0859
 Frc consts  --      5.7389                 6.1535                 6.0561
 IR Inten    --     65.2555                19.4657                15.5168

                     49                     50                     51
                      A                      A                      A
 Frequencies --   3080.0828              3084.2335              3091.8784
 Red. masses --      1.0894                 1.0875                 1.1006
 Frc consts  --      6.0893                 6.0952                 6.1991
 IR Inten    --    100.4722                66.6936                52.1762

                     52                     53                     54
                      A                      A                      A
 Frequencies --   3093.6850              3097.4143              3099.2480
 Red. masses --      1.1009                 1.0949                 1.1096
 Frc consts  --      6.2081                 6.1889                 6.2794
 IR Inten    --     44.8374                11.0489                58.6224

 - Thermochemistry -
 -------------------
 Temperature   298.150 Kelvin.  Pressure   1.00000 Atm.
 Atom     1 has atomic number  6 and mass  12.00000

 Molecular mass:   108.09390 amu.
 Principal axes and moments of inertia in atomic units:
                           1         2         3
     Eigenvalues --   410.85322 969.940431093.69985
           X            0.99998   0.00474   0.00455
           Y           -0.00476   0.99998   0.00436
           Z           -0.00453  -0.00438   0.99998
 This molecule is an asymmetric top.
 Rotational symmetry number  1.
 Rotational temperatures (Kelvin)      0.21081     0.08930     0.07919
 Rotational constants (GHZ):           4.39267     1.86067     1.65012
 Zero-point vibrational energy     472200.2 (Joules/Mol)
                                  112.85855 (Kcal/Mol)
 Warning -- explicit consideration of   6 degrees of freedom as
           vibrations may cause significant error
 Vibrational temperatures:    198.78   334.11   373.66   517.27   629.36
          (Kelvin)            659.75   934.28   995.35  1091.21  1168.16
                             1210.95  1253.86  1264.16  1315.53  1338.94
                             1357.80  1386.15  1437.34  1443.81  1483.84
                             1519.88  1531.91  1565.71  1597.43  1628.56
                             1633.40  1685.22  1720.76  1751.76  1778.22
                             1798.09  1813.03  1830.52  1854.01  1892.61
                             1949.86  1989.26  2029.38  2150.54  2156.37
                             2158.45  2184.43  4343.44  4350.48  4368.03
                             4374.00  4424.73  4426.51  4431.55  4437.52
                             4448.52  4451.12  4456.49  4459.13

 Zero-point correction=                           0.179852 (Hartree/Particle)
 Thermal correction to Energy=                    0.186435
 Thermal correction to Enthalpy=                  0.187379
 Thermal correction to Gibbs Free Energy=         0.149480
 Sum of electronic and zero-point Energies=           -311.840956
 Sum of electronic and thermal Energies=              -311.834373
 Sum of electronic and thermal Enthalpies=            -311.833428
 Sum of electronic and thermal Free Energies=         -311.871327

                     E (Thermal)             CV                S
                      KCal/Mol        Cal/Mol-Kelvin    Cal/Mol-Kelvin
 Total                  116.990             27.323             79.765
 Electronic               0.000              0.000              0.000
 Translational            0.889              2.981             39.950
 Rotational               0.889              2.981             27.568
 Vibrational            115.212             21.361             12.246
 Vibration     1          0.614              1.915              2.829
 Vibration     2          0.653              1.792              1.862
 Vibration     3          0.668              1.746              1.664
 Vibration     4          0.734              1.556              1.124
 Vibration     5          0.798              1.389              0.835
 Vibration     6          0.817              1.342              0.770

                           ! Non-Optimized Parameters !
 Normal termination of Gaussian 16 at Sun May 28 03:50:24 2023.
