 Gaussian 16, Revision A.03,
 Gaussian 16:  ES64L-G16RevA.03 25-Dec-2016

 -----------------------------
 # opt freq b3lyp/6-31g(2df,p)
 -----------------------------

 -------------------
 Title Card Required
 -------------------
 Symbolic Z-matrix:
 Charge =  0 Multiplicity = 1

 SCF Done:  E(RB3LYP) =  -311.619898068     A.U. after   15 cycles
 SCF Done:  E(RB3LYP) =  -311.693137405     A.U. after   13 cycles
 SCF Done:  E(RB3LYP) =  -311.771313185     A.U. after   13 cycles
 SCF Done:  E(RB3LYP) =  -311.859571454     A.U. after   12 cycles
 SCF Done:  E(RB3LYP) =  -311.861709200     A.U. after    8 cycles
 SCF Done:  E(RB3LYP) =  -311.896764982     A.U. after   12 cycles
 SCF Done:  E(RB3LYP) =  -311.914654662     A.U. after   11 cycles
 SCF Done:  E(RB3LYP) =  -311.930606932     A.U. after   11 cycles
 SCF Done:  E(RB3LYP) =  -311.945841760     A.U. after   11 cycles
 SCF Done:  E(RB3LYP) =  -311.956628107     A.U. after   11 cycles
 SCF Done:  E(RB3LYP) =  -311.965375551     A.U. after   11 cycles
 SCF Done:  E(RB3LYP) =  -311.972281419     A.U. after   10 cycles
 SCF Done:  E(RB3LYP) =  -311.978181726     A.U. after   10 cycles
 SCF Done:  E(RB3LYP) =  -311.981361959     A.U. after   10 cycles
 SCF Done:  E(RB3LYP) =  -311.982391302     A.U. after    9 cycles
 SCF Done:  E(RB3LYP) =  -311.982614146     A.U. after    9 cycles
 SCF Done:  E(RB3LYP) =  -311.982631684     A.U. after    8 cycles
 SCF Done:  E(RB3LYP) =  -311.982636974     A.U. after    7 cycles
 SCF Done:  E(RB3LYP) =  -311.982637397     A.U. after    6 cycles
 Optimization completed.
    -- Stationary point found.
 Normal termination of Gaussian 16 at Sun May 28 16:00:06 2023.

 ----------------------------------------------------------------------
 #N Geom=AllCheck Guess=TCheck SCRF=Check GenChk RB3LYP/6-31G(2df,p) Fr
 eq
 ----------------------------------------------------------------------

 Structure from the checkpoint file:  "CC1C2C3CC2C13C.chk"
 -------------------
 Title Card Required
 -------------------
 Charge =  0 Multiplicity = 1

                         Standard orientation:
 ---------------------------------------------------------------------
 Center     Atomic      Atomic             Coordinates (Angstroms)
 Number     Number       Type             X           Y           Z
 ---------------------------------------------------------------------
      1          6           0       -2.381695   -0.319589   -0.325559
      2          6           0       -1.128618   -0.282190    0.537265
      3          6           0        0.017660   -1.278862    0.266114
      4          6           0        0.581253   -0.450304   -0.939869
      5          6           0        2.008856   -0.443890   -0.359669
      6          6           0        1.092651   -0.315661    0.871708
      7          6           0        0.067522    0.609176    0.113655
      8          6           0        0.119466    2.108148   -0.008881
      9          1           0       -3.019864   -1.169004   -0.057181
     10          1           0       -2.138183   -0.411275   -1.389419
     11          1           0       -2.978832    0.590536   -0.197980
     12          1           0       -1.392272   -0.187566    1.599988
     13          1           0        0.020093   -2.367767    0.347160
     14          1           0        0.272465   -0.528457   -1.983434
     15          1           0        2.642491    0.415448   -0.602912
     16          1           0        2.579539   -1.373853   -0.452135
     17          1           0        1.356615   -0.238557    1.928725
     18          1           0       -0.611487    2.471416   -0.740208
     19          1           0        1.109845    2.448461   -0.331479
     20          1           0       -0.102976    2.589648    0.950299
 ---------------------------------------------------------------------

 SCF Done:  E(RB3LYP) =  -311.982637397     A.U. after    1 cycles

 The electronic state is 1-A.
 Alpha  occ. eigenvalues --  -10.19440 -10.18869 -10.18849 -10.18772 -10.17925
 Alpha  occ. eigenvalues --  -10.17547 -10.17297 -10.16779  -0.93045  -0.75867
 Alpha  occ. eigenvalues --   -0.72390  -0.68023  -0.62360  -0.59007  -0.57180
 Alpha  occ. eigenvalues --   -0.49247  -0.46972  -0.45370  -0.44134  -0.41905
 Alpha  occ. eigenvalues --   -0.40042  -0.39220  -0.38648  -0.36755  -0.31261
 Alpha  occ. eigenvalues --   -0.29623  -0.28929  -0.28436  -0.27830  -0.27670
 Alpha virt. eigenvalues --    0.09577   0.11041   0.12517   0.12628   0.13440
 Alpha virt. eigenvalues --    0.14217   0.15063   0.15204   0.15880   0.17917
 Alpha virt. eigenvalues --    0.17962   0.18631   0.19392   0.20376   0.21246

 Mulliken charges:
               1
     1  C   -0.423883
     2  C   -0.041616
     3  C   -0.046724
     4  C   -0.082876
     5  C   -0.277293
     6  C   -0.077710
     7  C    0.364763
     8  C   -0.526105
     9  H    0.113068
    10  H    0.111966
    11  H    0.112345
    12  H    0.053628
    13  H    0.061285
    14  H    0.065135
    15  H    0.088373
    16  H    0.088038
    17  H    0.061848
    18  H    0.118943
    19  H    0.119458
    20  H    0.117358
 Sum of Mulliken charges =  -0.00000

 Dipole moment (field-independent basis, Debye):
    X=             -0.1207    Y=              0.2038    Z=              0.0175  Tot=              0.2375
 Quadrupole moment (field-independent basis, Debye-Ang):
   XX=            -50.5492   YY=            -49.5017   ZZ=            -49.6134
   XY=              0.0868   XZ=             -0.0044   YZ=              0.0174

  Exact polarizability:  87.711  -0.903  79.149  -0.947   0.069  71.169
 Approx polarizability: 117.713  -0.846 114.504  -1.118   0.225 112.983

                      1                      2                      3
                      A                      A                      A
 Frequencies --    196.2631               202.7729               208.8184
 Red. masses --      1.9660                 1.3841                 1.0788
 Frc consts  --      0.0446                 0.0335                 0.0277
 IR Inten    --      0.0907                 0.0286                 0.0130

                      4                      5                      6
                      A                      A                      A
 Frequencies --    225.1868               274.6951               317.4792
 Red. masses --      1.7734                 2.3358                 2.2818
 Frc consts  --      0.0530                 0.1038                 0.1355
 IR Inten    --      0.0281                 0.1316                 0.3114

                      7                      8                      9
                      A                      A                      A
 Frequencies --    466.4586               523.0502               624.9940
 Red. masses --      1.9897                 3.0886                 3.1571
 Frc consts  --      0.2551                 0.4979                 0.7266
 IR Inten    --      0.3683                 1.2430                 0.1391

                     10                     11                     12
                      A                      A                      A
 Frequencies --    720.1960               727.6365               830.9204
 Red. masses --      3.2542                 2.9933                 1.9852
 Frc consts  --      0.9945                 0.9338                 0.8076
 IR Inten    --      0.1698                 0.7334                 0.5818

                     13                     14                     15
                      A                      A                      A
 Frequencies --    845.9510               859.3195               877.2314
 Red. masses --      1.9940                 1.9598                 2.0092
 Frc consts  --      0.8408                 0.8526                 0.9110
 IR Inten    --      0.0492                 0.0069                 1.3427

                     16                     17                     18
                      A                      A                      A
 Frequencies --    907.7700               915.2194               979.7838
 Red. masses --      2.6658                 2.0658                 1.1035
 Frc consts  --      1.2943                 1.0195                 0.6242
 IR Inten    --      0.5221                 0.4801                 1.7048

                     19                     20                     21
                      A                      A                      A
 Frequencies --   1017.3938              1023.7025              1035.8972
 Red. masses --      1.3361                 1.1456                 1.6614
 Frc consts  --      0.8148                 0.7073                 1.0504
 IR Inten    --      0.3856                 2.0052                 2.1584

                     22                     23                     24
                      A                      A                      A
 Frequencies --   1068.6300              1099.7886              1102.3035
 Red. masses --      2.1888                 1.4665                 2.0915
 Frc consts  --      1.4727                 1.0451                 1.4973
 IR Inten    --      2.0053                 0.9623                 1.0077

                     25                     26                     27
                      A                      A                      A
 Frequencies --   1136.4098              1153.6046              1161.2884
 Red. masses --      1.8727                 1.4752                 2.0494
 Frc consts  --      1.4249                 1.1567                 1.6284
 IR Inten    --      1.3324                 0.3330                 1.1150

                     28                     29                     30
                      A                      A                      A
 Frequencies --   1168.8284              1186.2691              1222.3195
 Red. masses --      1.8792                 1.8235                 1.9152
 Frc consts  --      1.5126                 1.5119                 1.6859
 IR Inten    --      2.3475                 3.8742                 0.1364

                     31                     32                     33
                      A                      A                      A
 Frequencies --   1239.2485              1261.3392              1290.1616
 Red. masses --      1.6203                 1.8723                 2.1341
 Frc consts  --      1.4661                 1.7551                 2.0929
 IR Inten    --      7.5338                 8.1008                 6.7198

                     34                     35                     36
                      A                      A                      A
 Frequencies --   1332.9123              1402.6909              1406.5091
 Red. masses --      2.2851                 1.3258                 1.3230
 Frc consts  --      2.3920                 1.5369                 1.5420
 IR Inten    --      8.7453                 3.2797                 3.4357

                     37                     38                     39
                      A                      A                      A
 Frequencies --   1417.6389              1486.3429              1491.3935
 Red. masses --      1.7081                 1.0482                 1.0535
 Frc consts  --      2.0226                 1.3644                 1.3806
 IR Inten    --      9.3013                 5.7610                 3.2075

                     40                     41                     42
                      A                      A                      A
 Frequencies --   1495.4689              1500.2305              1510.7755
 Red. masses --      1.0495                 1.0573                 1.1236
 Frc consts  --      1.3829                 1.4020                 1.5110
 IR Inten    --      3.5311                 2.3976                 0.2096

                     43                     44                     45
                      A                      A                      A
 Frequencies --   3005.5227              3021.3647              3025.5151
 Red. masses --      1.0826                 1.0354                 1.0360
 Frc consts  --      5.7619                 5.5686                 5.5873
 IR Inten    --     45.4904                29.6782                34.1716

                     46                     47                     48
                      A                      A                      A
 Frequencies --   3033.6273              3083.5158              3085.1740
 Red. masses --      1.0539                 1.0872                 1.1006
 Frc consts  --      5.7147                 6.0906                 6.1725
 IR Inten    --     56.5455                41.6970                21.2790

                     49                     50                     51
                      A                      A                      A
 Frequencies --   3086.1112              3086.9572              3088.5842
 Red. masses --      1.1018                 1.1055                 1.0909
 Frc consts  --      6.1827                 6.2067                 6.1313
 IR Inten    --     12.9399                55.3439                71.2544

                     52                     53                     54
                      A                      A                      A
 Frequencies --   3090.4277              3096.6312              3102.5053
 Red. masses --      1.1022                 1.0988                 1.0950
 Frc consts  --      6.2023                 6.2078                 6.2102
 IR Inten    --     21.4120                56.4091                38.8038

 - Thermochemistry -
 -------------------
 Temperature   298.150 Kelvin.  Pressure   1.00000 Atm.
 Atom     1 has atomic number  6 and mass  12.00000

 Molecular mass:   108.09390 amu.
 Principal axes and moments of inertia in atomic units:
                           1         2         3
     Eigenvalues --   557.21448 835.289681095.75610
           X            0.99993   0.01072   0.00551
           Y           -0.01074   0.99994   0.00222
           Z           -0.00548  -0.00228   0.99998
 This molecule is an asymmetric top.
 Rotational symmetry number  1.
 Warning -- assumption of classical behavior for rotation
           may cause significant error
 Rotational temperatures (Kelvin)      0.15544     0.10369     0.07904
 Rotational constants (GHZ):           3.23886     2.16062     1.64703
 Zero-point vibrational energy     464873.8 (Joules/Mol)
                                  111.10750 (Kcal/Mol)
 Warning -- explicit consideration of   8 degrees of freedom as
           vibrations may cause significant error
 Vibrational temperatures:    282.38   291.74   300.44   323.99   395.22
          (Kelvin)            456.78   671.13   752.55   899.23  1036.20
                             1046.91  1195.51  1217.13  1236.37  1262.14
                             1306.08  1316.80  1409.69  1463.80  1472.88
                             1490.42  1537.52  1582.35  1585.97  1635.04
                             1659.78  1670.84  1681.68  1706.78  1758.65
                             1783.00  1814.79  1856.25  1917.76  2018.16
                             2023.65  2039.67  2138.52  2145.78  2151.65
                             2158.50  2173.67  4324.28  4347.07  4353.04
                             4364.71  4436.49  4438.88  4440.23  4441.44
                             4443.78  4446.44  4455.36  4463.81

 Zero-point correction=                           0.177061 (Hartree/Particle)
 Thermal correction to Energy=                    0.184536
 Thermal correction to Enthalpy=                  0.185481
 Thermal correction to Gibbs Free Energy=         0.145983
 Sum of electronic and zero-point Energies=           -311.805576
 Sum of electronic and thermal Energies=              -311.798101
 Sum of electronic and thermal Enthalpies=            -311.797157
 Sum of electronic and thermal Free Energies=         -311.836654

                     E (Thermal)             CV                S
                      KCal/Mol        Cal/Mol-Kelvin    Cal/Mol-Kelvin
 Total                  115.798             29.931             83.130
 Electronic               0.000              0.000              0.000
 Translational            0.889              2.981             39.950
 Rotational               0.889              2.981             27.725
 Vibrational            114.021             23.969             15.455
 Vibration     1          0.636              1.845              2.168
 Vibration     2          0.639              1.836              2.108
 Vibration     3          0.642              1.827              2.054
 Vibration     4          0.650              1.803              1.917
 Vibration     5          0.677              1.720              1.566
 Vibration     6          0.704              1.640              1.323
 Vibration     7          0.824              1.324              0.748
 Vibration     8          0.878              1.199              0.603

 Optimization completed.
    -- Stationary point found.
 Normal termination of Gaussian 16 at Sun May 28 16:27:20 2023.
