 Gaussian 16, Revision A.03,
 Gaussian 16:  ES64L-G16RevA.03 25-Dec-2016

 -----------------------------
 # opt freq b3lyp/6-31g(2df,p)
 -----------------------------

 -------------------
 Title Card Required
 -------------------
 Symbolic Z-matrix:
 Charge =  0 Multiplicity = 1

 SCF Done:  E(RB3LYP) =  -558.390577702     A.U. after   13 cycles
 SCF Done:  E(RB3LYP) =  -558.400235262     A.U. after   11 cycles
 SCF Done:  E(RB3LYP) =  -558.401314304     A.U. after   10 cycles
 SCF Done:  E(RB3LYP) =  -558.401532589     A.U. after   10 cycles
 SCF Done:  E(RB3LYP) =  -558.401599737     A.U. after   10 cycles
 SCF Done:  E(RB3LYP) =  -558.401625980     A.U. after    9 cycles
 SCF Done:  E(RB3LYP) =  -558.401635072     A.U. after    8 cycles
 SCF Done:  E(RB3LYP) =  -558.401636592     A.U. after    7 cycles
 SCF Done:  E(RB3LYP) =  -558.401636812     A.U. after    6 cycles
 Optimization completed.
    -- Stationary point found.
 Normal termination of Gaussian 16 at Mon May 22 18:47:48 2023.

 ----------------------------------------------------------------------
 #N Geom=AllCheck Guess=TCheck SCRF=Check GenChk RB3LYP/6-31G(2df,p) Fr
 eq
 ----------------------------------------------------------------------

 Structure from the checkpoint file:  "CC1CCqCCCCqdNrOrC1O.chk"
 -------------------
 Title Card Required
 -------------------
 Charge =  0 Multiplicity = 1

                         Standard orientation:
 ---------------------------------------------------------------------
 Center     Atomic      Atomic             Coordinates (Angstroms)
 Number     Number       Type             X           Y           Z
 ---------------------------------------------------------------------
      1          6           0        4.564411    0.320762   -0.467774
      2          6           0        3.104814   -0.104654   -0.456916
      3          6           0        2.655356   -1.327802    0.393403
      4          6           0        1.357492   -0.565139    0.794742
      5          6           0        0.111252   -0.963080    0.001413
      6          6           0       -1.140284   -0.171206    0.406554
      7          6           0       -2.384090   -0.584905   -0.380898
      8          6           0       -3.662159    0.155889   -0.020611
      9          7           0       -3.828407    1.093349    0.811045
     10          8           0       -4.760124   -0.268383   -0.705721
     11          6           0        2.073223    0.748006    0.325199
     12          8           0        1.364716    1.767080   -0.343138
     13          1           0        5.194549   -0.416914   -0.976608
     14          1           0        4.945492    0.435318    0.553379
     15          1           0        4.691449    1.280134   -0.981150
     16          1           0        2.747721   -0.229686   -1.488477
     17          1           0        3.317896   -1.495506    1.247493
     18          1           0        2.523849   -2.276859   -0.132974
     19          1           0        1.118311   -0.589459    1.862867
     20          1           0       -0.071526   -2.036014    0.150094
     21          1           0        0.289892   -0.844282   -1.077834
     22          1           0       -0.946963    0.897594    0.268493
     23          1           0       -1.325603   -0.321752    1.477686
     24          1           0       -2.567641   -1.661294   -0.246213
     25          1           0       -2.208318   -0.446833   -1.458234
     26          1           0       -2.948640    1.334817    1.260370
     27          1           0       -4.511052   -0.984856   -1.297927
     28          1           0        2.549291    1.239900    1.179826
     29          1           0        1.083310    1.425450   -1.197907
 ---------------------------------------------------------------------

 SCF Done:  E(RB3LYP) =  -558.401636812     A.U. after    1 cycles

 The electronic state is 1-A.
 Alpha  occ. eigenvalues --  -19.16674 -19.14509 -14.28838 -10.26931 -10.23140
 Alpha  occ. eigenvalues --  -10.20598 -10.19461 -10.19247 -10.19171 -10.18888
 Alpha  occ. eigenvalues --  -10.18512 -10.17902  -1.06313  -1.02632  -0.88054
 Alpha  occ. eigenvalues --   -0.85067  -0.80099  -0.74368  -0.70368  -0.65602
 Alpha  occ. eigenvalues --   -0.63224  -0.60281  -0.59308  -0.56143  -0.50840
 Alpha  occ. eigenvalues --   -0.49463  -0.48449  -0.46923  -0.46094  -0.43963
 Alpha  occ. eigenvalues --   -0.42487  -0.41998  -0.40973  -0.40670  -0.39599
 Alpha  occ. eigenvalues --   -0.37992  -0.37187  -0.36482  -0.35789  -0.35299
 Alpha  occ. eigenvalues --   -0.34468  -0.32241  -0.30641  -0.29146  -0.26164
 Alpha  occ. eigenvalues --   -0.25935  -0.25690
 Alpha virt. eigenvalues --    0.03481   0.05282   0.06442   0.08123   0.09015
 Alpha virt. eigenvalues --    0.10512   0.11139   0.12303   0.13283   0.13913
 Alpha virt. eigenvalues --    0.15659   0.16209   0.16840   0.17053   0.17352

 Mulliken charges:
               1
     1  C   -0.417342
     2  C    0.015718
     3  C   -0.267992
     4  C   -0.045435
     5  C   -0.213925
     6  C   -0.210111
     7  C   -0.323299
     8  C    0.386362
     9  N   -0.472665
    10  O   -0.380615
    11  C    0.138136
    12  O   -0.425591
    13  H    0.115464
    14  H    0.114478
    15  H    0.122493
    16  H    0.060756
    17  H    0.100674
    18  H    0.096072
    19  H    0.067263
    20  H    0.098683
    21  H    0.078836
    22  H    0.131181
    23  H    0.110735
    24  H    0.115983
    25  H    0.115516
    26  H    0.225320
    27  H    0.295334
    28  H    0.088397
    29  H    0.279574
 Sum of Mulliken charges =  -0.00000

 Dipole moment (field-independent basis, Debye):
    X=              3.5953    Y=             -3.5285    Z=             -2.0015  Tot=              5.4205
 Quadrupole moment (field-independent basis, Debye-Ang):
   XX=            -94.2991   YY=            -77.5915   ZZ=            -69.0878
   XY=              9.7726   XZ=              7.1314   YZ=              0.5423

  Exact polarizability: 132.095  -0.534  99.598   1.461   6.738  95.727
 Approx polarizability: 152.163  -1.003 155.829   3.823  15.484 155.468

                      1                      2                      3
                      A                      A                      A
 Frequencies --     39.1715                42.2711                55.4294
 Red. masses --      4.0725                 4.7003                 4.4550
 Frc consts  --      0.0037                 0.0049                 0.0081
 IR Inten    --      0.6243                 2.1553                 0.4384

                      4                      5                      6
                      A                      A                      A
 Frequencies --     96.8064               118.4114               159.1329
 Red. masses --      2.8627                 2.8512                 2.2233
 Frc consts  --      0.0158                 0.0236                 0.0332
 IR Inten    --      3.5976                 3.3431                 4.1478

                      7                      8                      9
                      A                      A                      A
 Frequencies --    197.9894               213.3490               222.9701
 Red. masses --      2.8071                 1.4794                 2.0026
 Frc consts  --      0.0648                 0.0397                 0.0587
 IR Inten    --      0.8443                 1.8669                 1.3169

                     10                     11                     12
                      A                      A                      A
 Frequencies --    255.4920               290.2442               294.7064
 Red. masses --      3.4470                 2.7919                 1.3116
 Frc consts  --      0.1326                 0.1386                 0.0671
 IR Inten    --      0.4445                 7.5561                71.6530

                     13                     14                     15
                      A                      A                      A
 Frequencies --    354.6014               366.4405               389.9268
 Red. masses --      1.8618                 1.1741                 3.2051
 Frc consts  --      0.1379                 0.0929                 0.2871
 IR Inten    --     62.8154                71.7800                 2.7860

                     16                     17                     18
                      A                      A                      A
 Frequencies --    446.3936               499.0589               540.2238
 Red. masses --      2.6975                 3.1208                 2.3498
 Frc consts  --      0.3167                 0.4580                 0.4040
 IR Inten    --      6.9840                 1.1958                 0.6915

                     19                     20                     21
                      A                      A                      A
 Frequencies --    584.7012               610.1918               669.5777
 Red. masses --      3.1203                 4.0239                 2.8719
 Frc consts  --      0.6285                 0.8827                 0.7586
 IR Inten    --      1.2716                 2.9135                 0.8924

                     22                     23                     24
                      A                      A                      A
 Frequencies --    764.1539               784.1927               829.1417
 Red. masses --      1.2574                 2.0530                 2.3663
 Frc consts  --      0.4326                 0.7439                 0.9585
 IR Inten    --      4.8697                 7.3522                 3.1716

                     25                     26                     27
                      A                      A                      A
 Frequencies --    848.6528               867.3981               890.3069
 Red. masses --      1.4041                 1.5586                 2.2643
 Frc consts  --      0.5958                 0.6909                 1.0574
 IR Inten    --     30.8244                 6.7082                12.3632

                     28                     29                     30
                      A                      A                      A
 Frequencies --    899.2762               922.3337               949.1740
 Red. masses --      2.2977                 1.8291                 1.6064
 Frc consts  --      1.0948                 0.9168                 0.8527
 IR Inten    --      3.7769                12.3619                 0.9292

                     31                     32                     33
                      A                      A                      A
 Frequencies --    998.9708              1042.0056              1063.3162
 Red. masses --      1.9897                 1.3577                 2.4029
 Frc consts  --      1.1699                 0.8686                 1.6007
 IR Inten    --      2.1588                18.7462                10.8462

                     34                     35                     36
                      A                      A                      A
 Frequencies --   1070.7898              1090.2759              1093.3888
 Red. masses --      2.8721                 1.7554                 1.9073
 Frc consts  --      1.9402                 1.2294                 1.3435
 IR Inten    --     17.9607                95.3690                64.8983

                     37                     38                     39
                      A                      A                      A
 Frequencies --   1111.2058              1138.3409              1146.3615
 Red. masses --      2.5547                 1.9044                 2.4633
 Frc consts  --      1.8585                 1.4540                 1.9072
 IR Inten    --     28.5858                 2.4050                35.2027

                     40                     41                     42
                      A                      A                      A
 Frequencies --   1157.4602              1182.0618              1225.9584
 Red. masses --      1.3237                 1.7115                 1.4374
 Frc consts  --      1.0449                 1.4090                 1.2729
 IR Inten    --     20.5982                 5.0468                 5.9624

                     43                     44                     45
                      A                      A                      A
 Frequencies --   1232.4201              1249.9935              1259.7977
 Red. masses --      1.3052                 1.4818                 1.2964
 Frc consts  --      1.1680                 1.3641                 1.2123
 IR Inten    --     57.0878                 5.8827                22.4016

                     46                     47                     48
                      A                      A                      A
 Frequencies --   1274.9024              1287.4645              1296.2624
 Red. masses --      1.4178                 1.4122                 1.2925
 Frc consts  --      1.3578                 1.3791                 1.2796
 IR Inten    --      4.4008                31.2627                 1.3782

                     49                     50                     51
                      A                      A                      A
 Frequencies --   1319.2081              1331.5160              1339.4590
 Red. masses --      1.4056                 1.1301                 1.2990
 Frc consts  --      1.4412                 1.1805                 1.3732
 IR Inten    --      4.3797                13.4625                38.5637

                     52                     53                     54
                      A                      A                      A
 Frequencies --   1371.9544              1378.2052              1396.4822
 Red. masses --      1.5371                 1.4966                 1.6105
 Frc consts  --      1.7046                 1.6749                 1.8504
 IR Inten    --    123.0007                 1.0139                14.8297

                     55                     56                     57
                      A                      A                      A
 Frequencies --   1409.3335              1417.1187              1432.6297
 Red. masses --      1.2734                 2.1691                 1.2248
 Frc consts  --      1.4902                 2.5665                 1.4811
 IR Inten    --      1.4571               110.6202                43.8816

                     58                     59                     60
                      A                      A                      A
 Frequencies --   1472.0374              1489.8754              1490.7566
 Red. masses --      1.0878                 1.1164                 1.0774
 Frc consts  --      1.3887                 1.4600                 1.4107
 IR Inten    --      8.5150                 5.4429                 1.6816

                     61                     62                     63
                      A                      A                      A
 Frequencies --   1495.7673              1496.8267              1513.8284
 Red. masses --      1.0507                 1.0490                 1.0911
 Frc consts  --      1.3850                 1.3847                 1.4733
 IR Inten    --      4.1140                 8.8454                 2.4124

                     64                     65                     66
                      A                      A                      A
 Frequencies --   1769.3618              2991.5232              2995.4545
 Red. masses --      7.3863                 1.0627                 1.0607
 Frc consts  --     13.6242                 5.6035                 5.6074
 IR Inten    --    130.8017                 2.8610                26.2126

                     67                     68                     69
                      A                      A                      A
 Frequencies --   3007.4405              3022.4486              3024.6306
 Red. masses --      1.0802                 1.0936                 1.0353
 Frc consts  --      5.7563                 5.8862                 5.5806
 IR Inten    --     25.9272                13.7869                26.3104

                     70                     71                     72
                      A                      A                      A
 Frequencies --   3027.2946              3032.5239              3045.6548
 Red. masses --      1.0946                 1.0701                 1.0820
 Frc consts  --      5.9104                 5.7979                 5.9132
 IR Inten    --     12.4060                17.8935                42.6620

                     73                     74                     75
                      A                      A                      A
 Frequencies --   3051.7541              3064.0521              3088.6448
 Red. masses --      1.0662                 1.0831                 1.1001
 Frc consts  --      5.8506                 5.9912                 6.1835
 IR Inten    --     31.1333                43.8369                21.3125

                     76                     77                     78
                      A                      A                      A
 Frequencies --   3091.8114              3094.8342              3104.3898
 Red. masses --      1.1015                 1.1013                 1.1072
 Frc consts  --      6.2041                 6.2146                 6.2867
 IR Inten    --     26.2560                24.0096                39.5651

                     79                     80                     81
                      A                      A                      A
 Frequencies --   3529.4812              3815.0810              3831.5873
 Red. masses --      1.0747                 1.0658                 1.0659
 Frc consts  --      7.8875                 9.1399                 9.2203
 IR Inten    --      2.0262                10.0543                40.3608

 - Thermochemistry -
 -------------------
 Temperature   298.150 Kelvin.  Pressure   1.00000 Atm.
 Atom     1 has atomic number  6 and mass  12.00000

 Molecular mass:   171.12593 amu.
 Principal axes and moments of inertia in atomic units:
                           1         2         3
     Eigenvalues --   720.330495631.408205923.35769
           X            1.00000   0.00259   0.00002
           Y           -0.00259   0.99988   0.01503
           Z            0.00002  -0.01503   0.99989
 This molecule is an asymmetric top.
 Rotational symmetry number  1.
 Warning -- assumption of classical behavior for rotation
           may cause significant error
 Rotational temperatures (Kelvin)      0.12024     0.01538     0.01462
 Rotational constants (GHZ):           2.50543     0.32048     0.30468
 Zero-point vibrational energy     670301.5 (Joules/Mol)
                                  160.20591 (Kcal/Mol)
 Warning -- explicit consideration of  20 degrees of freedom as
           vibrations may cause significant error
 Vibrational temperatures:     56.36    60.82    79.75   139.28   170.37
          (Kelvin)            228.96   284.86   306.96   320.80   367.60
                              417.60   424.02   510.19   527.23   561.02
                              642.26   718.03   777.26   841.25   877.93
                              963.37  1099.45  1128.28  1192.95  1221.02
                             1247.99  1280.95  1293.86  1327.03  1365.65
                             1437.30  1499.21  1529.87  1540.63  1568.66
                             1573.14  1598.78  1637.82  1649.36  1665.33
                             1700.72  1763.88  1773.18  1798.46  1812.57
                             1834.30  1852.37  1865.03  1898.05  1915.75
                             1927.18  1973.94  1982.93  2009.23  2027.72
                             2038.92  2061.23  2117.93  2143.60  2144.87
                             2152.08  2153.60  2178.06  2545.72  4304.13
                             4309.79  4327.04  4348.63  4351.77  4355.60
                             4363.13  4382.02  4390.79  4408.49  4443.87
                             4448.43  4452.78  4466.52  5078.14  5489.05
                             5512.80

 Zero-point correction=                           0.255304 (Hartree/Particle)
 Thermal correction to Energy=                    0.268914
 Thermal correction to Enthalpy=                  0.269858
 Thermal correction to Gibbs Free Energy=         0.214236
 Sum of electronic and zero-point Energies=           -558.146332
 Sum of electronic and thermal Energies=              -558.132723
 Sum of electronic and thermal Enthalpies=            -558.131779
 Sum of electronic and thermal Free Energies=         -558.187401

                     E (Thermal)             CV                S
                      KCal/Mol        Cal/Mol-Kelvin    Cal/Mol-Kelvin
 Total                  168.746             50.480            117.066
 Electronic               0.000              0.000              0.000
 Translational            0.889              2.981             41.319
 Rotational               0.889              2.981             31.552
 Vibrational            166.968             44.518             44.194
 Vibration     1          0.594              1.981              5.301
 Vibration     2          0.595              1.980              5.150
 Vibration     3          0.596              1.975              4.614
 Vibration     4          0.603              1.951              3.518
 Vibration     5          0.609              1.934              3.126
 Vibration     6          0.621              1.892              2.560
 Vibration     7          0.637              1.843              2.152
 Vibration     8          0.644              1.821              2.015
 Vibration     9          0.649              1.806              1.935
 Vibration    10          0.666              1.754              1.692
 Vibration    11          0.686              1.692              1.473
 Vibration    12          0.689              1.684              1.447
 Vibration    13          0.730              1.566              1.146
 Vibration    14          0.739              1.541              1.095
 Vibration    15          0.758              1.492              1.000
 Vibration    16          0.806              1.369              0.807
 Vibration    17          0.855              1.252              0.660
 Vibration    18          0.895              1.161              0.565
 Vibration    19          0.942              1.064              0.477
 Vibration    20          0.969              1.010              0.432

                           ! Non-Optimized Parameters !
 Normal termination of Gaussian 16 at Mon May 22 20:03:21 2023.
