 Gaussian 16, Revision A.03,
 Gaussian 16:  ES64L-G16RevA.03 25-Dec-2016

 -----------------------------
 # opt freq b3lyp/6-31g(2df,p)
 -----------------------------

 -------------------
 Title Card Required
 -------------------
 Symbolic Z-matrix:
 Charge =  0 Multiplicity = 1

 SCF Done:  E(RB3LYP) =  -275.206847797     A.U. after   12 cycles
 SCF Done:  E(RB3LYP) =  -275.209305831     A.U. after   10 cycles
 SCF Done:  E(RB3LYP) =  -275.209580184     A.U. after    9 cycles
 SCF Done:  E(RB3LYP) =  -275.209679191     A.U. after    9 cycles
 SCF Done:  E(RB3LYP) =  -275.209697955     A.U. after    8 cycles
 SCF Done:  E(RB3LYP) =  -275.209819365     A.U. after    9 cycles
 SCF Done:  E(RB3LYP) =  -275.209924379     A.U. after   10 cycles
 SCF Done:  E(RB3LYP) =  -275.209983458     A.U. after    9 cycles
 SCF Done:  E(RB3LYP) =  -275.210145378     A.U. after   10 cycles
 SCF Done:  E(RB3LYP) =  -275.210193998     A.U. after    9 cycles
 SCF Done:  E(RB3LYP) =  -275.210291116     A.U. after    9 cycles
 SCF Done:  E(RB3LYP) =  -275.210309225     A.U. after    9 cycles
 SCF Done:  E(RB3LYP) =  -275.210304592     A.U. after    8 cycles
 SCF Done:  E(RB3LYP) =  -275.210313772     A.U. after    9 cycles
 SCF Done:  E(RB3LYP) =  -275.210314568     A.U. after    9 cycles
 SCF Done:  E(RB3LYP) =  -275.210321117     A.U. after    9 cycles
 SCF Done:  E(RB3LYP) =  -275.210324155     A.U. after    9 cycles
 SCF Done:  E(RB3LYP) =  -275.210324138     A.U. after    7 cycles
 SCF Done:  E(RB3LYP) =  -275.210324209     A.U. after    6 cycles
 Optimization completed.
    -- Stationary point found.
 Normal termination of Gaussian 16 at Sun May 28 10:36:04 2023.

 ----------------------------------------------------------------------
 #N Geom=AllCheck Guess=TCheck SCRF=Check GenChk RB3LYP/6-31G(2df,p) Fr
 eq
 ----------------------------------------------------------------------

 Structure from the checkpoint file:  "CC1CCCC1C.chk"
 -------------------
 Title Card Required
 -------------------
 Charge =  0 Multiplicity = 1

                         Standard orientation:
 ---------------------------------------------------------------------
 Center     Atomic      Atomic             Coordinates (Angstroms)
 Number     Number       Type             X           Y           Z
 ---------------------------------------------------------------------
      1          6           0        1.508322   -1.622866    0.097175
      2          6           0        0.371201   -0.697289   -0.330937
      3          6           0       -1.034332   -1.236979    0.000612
      4          6           0       -1.972281    0.000171    0.000246
      5          6           0       -1.034107    1.237103   -0.000953
      6          6           0        0.371266    0.697262    0.330888
      7          6           0        1.508610    1.622640   -0.097052
      8          1           0        1.424777   -2.603645   -0.383433
      9          1           0        1.492440   -1.783899    1.182000
     10          1           0        2.488759   -1.211806   -0.165002
     11          1           0        0.436376   -0.542796   -1.419365
     12          1           0       -1.013823   -1.696704    0.996679
     13          1           0       -1.357625   -2.016200   -0.696238
     14          1           0       -2.627294   -0.005951    0.876265
     15          1           0       -2.628207    0.006428   -0.875085
     16          1           0       -1.357226    2.016870    0.695371
     17          1           0       -1.013478    1.696139   -0.997342
     18          1           0        0.436200    0.542790    1.419337
     19          1           0        1.492935    1.783653   -1.181882
     20          1           0        2.488937    1.211423    0.165292
     21          1           0        1.425150    2.603443    0.383523
 ---------------------------------------------------------------------

 SCF Done:  E(RB3LYP) =  -275.210324209     A.U. after    1 cycles

 The electronic state is 1-A.
 Alpha  occ. eigenvalues --  -10.17558 -10.17538 -10.17079 -10.16902 -10.16900
 Alpha  occ. eigenvalues --  -10.16754 -10.16754  -0.83373  -0.73572  -0.73503
 Alpha  occ. eigenvalues --   -0.65882  -0.63151  -0.55451  -0.54549  -0.45960
 Alpha  occ. eigenvalues --   -0.45079  -0.42554  -0.42300  -0.40991  -0.38052
 Alpha  occ. eigenvalues --   -0.37365  -0.35558  -0.32594  -0.32335  -0.31594
 Alpha  occ. eigenvalues --   -0.30716  -0.30500  -0.29577
 Alpha virt. eigenvalues --    0.08333   0.10380   0.10896   0.12092   0.14989
 Alpha virt. eigenvalues --    0.15775   0.16953   0.17076   0.17454   0.18116
 Alpha virt. eigenvalues --    0.19003   0.19237   0.19974   0.21930   0.22187

 Mulliken charges:
               1
     1  C   -0.413033
     2  C    0.061096
     3  C   -0.209350
     4  C   -0.216106
     5  C   -0.209320
     6  C    0.061066
     7  C   -0.413024
     8  H    0.109998
     9  H    0.109537
    10  H    0.111670
    11  H    0.061222
    12  H    0.091023
    13  H    0.089937
    14  H    0.095962
    15  H    0.095955
    16  H    0.089921
    17  H    0.091018
    18  H    0.061221
    19  H    0.109536
    20  H    0.111672
    21  H    0.109997
 Sum of Mulliken charges =  -0.00000

 Dipole moment (field-independent basis, Debye):
    X=             -0.0157    Y=              0.0000    Z=             -0.0000  Tot=              0.0157
 Quadrupole moment (field-independent basis, Debye-Ang):
   XX=            -47.1240   YY=            -46.9091   ZZ=            -45.5457
   XY=              0.0000   XZ=              0.0001   YZ=              0.2908

  Exact polarizability:  78.918  -0.000  77.527  -0.000   0.143  65.021
 Approx polarizability: 101.546  -0.000 101.951  -0.000  -0.062 102.498

                      1                      2                      3
                      A                      A                      A
 Frequencies --     42.4744               133.6163               222.6182
 Red. masses --      1.6244                 2.1724                 1.0454
 Frc consts  --      0.0017                 0.0229                 0.0305
 IR Inten    --      0.0026                 0.0035                 0.0334

                      4                      5                      6
                      A                      A                      A
 Frequencies --    233.8123               250.5922               324.2744
 Red. masses --      1.0641                 2.3307                 2.0564
 Frc consts  --      0.0343                 0.0862                 0.1274
 IR Inten    --      0.0083                 0.0003                 0.0750

                      7                      8                      9
                      A                      A                      A
 Frequencies --    356.1555               490.0990               520.6168
 Red. masses --      2.3134                 2.2778                 3.3147
 Frc consts  --      0.1729                 0.3223                 0.5293
 IR Inten    --      0.1265                 0.0049                 0.6016

                     10                     11                     12
                      A                      A                      A
 Frequencies --    622.7287               766.2407               774.2656
 Red. masses --      3.0918                 1.1829                 2.4560
 Frc consts  --      0.7064                 0.4092                 0.8675
 IR Inten    --      0.3311                 0.7860                 0.0133

                     13                     14                     15
                      A                      A                      A
 Frequencies --    869.4546               888.0171               902.4734
 Red. masses --      1.5150                 2.0271                 2.2562
 Frc consts  --      0.6748                 0.9418                 1.0827
 IR Inten    --      0.3532                 0.3897                 0.2086

                     16                     17                     18
                      A                      A                      A
 Frequencies --    954.3890               968.8000               992.7472
 Red. masses --      1.2789                 1.6909                 1.4264
 Frc consts  --      0.6863                 0.9351                 0.8282
 IR Inten    --      0.5048                 0.9715                 2.4840

                     19                     20                     21
                      A                      A                      A
 Frequencies --   1023.2878              1037.5432              1095.7383
 Red. masses --      2.5664                 1.1934                 2.6281
 Frc consts  --      1.5833                 0.7569                 1.8591
 IR Inten    --      1.0568                 0.4794                 0.2924

                     22                     23                     24
                      A                      A                      A
 Frequencies --   1099.2101              1162.5527              1168.0143
 Red. masses --      2.0270                 2.0395                 2.0653
 Frc consts  --      1.4430                 1.6240                 1.6601
 IR Inten    --      0.9691                 0.3525                 0.3033

                     25                     26                     27
                      A                      A                      A
 Frequencies --   1208.8030              1235.0001              1276.8430
 Red. masses --      1.4051                 1.6623                 1.1849
 Frc consts  --      1.2097                 1.4938                 1.1381
 IR Inten    --      0.0349                 0.0548                 0.0645

                     28                     29                     30
                      A                      A                      A
 Frequencies --   1280.1494              1321.0339              1325.2155
 Red. masses --      1.3959                 1.2385                 1.3126
 Frc consts  --      1.3478                 1.2734                 1.3582
 IR Inten    --      0.2092                 1.9055                 1.9936

                     31                     32                     33
                      A                      A                      A
 Frequencies --   1327.2686              1342.8095              1373.6530
 Red. masses --      1.3884                 1.2628                 1.5200
 Frc consts  --      1.4410                 1.3416                 1.6899
 IR Inten    --      3.4878                 1.4962                 0.0016

                     34                     35                     36
                      A                      A                      A
 Frequencies --   1394.6943              1406.9883              1413.9659
 Red. masses --      1.5435                 1.2675                 1.2299
 Frc consts  --      1.7690                 1.4784                 1.4488
 IR Inten    --      1.0849                 3.2960                 0.9136

                     37                     38                     39
                      A                      A                      A
 Frequencies --   1487.7856              1491.4388              1496.1936
 Red. masses --      1.0744                 1.0698                 1.0636
 Frc consts  --      1.4012                 1.4020                 1.4028
 IR Inten    --      0.1194                 1.2543                 0.7298

                     40                     41                     42
                      A                      A                      A
 Frequencies --   1496.5022              1499.7472              1505.8332
 Red. masses --      1.0514                 1.0551                 1.0450
 Frc consts  --      1.3873                 1.3982                 1.3961
 IR Inten    --      3.1733                10.1246                 1.7336

                     43                     44                     45
                      A                      A                      A
 Frequencies --   1515.3429              2973.8237              2987.9618
 Red. masses --      1.1009                 1.0793                 1.0840
 Frc consts  --      1.4894                 5.6237                 5.7020
 IR Inten    --      0.8212                 0.1991                31.1871

                     46                     47                     48
                      A                      A                      A
 Frequencies --   3021.1227              3022.3975              3027.3113
 Red. masses --      1.0399                 1.0434                 1.0579
 Frc consts  --      5.5921                 5.6157                 5.7124
 IR Inten    --      3.5766                19.3317                19.5240

                     49                     50                     51
                      A                      A                      A
 Frequencies --   3027.3602              3053.1455              3068.1969
 Red. masses --      1.0616                 1.0636                 1.0978
 Frc consts  --      5.7327                 5.8414                 6.0888
 IR Inten    --     89.6505                37.5918                20.5829

                     52                     53                     54
                      A                      A                      A
 Frequencies --   3078.1818              3087.3571              3087.4486
 Red. masses --      1.0970                 1.1000                 1.1006
 Frc consts  --      6.1239                 6.1773                 6.1813
 IR Inten    --     18.9770                 1.0261                38.7719

                     55                     56                     57
                      A                      A                      A
 Frequencies --   3092.0410              3096.8430              3097.5082
 Red. masses --      1.1011                 1.1004                 1.1043
 Frc consts  --      6.2026                 6.2178                 6.2426
 IR Inten    --     38.7749                28.6931                98.9683

 - Thermochemistry -
 -------------------
 Temperature   298.150 Kelvin.  Pressure   1.00000 Atm.
 Atom     1 has atomic number  6 and mass  12.00000

 Molecular mass:    98.10955 amu.
 Principal axes and moments of inertia in atomic units:
                           1         2         3
     Eigenvalues --   585.04389 664.211141144.96633
           X            1.00000   0.00001  -0.00000
           Y           -0.00001   0.99998  -0.00638
           Z            0.00000   0.00638   0.99998
 This molecule is an asymmetric top.
 Rotational symmetry number  1.
 Warning -- assumption of classical behavior for rotation
           may cause significant error
 Rotational temperatures (Kelvin)      0.14805     0.13040     0.07565
 Rotational constants (GHZ):           3.08480     2.71712     1.57624
 Zero-point vibrational energy     514512.0 (Joules/Mol)
                                  122.97132 (Kcal/Mol)
 Warning -- explicit consideration of   9 degrees of freedom as
           vibrations may cause significant error
 Vibrational temperatures:     61.11   192.24   320.30   336.40   360.55
          (Kelvin)            466.56   512.43   705.14   749.05   895.97
                             1102.45  1114.00  1250.95  1277.66  1298.46
                             1373.15  1393.89  1428.34  1472.28  1492.79
                             1576.52  1581.52  1672.65  1680.51  1739.20
                             1776.89  1837.09  1841.85  1900.67  1906.69
                             1909.64  1932.00  1976.38  2006.65  2024.34
                             2034.38  2140.59  2145.85  2152.69  2153.13
                             2157.80  2166.56  2180.24  4278.67  4299.01
                             4346.72  4348.56  4355.63  4355.70  4392.80
                             4414.45  4428.82  4442.02  4442.15  4448.76
                             4455.67  4456.62

 Zero-point correction=                           0.195967 (Hartree/Particle)
 Thermal correction to Energy=                    0.203961
 Thermal correction to Enthalpy=                  0.204905
 Thermal correction to Gibbs Free Energy=         0.163604
 Sum of electronic and zero-point Energies=           -275.014357
 Sum of electronic and thermal Energies=              -275.006363
 Sum of electronic and thermal Enthalpies=            -275.005419
 Sum of electronic and thermal Free Energies=         -275.046721

                     E (Thermal)             CV                S
                      KCal/Mol        Cal/Mol-Kelvin    Cal/Mol-Kelvin
 Total                  127.987             29.962             86.926
 Electronic               0.000              0.000              0.000
 Translational            0.889              2.981             39.661
 Rotational               0.889              2.981             27.589
 Vibrational            126.210             24.000             19.676
 Vibration     1          0.595              1.980              5.140
 Vibration     2          0.613              1.920              2.893
 Vibration     3          0.648              1.807              1.938
 Vibration     4          0.654              1.789              1.849
 Vibration     5          0.663              1.762              1.726
 Vibration     6          0.709              1.627              1.288
 Vibration     7          0.732              1.563              1.139
 Vibration     8          0.846              1.272              0.683
 Vibration     9          0.876              1.204              0.609

 Optimization completed.
    -- Stationary point found.
 Normal termination of Gaussian 16 at Sun May 28 10:58:51 2023.
