 Gaussian 16, Revision A.03,
 Gaussian 16:  ES64L-G16RevA.03 25-Dec-2016

 -----------------------------
 # opt freq b3lyp/6-31g(2df,p)
 -----------------------------

 -------------------
 Title Card Required
 -------------------
 Symbolic Z-matrix:
 Charge =  0 Multiplicity = 1

 SCF Done:  E(RB3LYP) =  -533.600301050     A.U. after   12 cycles
 SCF Done:  E(RB3LYP) =  -533.602481988     A.U. after   10 cycles
 SCF Done:  E(RB3LYP) =  -533.603508413     A.U. after   10 cycles
 SCF Done:  E(RB3LYP) =  -533.603766547     A.U. after   10 cycles
 SCF Done:  E(RB3LYP) =  -533.603873639     A.U. after   10 cycles
 SCF Done:  E(RB3LYP) =  -533.603885300     A.U. after    8 cycles
 SCF Done:  E(RB3LYP) =  -533.603890401     A.U. after    8 cycles
 SCF Done:  E(RB3LYP) =  -533.603890924     A.U. after    7 cycles
 SCF Done:  E(RB3LYP) =  -533.603891116     A.U. after    6 cycles
 Optimization completed.
    -- Stationary point found.
 Normal termination of Gaussian 16 at Sun May 28 04:05:17 2023.

 ----------------------------------------------------------------------
 #N Geom=AllCheck Guess=TCheck SCRF=Check GenChk RB3LYP/6-31G(2df,p) Fr
 eq
 ----------------------------------------------------------------------

 Structure from the checkpoint file:  "CC1CCC1CqFrqFrF.chk"
 -------------------
 Title Card Required
 -------------------
 Charge =  0 Multiplicity = 1

                         Standard orientation:
 ---------------------------------------------------------------------
 Center     Atomic      Atomic             Coordinates (Angstroms)
 Number     Number       Type             X           Y           Z
 ---------------------------------------------------------------------
      1          6           0       -1.380910    1.672833    0.328863
      2          6           0       -1.403777    0.452138   -0.588591
      3          6           0       -2.273849   -0.732032   -0.062564
      4          6           0       -0.981880   -1.483111    0.359318
      5          6           0       -0.171043   -0.513884   -0.538820
      6          6           0        1.165144   -0.024606   -0.038262
      7          9           0        1.125152    0.388366    1.241520
      8          9           0        2.092139   -0.997146   -0.103571
      9          9           0        1.617125    1.008450   -0.773163
     10          1           0       -2.349012    2.182671    0.284475
     11          1           0       -0.607910    2.385287    0.026165
     12          1           0       -1.192313    1.400584    1.370786
     13          1           0       -1.644223    0.775473   -1.604911
     14          1           0       -2.810517   -1.245544   -0.864411
     15          1           0       -2.984976   -0.491205    0.731312
     16          1           0       -0.912263   -2.546449    0.124265
     17          1           0       -0.745202   -1.342057    1.416144
     18          1           0        0.014566   -0.943828   -1.526562
 ---------------------------------------------------------------------

 SCF Done:  E(RB3LYP) =  -533.603891116     A.U. after    1 cycles

 The electronic state is 1-A.
 Alpha  occ. eigenvalues --  -24.71288 -24.71089 -24.70950 -10.40816 -10.20475
 Alpha  occ. eigenvalues --  -10.19999 -10.19272 -10.18817 -10.17729  -1.29704
 Alpha  occ. eigenvalues --   -1.20884  -1.20746  -0.86253  -0.74028  -0.72342
 Alpha  occ. eigenvalues --   -0.65009  -0.63313  -0.58012  -0.57351  -0.56913
 Alpha  occ. eigenvalues --   -0.51211  -0.49943  -0.45224  -0.44982  -0.43984
 Alpha  occ. eigenvalues --   -0.42797  -0.41537  -0.40431  -0.39974  -0.39061
 Alpha  occ. eigenvalues --   -0.38314  -0.37471  -0.34597  -0.32492  -0.30944
 Alpha  occ. eigenvalues --   -0.30733
 Alpha virt. eigenvalues --    0.07354   0.10059   0.10375   0.12678   0.14280
 Alpha virt. eigenvalues --    0.14702   0.15058   0.16949   0.18034   0.18857
 Alpha virt. eigenvalues --    0.20181   0.20930   0.22089   0.23340   0.25218

 Mulliken charges:
               1
     1  C   -0.402586
     2  C   -0.003133
     3  C   -0.227318
     4  C   -0.242699
     5  C   -0.125829
     6  C    0.274444
     7  F   -0.086657
     8  F   -0.082378
     9  F   -0.085014
    10  H    0.111874
    11  H    0.126693
    12  H    0.124176
    13  H    0.079425
    14  H    0.104355
    15  H    0.102996
    16  H    0.109353
    17  H    0.120778
    18  H    0.101519
 Sum of Mulliken charges =  -0.00000

 Dipole moment (field-independent basis, Debye):
    X=             -2.0297    Y=             -0.5269    Z=             -0.5425  Tot=              2.1660
 Quadrupole moment (field-independent basis, Debye-Ang):
   XX=            -53.9613   YY=            -51.7439   ZZ=            -51.2847
   XY=              0.0912   XZ=              0.1931   YZ=              0.5078

  Exact polarizability:  67.808  -0.604  66.429  -0.662   0.174  58.148
 Approx polarizability:  89.499  -1.105  90.541  -1.354  -0.438  88.875

                      1                      2                      3
                      A                      A                      A
 Frequencies --     64.3455                91.0408               157.6295
 Red. masses --      5.2542                 2.5441                 4.5522
 Frc consts  --      0.0128                 0.0124                 0.0666
 IR Inten    --      0.0748                 0.2539                 0.9460

                      4                      5                      6
                      A                      A                      A
 Frequencies --    233.0999               270.8965               286.0563
 Red. masses --      3.6638                 1.0875                 4.0780
 Frc consts  --      0.1173                 0.0470                 0.1966
 IR Inten    --      0.6313                 0.0575                 0.5470

                      7                      8                      9
                      A                      A                      A
 Frequencies --    345.6192               378.1202               429.0495
 Red. masses --      2.7538                 3.9775                 4.9086
 Frc consts  --      0.1938                 0.3351                 0.5324
 IR Inten    --      1.7592                 2.5490                 1.7918

                     10                     11                     12
                      A                      A                      A
 Frequencies --    519.1588               573.5745               662.7977
 Red. masses --      9.1530                 8.4814                 2.6721
 Frc consts  --      1.4535                 1.6440                 0.6916
 IR Inten    --      1.4092                 0.1563                 1.1263

                     13                     14                     15
                      A                      A                      A
 Frequencies --    695.4447               770.3919               788.3141
 Red. masses --      3.2338                 1.7978                 3.1427
 Frc consts  --      0.9215                 0.6287                 1.1507
 IR Inten    --     11.6841                 0.7093                 0.7895

                     16                     17                     18
                      A                      A                      A
 Frequencies --    887.4092               920.6526               927.4502
 Red. masses --      2.1584                 1.5901                 2.6980
 Frc consts  --      1.0015                 0.7941                 1.3673
 IR Inten    --      0.7813                 1.5108                12.3629

                     19                     20                     21
                      A                      A                      A
 Frequencies --    965.7757               994.8419              1039.2947
 Red. masses --      2.0236                 1.5125                 1.5915
 Frc consts  --      1.1121                 0.8820                 1.0129
 IR Inten    --      3.1945                 6.4802                15.2320

                     22                     23                     24
                      A                      A                      A
 Frequencies --   1088.9640              1108.0639              1160.3154
 Red. masses --      2.0136                 3.0238                 2.1353
 Frc consts  --      1.4068                 2.1874                 1.6938
 IR Inten    --     22.4777                54.6893                46.0318

                     25                     26                     27
                      A                      A                      A
 Frequencies --   1181.3618              1188.6830              1228.5182
 Red. masses --      3.9323                 3.3696                 1.5166
 Frc consts  --      3.2334                 2.8052                 1.3486
 IR Inten    --    126.4447               137.6642                19.8614

                     28                     29                     30
                      A                      A                      A
 Frequencies --   1256.4649              1263.2138              1281.0117
 Red. masses --      1.2461                 1.3689                 1.5562
 Frc consts  --      1.1591                 1.2870                 1.5046
 IR Inten    --      7.2094                 7.0648                14.7252

                     31                     32                     33
                      A                      A                      A
 Frequencies --   1284.2711              1297.7013              1366.8034
 Red. masses --      2.1490                 1.9234                 1.4184
 Frc consts  --      2.0884                 1.9084                 1.5612
 IR Inten    --     74.5916                54.4522                14.4187

                     34                     35                     36
                      A                      A                      A
 Frequencies --   1402.9416              1416.0071              1482.1789
 Red. masses --      1.9739                 1.2706                 1.0806
 Frc consts  --      2.2891                 1.5011                 1.3987
 IR Inten    --     63.4104                 2.5441                 0.8924

                     37                     38                     39
                      A                      A                      A
 Frequencies --   1497.9056              1500.3315              1503.1995
 Red. masses --      1.0526                 1.1172                 1.0562
 Frc consts  --      1.3914                 1.4817                 1.4061
 IR Inten    --      1.9631                 0.2839                 6.1277

                     40                     41                     42
                      A                      A                      A
 Frequencies --   3038.6776              3056.1675              3063.1502
 Red. masses --      1.0361                 1.0743                 1.0695
 Frc consts  --      5.6369                 5.9118                 5.9125
 IR Inten    --     20.8556                18.1940                39.5929

                     43                     44                     45
                      A                      A                      A
 Frequencies --   3076.4794              3081.2548              3105.4862
 Red. masses --      1.0596                 1.0854                 1.1008
 Frc consts  --      5.9087                 6.0716                 6.2551
 IR Inten    --     20.5164                12.7008                23.7893

                     46                     47                     48
                      A                      A                      A
 Frequencies --   3108.1993              3120.0274              3132.9912
 Red. masses --      1.1080                 1.1013                 1.1073
 Frc consts  --      6.3069                 6.3165                 6.4038
 IR Inten    --      9.2571                27.4029                33.5084

 - Thermochemistry -
 -------------------
 Temperature   298.150 Kelvin.  Pressure   1.00000 Atm.
 Atom     1 has atomic number  6 and mass  12.00000

 Molecular mass:   138.06564 amu.
 Principal axes and moments of inertia in atomic units:
                           1         2         3
     Eigenvalues --   710.362021361.987251632.28649
           X            0.99998  -0.00646  -0.00201
           Y            0.00650   0.99979   0.01964
           Z            0.00189  -0.01966   0.99981
 This molecule is an asymmetric top.
 Rotational symmetry number  1.
 Warning -- assumption of classical behavior for rotation
           may cause significant error
 Rotational temperatures (Kelvin)      0.12193     0.06359     0.05306
 Rotational constants (GHZ):           2.54059     1.32508     1.10565
 Zero-point vibrational energy     378566.2 (Joules/Mol)
                                   90.47950 (Kcal/Mol)
 Warning -- explicit consideration of  11 degrees of freedom as
           vibrations may cause significant error
 Vibrational temperatures:     92.58   130.99   226.79   335.38   389.76
          (Kelvin)            411.57   497.27   544.03   617.31   746.95
                              825.25   953.62  1000.59  1108.42  1134.21
                             1276.78  1324.61  1334.39  1389.54  1431.36
                             1495.31  1566.78  1594.26  1669.43  1699.72
                             1710.25  1767.56  1807.77  1817.48  1843.09
                             1847.78  1867.10  1966.53  2018.52  2037.32
                             2132.52  2155.15  2158.64  2162.77  4371.98
                             4397.14  4407.19  4426.37  4433.24  4468.10
                             4472.01  4489.02  4507.68

 Zero-point correction=                           0.144188 (Hartree/Particle)
 Thermal correction to Energy=                    0.152883
 Thermal correction to Enthalpy=                  0.153827
 Thermal correction to Gibbs Free Energy=         0.110324
 Sum of electronic and zero-point Energies=           -533.459703
 Sum of electronic and thermal Energies=              -533.451008
 Sum of electronic and thermal Enthalpies=            -533.450064
 Sum of electronic and thermal Free Energies=         -533.493567

                     E (Thermal)             CV                S
                      KCal/Mol        Cal/Mol-Kelvin    Cal/Mol-Kelvin
 Total                   95.936             32.344             91.559
 Electronic               0.000              0.000              0.000
 Translational            0.889              2.981             40.679
 Rotational               0.889              2.981             28.848
 Vibrational             94.158             26.382             22.032
 Vibration     1          0.597              1.971              4.319
 Vibration     2          0.602              1.956              3.638
 Vibration     3          0.621              1.894              2.578
 Vibration     4          0.654              1.790              1.855
 Vibration     5          0.675              1.727              1.590
 Vibration     6          0.684              1.700              1.497
 Vibration     7          0.724              1.584              1.186
 Vibration     8          0.748              1.517              1.047
 Vibration     9          0.790              1.407              0.862
 Vibration    10          0.874              1.208              0.612
 Vibration    11          0.930              1.088              0.497

 Optimization completed.
    -- Stationary point found.
 Normal termination of Gaussian 16 at Sun May 28 04:36:26 2023.
