 Gaussian 16, Revision A.03,
 Gaussian 16:  ES64L-G16RevA.03 25-Dec-2016

 -----------------------------
 # opt freq b3lyp/6-31g(2df,p)
 -----------------------------

 -------------------
 Title Card Required
 -------------------
 Symbolic Z-matrix:
 Charge =  0 Multiplicity = 1

 SCF Done:  E(RB3LYP) =  -778.625400001     A.U. after   15 cycles
 SCF Done:  E(RB3LYP) =  -778.740633210     A.U. after   13 cycles
 SCF Done:  E(RB3LYP) =  -778.830932462     A.U. after   14 cycles
 SCF Done:  E(RB3LYP) =  -778.950159485     A.U. after   13 cycles
 SCF Done:  E(RB3LYP) =  -778.779215026     A.U. after   13 cycles
 SCF Done:  E(RB3LYP) =  -778.994892495     A.U. after   13 cycles
 SCF Done:  E(RB3LYP) =  -779.040773077     A.U. after   12 cycles
 SCF Done:  E(RB3LYP) =  -779.033711401     A.U. after   13 cycles
 SCF Done:  E(RB3LYP) =  -779.092434197     A.U. after   11 cycles
 SCF Done:  E(RB3LYP) =  -779.089210129     A.U. after   11 cycles
 SCF Done:  E(RB3LYP) =  -779.269050041     A.U. after    9 cycles
 SCF Done:  E(RB3LYP) =  -779.269197626     A.U. after    9 cycles
 SCF Done:  E(RB3LYP) =  -779.269295136     A.U. after    9 cycles
 SCF Done:  E(RB3LYP) =  -779.269321197     A.U. after    9 cycles
 SCF Done:  E(RB3LYP) =  -779.269333361     A.U. after    8 cycles
 SCF Done:  E(RB3LYP) =  -779.269339037     A.U. after    7 cycles
 SCF Done:  E(RB3LYP) =  -779.269340964     A.U. after    7 cycles
 SCF Done:  E(RB3LYP) =  -779.269341734     A.U. after    6 cycles
 SCF Done:  E(RB3LYP) =  -779.269342175     A.U. after    6 cycles
 Optimization completed.
    -- Stationary point found.

 The electronic state is 1-A.
 Alpha  occ. eigenvalues --  -19.12267 -10.25910 -10.19054 -10.18996 -10.18918
 Alpha  occ. eigenvalues --  -10.18282 -10.18022 -10.17969 -10.17939 -10.17880
 Alpha  occ. eigenvalues --  -10.17600 -10.17453 -10.17374 -10.17344 -10.17000
 Alpha  occ. eigenvalues --  -10.16998 -10.16951 -10.16919 -10.16867  -1.03341
 Alpha  occ. eigenvalues --   -0.84452  -0.82936  -0.80185  -0.77742  -0.76193
 Alpha  occ. eigenvalues --   -0.73795  -0.72634  -0.69846  -0.67909  -0.66146
 Alpha  occ. eigenvalues --   -0.62615  -0.60769  -0.58857  -0.57779  -0.56483
 Alpha  occ. eigenvalues --   -0.54861  -0.54099  -0.51105  -0.49122  -0.46445
 Alpha  occ. eigenvalues --   -0.45885  -0.45382  -0.44682  -0.43552  -0.43230
 Alpha  occ. eigenvalues --   -0.42739  -0.42623  -0.41533  -0.41410  -0.40771
 Alpha  occ. eigenvalues --   -0.39530  -0.39016  -0.38361  -0.37797  -0.37004
 Alpha  occ. eigenvalues --   -0.36693  -0.36277  -0.34960  -0.34392  -0.34147
 Alpha  occ. eigenvalues --   -0.33534  -0.33045  -0.32627  -0.32322  -0.31877
 Alpha  occ. eigenvalues --   -0.31568  -0.31275  -0.30411  -0.30101  -0.29947
 Alpha  occ. eigenvalues --   -0.27982  -0.27713  -0.23232
 Alpha virt. eigenvalues --   -0.01292   0.07385   0.08086   0.08955   0.09641
 Alpha virt. eigenvalues --    0.09912   0.11423   0.11592   0.12246   0.13389
 Alpha virt. eigenvalues --    0.13597   0.14163   0.14262   0.14783   0.15563

 Mulliken charges:
               1
     1  C   -0.400112
     2  C    0.006305
     3  C   -0.191804
     4  C   -0.222392
     5  C   -0.194024
     6  C    0.028494
     7  C   -0.205074
     8  C   -0.201831
     9  C   -0.202962
    10  C   -0.207116
    11  C    0.023837
    12  C   -0.230136
    13  C   -0.227190
    14  C   -0.084038
    15  C   -0.290684
    16  C    0.028187
    17  C   -0.346214
    18  C    0.378392
    19  O   -0.330991
    20  H    0.110242
    21  H    0.116755
    22  H    0.108757
    23  H    0.072211
    24  H    0.093999
    25  H    0.093422
    26  H    0.093188
    27  H    0.093333
    28  H    0.099526
    29  H    0.090980
    30  H    0.057656
    31  H    0.095306
    32  H    0.085411
    33  H    0.086336
    34  H    0.088033
    35  H    0.093866
    36  H    0.085767
    37  H    0.088576
    38  H    0.086784
    39  H    0.087807
    40  H    0.092808
    41  H    0.093786
    42  H    0.118946
    43  H    0.090596
    44  H    0.101943
    45  H    0.094514
    46  H    0.116161
    47  H    0.073059
    48  H    0.125183
    49  H    0.134401
 Sum of Mulliken charges =  -0.00000

 Dipole moment (field-independent basis, Debye):
    X=             -1.4095    Y=              0.8444    Z=             -1.9870  Tot=              2.5784
 Quadrupole moment (field-independent basis, Debye-Ang):
   XX=           -115.4073   YY=           -119.8796   ZZ=           -124.2752
   XY=              1.8925   XZ=             -0.1188   YZ=              5.1006

 Normal termination of Gaussian 16 at Sun May 28 15:58:34 2023.

 ----------------------------------------------------------------------
 #N Geom=AllCheck Guess=TCheck SCRF=Check GenChk RB3LYP/6-31G(2df,p) Fr
 eq
 ----------------------------------------------------------------------

 Structure from the checkpoint file:  "CC1CCCC2CCCCC2CCC2CC1CC2dO.chk"
 -------------------
 Title Card Required
 -------------------
 Charge =  0 Multiplicity = 1

                         Standard orientation:
 ---------------------------------------------------------------------
 Center     Atomic      Atomic             Coordinates (Angstroms)
 Number     Number       Type             X           Y           Z
 ---------------------------------------------------------------------
      1          6           0       -4.530838    1.521051    0.013499
      2          6           0       -3.154437    1.097410   -0.531230
      3          6           0       -2.111533    2.155858   -0.079109
      4          6           0       -0.652738    2.068624   -0.578650
      5          6           0        0.230880    1.127253    0.247718
      6          6           0        1.692810    0.942031   -0.221099
      7          6           0        2.638382    1.796984    0.646317
      8          6           0        4.117485    1.615272    0.296643
      9          6           0        4.505483    0.136601    0.397930
     10          6           0        3.608979   -0.718297   -0.502555
     11          6           0        2.099746   -0.557031   -0.219622
     12          6           0        1.297714   -1.404386   -1.258506
     13          6           0        0.334750   -2.506806   -0.756303
     14          6           0       -1.096372   -2.125993   -0.317865
     15          6           0       -1.880161   -1.099067   -1.153333
     16          6           0       -2.901419   -0.400350   -0.197530
     17          6           0       -2.443503   -0.719899    1.247536
     18          6           0       -1.238390   -1.659581    1.136714
     19          8           0       -0.535262   -2.007406    2.052740
     20          1           0       -4.771657    2.551632   -0.266383
     21          1           0       -4.556183    1.463519    1.108286
     22          1           0       -5.326785    0.874660   -0.370473
     23          1           0       -3.206970    1.152851   -1.628896
     24          1           0       -2.104092    2.214261    1.018329
     25          1           0       -2.519498    3.119400   -0.408245
     26          1           0       -0.219457    3.076753   -0.548157
     27          1           0       -0.635663    1.775146   -1.636846
     28          1           0       -0.237525    0.149961    0.277042
     29          1           0        0.228641    1.471743    1.290019
     30          1           0        1.781482    1.297348   -1.259779
     31          1           0        2.489491    1.518858    1.699675
     32          1           0        2.348600    2.852312    0.565385
     33          1           0        4.740441    2.225788    0.960378
     34          1           0        4.305160    1.972962   -0.725573
     35          1           0        4.403978   -0.194344    1.440866
     36          1           0        5.557392   -0.007900    0.125710
     37          1           0        3.878805   -1.777905   -0.413890
     38          1           0        3.796466   -0.442913   -1.551432
     39          1           0        1.900540   -0.951335    0.786716
     40          1           0        2.031534   -1.923840   -1.885416
     41          1           0        0.773825   -0.736967   -1.952564
     42          1           0        0.796530   -3.039939    0.083430
     43          1           0        0.238387   -3.238384   -1.566979
     44          1           0       -1.674477   -3.065364   -0.313727
     45          1           0       -2.398854   -1.568645   -1.994020
     46          1           0       -1.205329   -0.363160   -1.590108
     47          1           0       -3.864699   -0.898677   -0.351652
     48          1           0       -3.219782   -1.223539    1.833620
     49          1           0       -2.149228    0.156914    1.829427
 ---------------------------------------------------------------------

 SCF Done:  E(RB3LYP) =  -779.269342175     A.U. after    1 cycles
