 Gaussian 16, Revision A.03,
 Gaussian 16:  ES64L-G16RevA.03 25-Dec-2016

 -----------------------------
 # opt freq b3lyp/6-31g(2df,p)
 -----------------------------

 -------------------
 Title Card Required
 -------------------
 Symbolic Z-matrix:
 Charge =  0 Multiplicity = 1

 SCF Done:  E(RB3LYP) =  -657.075702480     A.U. after   27 cycles
 SCF Done:  E(RB3LYP) =  -657.169865472     A.U. after   18 cycles
 SCF Done:  E(RB3LYP) =  -657.233205243     A.U. after   20 cycles
 SCF Done:  E(RB3LYP) =  -657.240141414     A.U. after   35 cycles
 SCF Done:  E(RB3LYP) =  -657.362397713     A.U. after   20 cycles
 SCF Done:  E(RB3LYP) =  -657.466757407     A.U. after   20 cycles
 SCF Done:  E(RB3LYP) =  -657.524099726     A.U. after   21 cycles
 SCF Done:  E(RB3LYP) =  -657.571682106     A.U. after   18 cycles
 SCF Done:  E(RB3LYP) =  -657.594289925     A.U. after   21 cycles
 SCF Done:  E(RB3LYP) =  -657.602503359     A.U. after   19 cycles
 SCF Done:  E(RB3LYP) =  -657.633307005     A.U. after   18 cycles
 SCF Done:  E(RB3LYP) =  -657.633328574     A.U. after   20 cycles
 SCF Done:  E(RB3LYP) =  -657.633361481     A.U. after   15 cycles
 SCF Done:  E(RB3LYP) =  -657.633375498     A.U. after   15 cycles
 SCF Done:  E(RB3LYP) =  -657.633380356     A.U. after   16 cycles
 SCF Done:  E(RB3LYP) =  -657.633382414     A.U. after   11 cycles
 SCF Done:  E(RB3LYP) =  -657.633383621     A.U. after   10 cycles
 SCF Done:  E(RB3LYP) =  -657.633383871     A.U. after   10 cycles
 SCF Done:  E(RB3LYP) =  -657.633383936     A.U. after    9 cycles
 Optimization completed.
    -- Stationary point found.
 Normal termination of Gaussian 16 at Mon May 22 14:14:31 2023.

 ----------------------------------------------------------------------
 #N Geom=AllCheck Guess=TCheck SCRF=Check GenChk RB3LYP/6-31G(2df,p) Fr
 eq
 ----------------------------------------------------------------------

 Structure from the checkpoint file:  "CC1CC1CC1OCCCdCCdCC1O.chk"
 -------------------
 Title Card Required
 -------------------
 Charge =  0 Multiplicity = 1

                         Standard orientation:
 ---------------------------------------------------------------------
 Center     Atomic      Atomic             Coordinates (Angstroms)
 Number     Number       Type             X           Y           Z
 ---------------------------------------------------------------------
      1          6           0       -5.017709    1.435768   -0.105477
      2          6           0       -4.302886    0.198772    0.389015
      3          6           0       -4.755600   -1.178251   -0.025307
      4          6           0       -3.444055   -0.629770   -0.539699
      5          6           0       -2.133400   -1.224691   -0.080293
      6          6           0       -0.928009   -0.259950   -0.233476
      7          8           0        0.221608   -1.020487    0.091062
      8          6           0        1.452111   -0.413858   -0.288952
      9          6           0        2.609177   -1.258346    0.237197
     10          6           0        3.927380   -0.671132   -0.181375
     11          6           0        4.795202   -0.086590    0.649589
     12          6           0        6.069491    0.574640    0.271443
     13          6           0        6.319654    1.207617   -0.857046
     14          6           0       -1.031655    0.950528    0.619906
     15          8           0       -1.461867    2.134101    0.174256
     16          1           0       -5.900023    1.657788    0.504487
     17          1           0       -5.356323    1.309011   -1.139666
     18          1           0       -4.360377    2.312118   -0.069883
     19          1           0       -3.930598    0.274094    1.408262
     20          1           0       -5.581800   -1.254951   -0.724512
     21          1           0       -4.719159   -1.977438    0.707721
     22          1           0       -3.454790   -0.321805   -1.584642
     23          1           0       -1.886850   -2.124247   -0.657417
     24          1           0       -2.195541   -1.528275    0.970510
     25          1           0       -0.890830    0.068090   -1.293587
     26          1           0        1.516373    0.607041    0.118072
     27          1           0        1.501966   -0.331925   -1.387509
     28          1           0        2.490869   -2.280976   -0.144215
     29          1           0        2.539557   -1.310319    1.329153
     30          1           0        4.160893   -0.706156   -1.244690
     31          1           0        4.569920   -0.084720    1.718404
     32          1           0        6.825285    0.553215    1.063480
     33          1           0        5.685394    1.343023   -1.733924
     34          1           0       -0.833795    0.928385    1.683855
     35          1           0       -1.616301    2.090711   -0.779595
 ---------------------------------------------------------------------

 SCF Done:  E(RB3LYP) =  -657.633383936     A.U. after    3 cycles

 The electronic state is 1-A.
 Alpha  occ. eigenvalues --  -19.23175 -19.15720 -10.27602 -10.26834 -10.23349
 Alpha  occ. eigenvalues --  -10.20739 -10.20638 -10.20568 -10.19663 -10.19180
 Alpha  occ. eigenvalues --  -10.18219 -10.17066 -10.16649 -10.15345 -10.14380
 Alpha  occ. eigenvalues --   -1.11449  -1.04975  -0.88015  -0.81144  -0.78626
 Alpha  occ. eigenvalues --   -0.74435  -0.72928  -0.70682  -0.68270  -0.64625
 Alpha  occ. eigenvalues --   -0.61844  -0.59509  -0.58185  -0.56292  -0.55044
 Alpha  occ. eigenvalues --   -0.52640  -0.49920  -0.48727  -0.48421  -0.47175
 Alpha  occ. eigenvalues --   -0.46144  -0.45503  -0.43416  -0.42806  -0.42197
 Alpha  occ. eigenvalues --   -0.41429  -0.40787  -0.40252  -0.38771  -0.37710
 Alpha  occ. eigenvalues --   -0.36846  -0.36385  -0.35924  -0.34691  -0.33311
 Alpha  occ. eigenvalues --   -0.33118  -0.29732  -0.28805  -0.27743  -0.27440
 Alpha  occ. eigenvalues --   -0.19975  -0.13025
 Alpha virt. eigenvalues --   -0.11509   0.00924   0.02562   0.07209   0.08943
 Alpha virt. eigenvalues --    0.09193   0.10464   0.10596   0.11454   0.12357
 Alpha virt. eigenvalues --    0.12635   0.12967   0.13947   0.14790   0.14828

 Mulliken charges:
               1
     1  C   -0.416766
     2  C    0.034937
     3  C   -0.309583
     4  C   -0.012971
     5  C   -0.238047
     6  C    0.040001
     7  O   -0.251424
     8  C   -0.060977
     9  C   -0.256529
    10  C   -0.059154
    11  C   -0.065139
    12  C   -0.054543
    13  C   -0.332520
    14  C    0.034572
    15  O   -0.297457
    16  H    0.124693
    17  H    0.114002
    18  H    0.115610
    19  H    0.082607
    20  H    0.113543
    21  H    0.115147
    22  H    0.073851
    23  H    0.119127
    24  H    0.111059
    25  H    0.064075
    26  H    0.098109
    27  H    0.088921
    28  H    0.108006
    29  H    0.103202
    30  H    0.079855
    31  H    0.071696
    32  H    0.081104
    33  H    0.104512
    34  H    0.157260
    35  H    0.319223
 Sum of Mulliken charges =  -0.00000

 Dipole moment (field-independent basis, Debye):
    X=             -8.6956    Y=             -0.1948    Z=             -0.3432  Tot=              8.7045
 Quadrupole moment (field-independent basis, Debye-Ang):
   XX=           -132.8139   YY=            -96.1016   ZZ=            -86.3109
   XY=             -9.6744   XZ=              7.8533   YZ=             -1.3339

  Exact polarizability: 601.275  20.329 132.718 -36.056  -5.841 131.921
 Approx polarizability:******** 440.582 222.728******** -76.998 532.952

                      1                      2                      3
                      A                      A                      A
 Frequencies --     21.2720                28.0324                30.8469
 Red. masses --      5.2186                 5.1530                 2.6924
 Frc consts  --      0.0014                 0.0024                 0.0015
 IR Inten    --      1.2560                 1.1809                 0.3602

                      4                      5                      6
                      A                      A                      A
 Frequencies --     52.7143                63.1145                77.4428
 Red. masses --      3.4109                 3.6942                 3.4534
 Frc consts  --      0.0056                 0.0087                 0.0122
 IR Inten    --      1.5063                 4.5450                 0.1425

                      7                      8                      9
                      A                      A                      A
 Frequencies --     86.8531                96.3997               136.2605
 Red. masses --      2.6710                 2.8986                 2.8764
 Frc consts  --      0.0119                 0.0159                 0.0315
 IR Inten    --      0.7131                 0.4900                 3.0751

                     10                     11                     12
                      A                      A                      A
 Frequencies --    159.8183               186.7248               219.8246
 Red. masses --      3.0084                 2.0772                 1.9743
 Frc consts  --      0.0453                 0.0427                 0.0562
 IR Inten    --      3.8410                 0.1955                 2.0413

                     13                     14                     15
                      A                      A                      A
 Frequencies --    229.5799               236.2393               263.3104
 Red. masses --      1.1959                 3.2575                 2.6021
 Frc consts  --      0.0371                 0.1071                 0.1063
 IR Inten    --      1.4749                 1.4333                 5.0971

                     16                     17                     18
                      A                      A                      A
 Frequencies --    280.8055               291.0375               340.2426
 Red. masses --      2.4933                 2.3580                 3.1158
 Frc consts  --      0.1158                 0.1177                 0.2125
 IR Inten    --     27.0896                13.0292                34.5399

                     19                     20                     21
                      A                      A                      A
 Frequencies --    352.8473               391.0191               402.3128
 Red. masses --      2.5158                 2.9390                 2.6761
 Frc consts  --      0.1845                 0.2648                 0.2552
 IR Inten    --      6.9225                 1.0696                18.5434

                     22                     23                     24
                      A                      A                      A
 Frequencies --    423.5080               465.7822               533.3031
 Red. masses --      2.3500                 2.7031                 2.8234
 Frc consts  --      0.2483                 0.3455                 0.4731
 IR Inten    --     42.9409                33.5104               130.1591

                     25                     26                     27
                      A                      A                      A
 Frequencies --    552.2055               592.1992               629.9203
 Red. masses --      1.9602                 2.3617                 1.4484
 Frc consts  --      0.3522                 0.4880                 0.3386
 IR Inten    --      4.7930                16.9409                38.3287

                     28                     29                     30
                      A                      A                      A
 Frequencies --    649.8848               783.2902               796.3024
 Red. masses --      2.1014                 2.3428                 1.2099
 Frc consts  --      0.5229                 0.8469                 0.4520
 IR Inten    --    149.3130                16.0310               144.1194

                     31                     32                     33
                      A                      A                      A
 Frequencies --    811.4327               833.1282               859.1955
 Red. masses --      2.0132                 1.5226                 1.4375
 Frc consts  --      0.7810                 0.6227                 0.6252
 IR Inten    --     34.0797               318.1738                39.7133

                     34                     35                     36
                      A                      A                      A
 Frequencies --    877.3120               886.3706               903.2241
 Red. masses --      1.7669                 1.5737                 1.6213
 Frc consts  --      0.8012                 0.7284                 0.7793
 IR Inten    --   2127.3899               109.4669                41.8663

                     37                     38                     39
                      A                      A                      A
 Frequencies --    911.1127               944.2004               981.4619
 Red. masses --      1.6519                 1.7286                 2.0350
 Frc consts  --      0.8080                 0.9080                 1.1549
 IR Inten    --     37.4893                16.6007                13.6863

                     40                     41                     42
                      A                      A                      A
 Frequencies --    991.5771              1012.7553              1020.2126
 Red. masses --      2.7110                 1.3798                 2.0428
 Frc consts  --      1.5705                 0.8338                 1.2527
 IR Inten    --      3.3708                 4.9378                70.8225

                     43                     44                     45
                      A                      A                      A
 Frequencies --   1044.1653              1052.7903              1056.3124
 Red. masses --      2.2717                 2.3357                 1.4326
 Frc consts  --      1.4593                 1.5253                 0.9418
 IR Inten    --      4.2340                13.8192                10.4864

                     46                     47                     48
                      A                      A                      A
 Frequencies --   1085.3350              1087.7893              1097.3345
 Red. masses --      3.9291                 2.7474                 2.7659
 Frc consts  --      2.7269                 1.9154                 1.9623
 IR Inten    --      6.7104                 9.2256                11.5750

                     49                     50                     51
                      A                      A                      A
 Frequencies --   1113.3389              1123.7517              1128.0969
 Red. masses --      1.3401                 2.3563                 1.4328
 Frc consts  --      0.9787                 1.7532                 1.0743
 IR Inten    --      8.3413                72.0453                15.5753

                     52                     53                     54
                      A                      A                      A
 Frequencies --   1144.2838              1199.1768              1202.8871
 Red. masses --      1.4869                 1.7237                 1.5789
 Frc consts  --      1.1471                 1.4604                 1.3460
 IR Inten    --     25.0073                 5.0240               197.6111

                     55                     56                     57
                      A                      A                      A
 Frequencies --   1218.1245              1230.6305              1248.7616
 Red. masses --      1.2628                 1.5177                 1.6006
 Frc consts  --      1.1040                 1.3543                 1.4706
 IR Inten    --      5.0015               138.4679                39.9343

                     58                     59                     60
                      A                      A                      A
 Frequencies --   1268.8782              1282.3932              1292.6102
 Red. masses --      1.2389                 1.2043                 1.2611
 Frc consts  --      1.1753                 1.1669                 1.2415
 IR Inten    --     13.5846                85.2761                72.3535

                     61                     62                     63
                      A                      A                      A
 Frequencies --   1301.7613              1311.3478              1319.0139
 Red. masses --      1.1695                 1.7947                 1.2648
 Frc consts  --      1.1676                 1.8184                 1.2965
 IR Inten    --      1.6815               265.4765                 3.1262

                     64                     65                     66
                      A                      A                      A
 Frequencies --   1330.0404              1338.2641              1358.0633
 Red. masses --      1.2709                 1.3402                 1.3561
 Frc consts  --      1.3246                 1.4142                 1.4736
 IR Inten    --     23.1702                 3.2352                 5.3817

                     67                     68                     69
                      A                      A                      A
 Frequencies --   1379.2456              1413.1703              1418.8448
 Red. masses --      1.3462                 1.2403                 1.3890
 Frc consts  --      1.5088                 1.4594                 1.6474
 IR Inten    --    103.7722                 8.4307                 4.3507

                     70                     71                     72
                      A                      A                      A
 Frequencies --   1440.9144              1458.7041              1484.1383
 Red. masses --      1.5930                 1.6581                 1.0987
 Frc consts  --      1.9487                 2.0787                 1.4258
 IR Inten    --      2.0281               384.1236                10.7967

                     73                     74                     75
                      A                      A                      A
 Frequencies --   1484.8625              1492.3134              1497.0552
 Red. masses --      1.1922                 1.0559                 1.2680
 Frc consts  --      1.5487                 1.3854                 1.6743
 IR Inten    --    101.3226                 1.1771                 4.2845

                     76                     77                     78
                      A                      A                      A
 Frequencies --   1507.8804              1518.0044              1602.0071
 Red. masses --      1.2100                 1.0871                 7.2231
 Frc consts  --      1.6209                 1.4759                10.9220
 IR Inten    --      6.8110                13.6095               172.5965

                     79                     80                     81
                      A                      A                      A
 Frequencies --   1704.5224              2878.8510              2962.7024
 Red. masses --      5.7885                 1.0798                 1.0562
 Frc consts  --      9.9088                 5.2725                 5.4622
 IR Inten    --      1.5725                92.8746                30.1523

                     82                     83                     84
                      A                      A                      A
 Frequencies --   2998.1636              3022.2011              3023.9431
 Red. masses --      1.1018                 1.0626                 1.0353
 Frc consts  --      5.8353                 5.7185                 5.5776
 IR Inten    --     26.9592                31.7166                35.7980

                     85                     86                     87
                      A                      A                      A
 Frequencies --   3029.5459              3047.3034              3075.4416
 Red. masses --      1.0602                 1.0811                 1.1000
 Frc consts  --      5.7331                 5.9148                 6.1301
 IR Inten    --     24.8292                90.1431                16.1399

                     88                     89                     90
                      A                      A                      A
 Frequencies --   3077.1252              3087.9197              3091.9430
 Red. masses --      1.1006                 1.1007                 1.0998
 Frc consts  --      6.1402                 6.1838                 6.1950
 IR Inten    --      9.5627                37.4720                22.0532

                     91                     92                     93
                      A                      A                      A
 Frequencies --   3099.4252              3110.1390              3123.2032
 Red. masses --      1.0880                 1.0875                 1.0985
 Frc consts  --      6.1578                 6.1981                 6.3133
 IR Inten    --     65.0773                16.6568                35.4527

                     94                     95                     96
                      A                      A                      A
 Frequencies --   3128.4014              3132.4117              3136.9102
 Red. masses --      1.0566                 1.0871                 1.0873
 Frc consts  --      6.0924                 6.2846                 6.3038
 IR Inten    --     30.0800                25.1943                21.8735

                     97                     98                     99
                      A                      A                      A
 Frequencies --   3212.7441              3230.0616              3763.3510
 Red. masses --      1.1163                 1.0897                 1.0652
 Frc consts  --      6.7886                 6.6986                 8.8888
 IR Inten    --     11.3097                61.8722               247.3928

 - Thermochemistry -
 -------------------
 Temperature   298.150 Kelvin.  Pressure   1.00000 Atm.
 Atom     1 has atomic number  6 and mass  12.00000

 Molecular mass:   208.14633 amu.
 Principal axes and moments of inertia in atomic units:
                           1         2         3
     Eigenvalues --  1092.76879********************
           X            0.99999  -0.00296   0.00197
           Y            0.00299   0.99991  -0.01282
           Z           -0.00193   0.01282   0.99992
 This molecule is an asymmetric top.
 Rotational symmetry number  1.
 Warning -- assumption of classical behavior for rotation
           may cause significant error
 Rotational temperatures (Kelvin)      0.07926     0.00835     0.00781
 Rotational constants (GHZ):           1.65153     0.17389     0.16283
 Zero-point vibrational energy     782798.4 (Joules/Mol)
                                  187.09332 (Kcal/Mol)
 Warning -- explicit consideration of  26 degrees of freedom as
           vibrations may cause significant error
 Vibrational temperatures:     30.61    40.33    44.38    75.84    90.81
          (Kelvin)            111.42   124.96   138.70   196.05   229.94
                              268.66   316.28   330.31   339.90   378.84
                              404.02   418.74   489.53   507.67   562.59
                              578.84   609.33   670.16   767.30   794.50
                              852.04   906.31   935.04  1126.98  1145.70
                             1167.47  1198.69  1236.19  1262.26  1275.29
                             1299.54  1310.89  1358.49  1412.10  1426.66
                             1457.13  1467.86  1502.32  1514.73  1519.80
                             1561.55  1565.09  1578.82  1601.85  1616.83
                             1623.08  1646.37  1725.35  1730.69  1752.61
                             1770.60  1796.69  1825.63  1845.08  1859.78
                             1872.94  1886.74  1897.77  1913.63  1925.46
                             1953.95  1984.43  2033.24  2041.40  2073.15
                             2098.75  2135.34  2136.39  2147.11  2153.93
                             2169.50  2184.07  2304.93  2452.43  4142.02
                             4262.67  4313.69  4348.27  4350.78  4358.84
                             4384.39  4424.87  4427.30  4442.83  4448.62
                             4459.38  4474.80  4493.59  4501.07  4506.84
                             4513.31  4622.42  4647.34  5414.62

 Zero-point correction=                           0.298152 (Hartree/Particle)
 Thermal correction to Energy=                    0.316339
 Thermal correction to Enthalpy=                  0.317283
 Thermal correction to Gibbs Free Energy=         0.249251
 Sum of electronic and zero-point Energies=           -657.335232
 Sum of electronic and thermal Energies=              -657.317045
 Sum of electronic and thermal Enthalpies=            -657.316101
 Sum of electronic and thermal Free Energies=         -657.384133

                     E (Thermal)             CV                S
                      KCal/Mol        Cal/Mol-Kelvin    Cal/Mol-Kelvin
 Total                  198.506             65.315            143.185
 Electronic               0.000              0.000              0.000
 Translational            0.889              2.981             41.903
 Rotational               0.889              2.981             33.197
 Vibrational            196.728             59.353             68.085
 Vibration     1          0.593              1.985              6.512
 Vibration     2          0.593              1.984              5.964
 Vibration     3          0.594              1.984              5.774
 Vibration     4          0.596              1.977              4.713
 Vibration     5          0.597              1.972              4.357
 Vibration     6          0.599              1.964              3.955
 Vibration     7          0.601              1.958              3.730
 Vibration     8          0.603              1.952              3.526
 Vibration     9          0.614              1.917              2.856
 Vibration    10          0.622              1.892              2.552
 Vibration    11          0.632              1.858              2.260
 Vibration    12          0.647              1.811              1.961
 Vibration    13          0.652              1.796              1.882
 Vibration    14          0.655              1.785              1.831
 Vibration    15          0.670              1.740              1.640
 Vibration    16          0.680              1.709              1.529
 Vibration    17          0.687              1.690              1.468
 Vibration    18          0.720              1.595              1.211
 Vibration    19          0.729              1.569              1.153
 Vibration    20          0.759              1.489              0.996
 Vibration    21          0.768              1.465              0.954
 Vibration    22          0.786              1.419              0.880
 Vibration    23          0.823              1.326              0.749
 Vibration    24          0.888              1.176              0.580
 Vibration    25          0.908              1.135              0.540
 Vibration    26          0.950              1.048              0.463

                           ! Non-Optimized Parameters !
 Normal termination of Gaussian 16 at Mon May 22 16:32:05 2023.
