 Gaussian 16, Revision A.03,
 Gaussian 16:  ES64L-G16RevA.03 25-Dec-2016

 -----------------------------
 # opt freq b3lyp/6-31g(2df,p)
 -----------------------------

 -------------------
 Title Card Required
 -------------------
 Symbolic Z-matrix:
 Charge =  0 Multiplicity = 1

 SCF Done:  E(RB3LYP) =  -314.524510217     A.U. after   12 cycles
 SCF Done:  E(RB3LYP) =  -314.526553569     A.U. after   10 cycles
 SCF Done:  E(RB3LYP) =  -314.526844661     A.U. after    9 cycles
 SCF Done:  E(RB3LYP) =  -314.526933054     A.U. after    9 cycles
 SCF Done:  E(RB3LYP) =  -314.526962746     A.U. after    9 cycles
 SCF Done:  E(RB3LYP) =  -314.527029374     A.U. after   10 cycles
 SCF Done:  E(RB3LYP) =  -314.527066617     A.U. after    9 cycles
 SCF Done:  E(RB3LYP) =  -314.527083032     A.U. after    9 cycles
 SCF Done:  E(RB3LYP) =  -314.527085718     A.U. after    6 cycles
 SCF Done:  E(RB3LYP) =  -314.527090854     A.U. after    8 cycles
 SCF Done:  E(RB3LYP) =  -314.527091645     A.U. after    7 cycles
 SCF Done:  E(RB3LYP) =  -314.527091692     A.U. after    6 cycles
 Optimization completed.
    -- Stationary point found.
 Normal termination of Gaussian 16 at Sun May 28 10:08:00 2023.

 ----------------------------------------------------------------------
 #N Geom=AllCheck Guess=TCheck SCRF=Check GenChk RB3LYP/6-31G(2df,p) Fr
 eq
 ----------------------------------------------------------------------

 Structure from the checkpoint file:  "CC1CCCqCrqCrC1.chk"
 -------------------
 Title Card Required
 -------------------
 Charge =  0 Multiplicity = 1

                         Standard orientation:
 ---------------------------------------------------------------------
 Center     Atomic      Atomic             Coordinates (Angstroms)
 Number     Number       Type             X           Y           Z
 ---------------------------------------------------------------------
      1          6           0       -2.780948   -0.574683    0.169735
      2          6           0       -1.405993   -0.150801   -0.341594
      3          6           0       -0.999623    1.292349   -0.000986
      4          6           0        0.502721    1.327420   -0.322753
      5          6           0        1.054704   -0.098091    0.021115
      6          6           0        1.907617   -0.064791    1.298917
      7          6           0        1.898327   -0.646536   -1.140754
      8          6           0       -0.229833   -0.960801    0.235077
      9          1           0       -3.575918    0.044312   -0.260294
     10          1           0       -2.837965   -0.479466    1.260755
     11          1           0       -2.999328   -1.617783   -0.083774
     12          1           0       -1.394569   -0.253100   -1.436864
     13          1           0       -1.169326    1.472294    1.069579
     14          1           0       -1.574860    2.045898   -0.548538
     15          1           0        1.036077    2.114394    0.219531
     16          1           0        0.643323    1.531198   -1.390678
     17          1           0        2.822543    0.520250    1.150405
     18          1           0        2.203891   -1.075265    1.603559
     19          1           0        1.355302    0.383910    2.132163
     20          1           0        2.738592    0.019833   -1.367676
     21          1           0        1.299481   -0.746757   -2.052931
     22          1           0        2.310852   -1.633374   -0.901279
     23          1           0       -0.400424   -1.115748    1.308574
     24          1           0       -0.139500   -1.954999   -0.215084
 ---------------------------------------------------------------------

 SCF Done:  E(RB3LYP) =  -314.527091692     A.U. after    1 cycles

 The electronic state is 1-A.
 Alpha  occ. eigenvalues --  -10.18540 -10.17752 -10.16970 -10.16807 -10.16793
 Alpha  occ. eigenvalues --  -10.16631 -10.16598 -10.16588  -0.83939  -0.76682
 Alpha  occ. eigenvalues --   -0.71538  -0.67761  -0.67127  -0.61869  -0.55238
 Alpha  occ. eigenvalues --   -0.52291  -0.47305  -0.44913  -0.42478  -0.41707
 Alpha  occ. eigenvalues --   -0.41210  -0.40141  -0.39189  -0.37689  -0.35907
 Alpha  occ. eigenvalues --   -0.34722  -0.32564  -0.31722  -0.30740  -0.30571
 Alpha  occ. eigenvalues --   -0.30032  -0.29634
 Alpha virt. eigenvalues --    0.07859   0.10264   0.10934   0.13431   0.14560
 Alpha virt. eigenvalues --    0.14655   0.15488   0.16371   0.16673   0.17591
 Alpha virt. eigenvalues --    0.18080   0.18359   0.19356   0.19941   0.20505

 Mulliken charges:
               1
     1  C   -0.407074
     2  C    0.055288
     3  C   -0.202675
     4  C   -0.253380
     5  C    0.355982
     6  C   -0.431843
     7  C   -0.431596
     8  C   -0.246702
     9  H    0.109123
    10  H    0.109688
    11  H    0.109854
    12  H    0.066545
    13  H    0.089662
    14  H    0.087425
    15  H    0.087968
    16  H    0.089782
    17  H    0.106519
    18  H    0.107362
    19  H    0.106762
    20  H    0.107406
    21  H    0.107038
    22  H    0.106560
    23  H    0.084496
    24  H    0.085812
 Sum of Mulliken charges =   0.00000

 Dipole moment (field-independent basis, Debye):
    X=             -0.0546    Y=              0.0132    Z=             -0.0772  Tot=              0.0955
 Quadrupole moment (field-independent basis, Debye-Ang):
   XX=            -53.9634   YY=            -53.1768   ZZ=            -52.9850
   XY=             -0.0190   XZ=              0.2450   YZ=              0.0365

  Exact polarizability:  94.422  -0.064  81.279  -0.009  -0.181  78.305
 Approx polarizability: 118.148  -0.010 117.757   0.024  -0.161 117.721

                      1                      2                      3
                      A                      A                      A
 Frequencies --     29.9171               159.9537               235.2314
 Red. masses --      2.3605                 2.1063                 1.0585
 Frc consts  --      0.0012                 0.0318                 0.0345
 IR Inten    --      0.0012                 0.0002                 0.0020

                      4                      5                      6
                      A                      A                      A
 Frequencies --    254.7130               260.0269               293.4354
 Red. masses --      1.7682                 1.0944                 1.1485
 Frc consts  --      0.0676                 0.0436                 0.0583
 IR Inten    --      0.0309                 0.0024                 0.0026

                      7                      8                      9
                      A                      A                      A
 Frequencies --    320.4842               334.8023               402.7741
 Red. masses --      2.1133                 2.1824                 2.0010
 Frc consts  --      0.1279                 0.1441                 0.1913
 IR Inten    --      0.0193                 0.0113                 0.0500

                     10                     11                     12
                      A                      A                      A
 Frequencies --    417.0366               438.4558               519.4067
 Red. masses --      2.0894                 1.8196                 3.0910
 Frc consts  --      0.2141                 0.2061                 0.4913
 IR Inten    --      0.1686                 0.0710                 0.3405

                     13                     14                     15
                      A                      A                      A
 Frequencies --    567.2919               738.1749               819.6628
 Red. masses --      2.8148                 2.2438                 2.3651
 Frc consts  --      0.5337                 0.7204                 0.9362
 IR Inten    --      0.1786                 0.2861                 0.0201

                     16                     17                     18
                      A                      A                      A
 Frequencies --    868.1252               873.5767               908.7929
 Red. masses --      2.0760                 1.8341                 1.8150
 Frc consts  --      0.9218                 0.8246                 0.8832
 IR Inten    --      0.4924                 0.2456                 0.3445

                     19                     20                     21
                      A                      A                      A
 Frequencies --    938.3871               949.1060               956.3394
 Red. masses --      1.7257                 1.4547                 1.5230
 Frc consts  --      0.8953                 0.7721                 0.8207
 IR Inten    --      0.2915                 0.1443                 0.0579

                     22                     23                     24
                      A                      A                      A
 Frequencies --    972.9060              1007.5204              1016.7078
 Red. masses --      1.7971                 1.7098                 1.3062
 Frc consts  --      1.0022                 1.0226                 0.7955
 IR Inten    --      0.3654                 1.1574                 0.5608

                     25                     26                     27
                      A                      A                      A
 Frequencies --   1053.5902              1087.9899              1114.5438
 Red. masses --      1.2535                 1.9011                 1.6892
 Frc consts  --      0.8198                 1.3259                 1.2363
 IR Inten    --      0.6054                 0.7619                 0.0674

                     28                     29                     30
                      A                      A                      A
 Frequencies --   1149.5404              1198.6473              1222.5527
 Red. masses --      1.9090                 1.9623                 2.2345
 Frc consts  --      1.4863                 1.6611                 1.9677
 IR Inten    --      0.5756                 3.4456                 2.6495

                     31                     32                     33
                      A                      A                      A
 Frequencies --   1252.0623              1261.1187              1280.1455
 Red. masses --      1.8558                 1.6048                 1.5345
 Frc consts  --      1.7141                 1.5038                 1.4817
 IR Inten    --      3.0137                 0.9923                 0.8170

                     34                     35                     36
                      A                      A                      A
 Frequencies --   1303.5021              1330.8291              1344.3596
 Red. masses --      1.5418                 1.4209                 1.3331
 Frc consts  --      1.5435                 1.4827                 1.4196
 IR Inten    --      0.9317                 2.0086                 1.2454

                     37                     38                     39
                      A                      A                      A
 Frequencies --   1355.0498              1387.6145              1399.2969
 Red. masses --      1.3642                 1.5564                 1.2465
 Frc consts  --      1.4759                 1.7657                 1.4380
 IR Inten    --      1.2196                 2.6031                 4.6044

                     40                     41                     42
                      A                      A                      A
 Frequencies --   1411.1251              1421.8453              1484.6394
 Red. masses --      1.2510                 1.2358                 1.0508
 Frc consts  --      1.4677                 1.4719                 1.3646
 IR Inten    --      1.6126                 0.5189                 0.1678

                     43                     44                     45
                      A                      A                      A
 Frequencies --   1485.8274              1487.3287              1495.2790
 Red. masses --      1.0715                 1.0762                 1.0633
 Frc consts  --      1.3937                 1.4027                 1.4007
 IR Inten    --      1.7977                 0.4187                 2.3736

                     46                     47                     48
                      A                      A                      A
 Frequencies --   1497.3660              1499.5134              1504.4853
 Red. masses --      1.0532                 1.0519                 1.0579
 Frc consts  --      1.3913                 1.3936                 1.4108
 IR Inten    --      1.7831                 6.5903                 2.6553

                     49                     50                     51
                      A                      A                      A
 Frequencies --   1507.2649              1508.5306              2989.5724
 Red. masses --      1.0750                 1.0772                 1.0811
 Frc consts  --      1.4390                 1.4443                 5.6928
 IR Inten    --      4.5674                 1.7572                 7.8495

                     52                     53                     54
                      A                      A                      A
 Frequencies --   3012.7664              3015.2534              3017.0452
 Red. masses --      1.0645                 1.0359                 1.0494
 Frc consts  --      5.6931                 5.5488                 5.6279
 IR Inten    --     18.5619                17.4652                23.2885

                     55                     56                     57
                      A                      A                      A
 Frequencies --   3020.5796              3024.7204              3032.5364
 Red. masses --      1.0388                 1.0485                 1.0623
 Frc consts  --      5.5843                 5.6518                 5.7561
 IR Inten    --     34.9876                55.1968                26.2250

                     58                     59                     60
                      A                      A                      A
 Frequencies --   3068.1206              3071.3815              3078.7871
 Red. masses --      1.0990                 1.0951                 1.1031
 Frc consts  --      6.0952                 6.0864                 6.1605
 IR Inten    --     29.3710                16.5993                13.8712

                     61                     62                     63
                      A                      A                      A
 Frequencies --   3084.2904              3086.7968              3088.6042
 Red. masses --      1.1017                 1.1014                 1.1007
 Frc consts  --      6.1749                 6.1829                 6.1864
 IR Inten    --      0.2282                 4.7037                59.6798

                     64                     65                     66
                      A                      A                      A
 Frequencies --   3089.3792              3089.6432              3092.0699
 Red. masses --      1.1009                 1.1010                 1.1012
 Frc consts  --      6.1909                 6.1922                 6.2030
 IR Inten    --     43.2211               107.5072                37.9799

 - Thermochemistry -
 -------------------
 Temperature   298.150 Kelvin.  Pressure   1.00000 Atm.
 Atom     1 has atomic number  6 and mass  12.00000

 Molecular mass:   112.12520 amu.
 Principal axes and moments of inertia in atomic units:
                           1         2         3
     Eigenvalues --   542.064241297.771881383.01823
           X            0.99999   0.00138  -0.00320
           Y           -0.00134   0.99992   0.01237
           Z            0.00322  -0.01237   0.99992
 This molecule is an asymmetric top.
 Rotational symmetry number  1.
 Warning -- assumption of classical behavior for rotation
           may cause significant error
 Rotational temperatures (Kelvin)      0.15979     0.06674     0.06263
 Rotational constants (GHZ):           3.32939     1.39065     1.30493
 Zero-point vibrational energy     587297.2 (Joules/Mol)
                                  140.36740 (Kcal/Mol)
 Warning -- explicit consideration of  13 degrees of freedom as
           vibrations may cause significant error
 Vibrational temperatures:     43.04   230.14   338.45   366.48   374.12
          (Kelvin)            422.19   461.11   481.71   579.50   600.02
                              630.84   747.31   816.21  1062.07  1179.31
                             1249.04  1256.88  1307.55  1350.13  1365.55
                             1375.96  1399.79  1449.60  1462.82  1515.88
                             1565.37  1603.58  1653.93  1724.59  1758.98
                             1801.44  1814.47  1841.84  1875.45  1914.77
                             1934.23  1949.61  1996.47  2013.28  2030.29
                             2045.72  2136.06  2137.77  2139.93  2151.37
                             2154.38  2157.47  2164.62  2168.62  2170.44
                             4301.33  4334.70  4338.28  4340.86  4345.94
                             4351.90  4363.14  4414.34  4419.03  4429.69
                             4437.61  4441.21  4443.81  4444.93  4445.31
                             4448.80

 Zero-point correction=                           0.223690 (Hartree/Particle)
 Thermal correction to Energy=                    0.232825
 Thermal correction to Enthalpy=                  0.233769
 Thermal correction to Gibbs Free Energy=         0.190036
 Sum of electronic and zero-point Energies=           -314.303402
 Sum of electronic and thermal Energies=              -314.294266
 Sum of electronic and thermal Enthalpies=            -314.293322
 Sum of electronic and thermal Free Energies=         -314.337056

                     E (Thermal)             CV                S
                      KCal/Mol        Cal/Mol-Kelvin    Cal/Mol-Kelvin
 Total                  146.100             35.689             92.045
 Electronic               0.000              0.000              0.000
 Translational            0.889              2.981             40.059
 Rotational               0.889              2.981             28.366
 Vibrational            144.323             29.727             23.620
 Vibration     1          0.594              1.984              5.835
 Vibration     2          0.622              1.891              2.550
 Vibration     3          0.655              1.787              1.839
 Vibration     4          0.665              1.755              1.698
 Vibration     5          0.668              1.746              1.662
 Vibration     6          0.688              1.686              1.454
 Vibration     7          0.706              1.634              1.308
 Vibration     8          0.716              1.606              1.237
 Vibration     9          0.768              1.464              0.953
 Vibration    10          0.780              1.433              0.902
 Vibration    11          0.799              1.386              0.831
 Vibration    12          0.874              1.207              0.611
 Vibration    13          0.923              1.102              0.509

 Optimization completed.
    -- Stationary point found.
 Normal termination of Gaussian 16 at Sun May 28 10:46:14 2023.
