 Gaussian 16, Revision A.03,
 Gaussian 16:  ES64L-G16RevA.03 25-Dec-2016

 -----------------------------
 # opt freq b3lyp/6-31g(2df,p)
 -----------------------------

 -------------------
 Title Card Required
 -------------------
 Symbolic Z-matrix:
 Charge =  0 Multiplicity = 1

 SCF Done:  E(RB3LYP) =  -352.580384439     A.U. after   12 cycles
 SCF Done:  E(RB3LYP) =  -352.586910278     A.U. after   10 cycles
 SCF Done:  E(RB3LYP) =  -352.587817225     A.U. after   10 cycles
 SCF Done:  E(RB3LYP) =  -352.588031374     A.U. after    9 cycles
 SCF Done:  E(RB3LYP) =  -352.588069782     A.U. after    8 cycles
 SCF Done:  E(RB3LYP) =  -352.588079647     A.U. after    8 cycles
 SCF Done:  E(RB3LYP) =  -352.588083483     A.U. after    7 cycles
 SCF Done:  E(RB3LYP) =  -352.588084209     A.U. after    6 cycles
 SCF Done:  E(RB3LYP) =  -352.588084343     A.U. after    5 cycles
 SCF Done:  E(RB3LYP) =  -352.588084373     A.U. after    5 cycles
 Optimization completed.
    -- Stationary point found.
 Normal termination of Gaussian 16 at Mon May 29 00:14:58 2023.

 ----------------------------------------------------------------------
 #N Geom=AllCheck Guess=TCheck SCRF=Check GenChk RB3LYP/6-31G(2df,p) Fr
 eq
 ----------------------------------------------------------------------

 Structure from the checkpoint file:  "CC1CC2CqCrC1C2C.chk"
 -------------------
 Title Card Required
 -------------------
 Charge =  0 Multiplicity = 1

                         Standard orientation:
 ---------------------------------------------------------------------
 Center     Atomic      Atomic             Coordinates (Angstroms)
 Number     Number       Type             X           Y           Z
 ---------------------------------------------------------------------
      1          6           0        2.414320   -1.011525   -0.406898
      2          6           0        1.376393    0.095442   -0.220608
      3          6           0        0.885889    0.319814    1.255885
      4          6           0       -0.636045    0.176224    1.045697
      5          6           0       -0.881752    0.983371   -0.269663
      6          6           0       -0.516198    2.456301   -0.397962
      7          6           0       -0.002564   -0.159780   -0.875951
      8          6           0       -0.687985   -1.111317    0.161627
      9          6           0       -2.047590   -1.706653   -0.188506
     10          1           0        3.331897   -0.781580    0.145918
     11          1           0        2.684434   -1.123671   -1.463050
     12          1           0        2.053804   -1.982261   -0.051617
     13          1           0        1.807691    1.019847   -0.619427
     14          1           0        1.176044    1.295309    1.656513
     15          1           0        1.274035   -0.444456    1.937415
     16          1           0       -1.276928    0.297223    1.921961
     17          1           0       -1.917954    0.861478   -0.591460
     18          1           0        0.496814    2.684888   -0.057209
     19          1           0       -1.205466    3.072932    0.190153
     20          1           0       -0.594713    2.784906   -1.440779
     21          1           0       -0.008485   -0.378865   -1.946657
     22          1           0       -0.047843   -1.922126    0.525969
     23          1           0       -2.764373   -0.973109   -0.566747
     24          1           0       -2.496910   -2.179381    0.692223
     25          1           0       -1.938863   -2.482388   -0.954929
 ---------------------------------------------------------------------

 SCF Done:  E(RB3LYP) =  -352.588084373     A.U. after    1 cycles

 The electronic state is 1-A.
 Alpha  occ. eigenvalues --  -10.17875 -10.17832 -10.17814 -10.17803 -10.17706
 Alpha  occ. eigenvalues --  -10.17004 -10.16942 -10.16754 -10.16682  -0.88160
 Alpha  occ. eigenvalues --   -0.75525  -0.73555  -0.70325  -0.67318  -0.63388
 Alpha  occ. eigenvalues --   -0.59031  -0.53546  -0.50740  -0.48501  -0.45592
 Alpha  occ. eigenvalues --   -0.45099  -0.41739  -0.39932  -0.39665  -0.38895
 Alpha  occ. eigenvalues --   -0.37694  -0.37023  -0.34851  -0.34533  -0.32734
 Alpha  occ. eigenvalues --   -0.31857  -0.29812  -0.28631  -0.28139  -0.27780
 Alpha virt. eigenvalues --    0.09311   0.09991   0.10808   0.12717   0.14365
 Alpha virt. eigenvalues --    0.14736   0.15486   0.16237   0.16321   0.16485
 Alpha virt. eigenvalues --    0.16965   0.17959   0.18158   0.19085   0.19629

 Mulliken charges:
               1
     1  C   -0.420624
     2  C    0.050385
     3  C   -0.241336
     4  C   -0.039791
     5  C    0.044933
     6  C   -0.440174
     7  C   -0.047270
     8  C    0.056984
     9  C   -0.439171
    10  H    0.110610
    11  H    0.108687
    12  H    0.114757
    13  H    0.064892
    14  H    0.090165
    15  H    0.089867
    16  H    0.046898
    17  H    0.066238
    18  H    0.116742
    19  H    0.111730
    20  H    0.112415
    21  H    0.044189
    22  H    0.055712
    23  H    0.117580
    24  H    0.112585
    25  H    0.112998
 Sum of Mulliken charges =  -0.00000

 Dipole moment (field-independent basis, Debye):
    X=             -0.0949    Y=              0.0439    Z=             -0.0507  Tot=              0.1162
 Quadrupole moment (field-independent basis, Debye-Ang):
   XX=            -58.1868   YY=            -58.2002   ZZ=            -57.9171
   XY=              0.0629   XZ=              0.0370   YZ=             -0.1569

  Exact polarizability:  96.979   0.127  95.872  -0.086   0.269  84.491
 Approx polarizability: 131.635  -0.018 132.983  -0.094  -0.405 129.883

                      1                      2                      3
                      A                      A                      A
 Frequencies --    163.5268               181.2864               197.6134
 Red. masses --      1.5396                 1.0230                 1.6716
 Frc consts  --      0.0243                 0.0198                 0.0385
 IR Inten    --      0.0191                 0.0068                 0.0703

                      4                      5                      6
                      A                      A                      A
 Frequencies --    211.1005               229.9481               236.9195
 Red. masses --      1.0648                 1.9800                 2.6993
 Frc consts  --      0.0280                 0.0617                 0.0893
 IR Inten    --      0.0134                 0.0847                 0.1257

                      7                      8                      9
                      A                      A                      A
 Frequencies --    280.4247               318.6752               337.7318
 Red. masses --      2.2411                 2.3806                 2.4164
 Frc consts  --      0.1038                 0.1424                 0.1624
 IR Inten    --      0.0668                 0.0068                 0.0219

                     10                     11                     12
                      A                      A                      A
 Frequencies --    454.7495               520.2352               570.0047
 Red. masses --      2.1743                 3.1209                 3.0359
 Frc consts  --      0.2649                 0.4977                 0.5812
 IR Inten    --      0.1167                 0.7001                 1.5956

                     13                     14                     15
                      A                      A                      A
 Frequencies --    646.9993               714.3193               791.7856
 Red. masses --      3.2037                 2.8394                 2.0525
 Frc consts  --      0.7901                 0.8536                 0.7582
 IR Inten    --      0.0718                 2.1699                 0.6705

                     16                     17                     18
                      A                      A                      A
 Frequencies --    811.9889               818.2047               856.3645
 Red. masses --      2.2538                 2.6884                 2.1890
 Frc consts  --      0.8755                 1.0604                 0.9458
 IR Inten    --      0.9667                 0.0660                 0.1422

                     19                     20                     21
                      A                      A                      A
 Frequencies --    909.8478               933.8951               948.8399
 Red. masses --      2.0381                 1.3308                 2.1907
 Frc consts  --      0.9940                 0.6838                 1.1621
 IR Inten    --      0.3467                 1.1775                 0.8980

                     22                     23                     24
                      A                      A                      A
 Frequencies --    990.6758              1020.8178              1029.5419
 Red. masses --      2.9757                 1.2075                 1.3831
 Frc consts  --      1.7207                 0.7414                 0.8638
 IR Inten    --      0.8241                 1.1363                 1.3884

                     25                     26                     27
                      A                      A                      A
 Frequencies --   1040.4504              1060.6397              1064.2081
 Red. masses --      1.3759                 1.4942                 1.2929
 Frc consts  --      0.8776                 0.9904                 0.8627
 IR Inten    --      2.0018                 1.9200                 0.6915

                     28                     29                     30
                      A                      A                      A
 Frequencies --   1076.3619              1103.5278              1129.5092
 Red. masses --      1.3662                 2.1161                 1.8886
 Frc consts  --      0.9326                 1.5183                 1.4196
 IR Inten    --      1.2727                 0.3228                 1.1943

                     31                     32                     33
                      A                      A                      A
 Frequencies --   1157.1246              1168.6751              1196.9596
 Red. masses --      2.0272                 2.3164                 1.6987
 Frc consts  --      1.5992                 1.8640                 1.4339
 IR Inten    --      0.2005                 0.6093                 0.3409

                     34                     35                     36
                      A                      A                      A
 Frequencies --   1209.1454              1232.2194              1255.3208
 Red. masses --      1.7323                 1.7048                 1.5586
 Frc consts  --      1.4922                 1.5251                 1.4471
 IR Inten    --      0.9843                 0.4382                 0.6063

                     37                     38                     39
                      A                      A                      A
 Frequencies --   1271.9698              1284.3280              1311.9844
 Red. masses --      1.4927                 1.6270                 1.5518
 Frc consts  --      1.4229                 1.5812                 1.5738
 IR Inten    --      0.4362                 0.3319                 0.4206

                     40                     41                     42
                      A                      A                      A
 Frequencies --   1323.6804              1381.6790              1397.3469
 Red. masses --      1.4061                 1.3847                 1.2813
 Frc consts  --      1.4515                 1.5575                 1.4740
 IR Inten    --      1.6333                 3.7640                 4.4918

                     43                     44                     45
                      A                      A                      A
 Frequencies --   1404.0216              1411.4979              1413.9684
 Red. masses --      1.4420                 1.2437                 1.2640
 Frc consts  --      1.6748                 1.4600                 1.4890
 IR Inten    --      3.1596                 3.3335                 3.0159

                     46                     47                     48
                      A                      A                      A
 Frequencies --   1425.5377              1492.0423              1497.0407
 Red. masses --      1.2529                 1.0660                 1.0478
 Frc consts  --      1.5001                 1.3982                 1.3836
 IR Inten    --      2.1387                 1.6107                 1.9560

                     49                     50                     51
                      A                      A                      A
 Frequencies --   1497.9716              1499.1410              1501.1526
 Red. masses --      1.0477                 1.0502                 1.0503
 Frc consts  --      1.3851                 1.3907                 1.3944
 IR Inten    --      2.3952                 2.6484                 2.0811

                     52                     53                     54
                      A                      A                      A
 Frequencies --   1503.3748              1510.9748              3025.5300
 Red. masses --      1.0501                 1.0743                 1.0392
 Frc consts  --      1.3983                 1.4451                 5.6045
 IR Inten    --      3.7216                 2.9151                13.6641

                     55                     56                     57
                      A                      A                      A
 Frequencies --   3028.5801              3029.2122              3035.5118
 Red. masses --      1.0410                 1.0399                 1.0822
 Frc consts  --      5.6256                 5.6224                 5.8751
 IR Inten    --     33.4386                31.4146                42.8359

                     58                     59                     60
                      A                      A                      A
 Frequencies --   3037.9377              3045.0651              3074.9457
 Red. masses --      1.0747                 1.0623                 1.0855
 Frc consts  --      5.8436                 5.8037                 6.0472
 IR Inten    --     16.9230                43.6679                 8.9112

                     61                     62                     63
                      A                      A                      A
 Frequencies --   3080.6047              3084.4343              3084.8502
 Red. masses --      1.0880                 1.1008                 1.1014
 Frc consts  --      6.0833                 6.1703                 6.1753
 IR Inten    --     56.2433                10.9296                16.9516

                     64                     65                     66
                      A                      A                      A
 Frequencies --   3085.1730              3088.9433              3090.3096
 Red. masses --      1.1017                 1.0985                 1.0930
 Frc consts  --      6.1784                 6.1755                 6.1499
 IR Inten    --     61.6999                47.7305                18.2076

                     67                     68                     69
                      A                      A                      A
 Frequencies --   3099.4905              3110.3733              3117.2210
 Red. masses --      1.1001                 1.0977                 1.0957
 Frc consts  --      6.2269                 6.2569                 6.2728
 IR Inten    --     42.1960                29.4416                66.0907

 - Thermochemistry -
 -------------------
 Temperature   298.150 Kelvin.  Pressure   1.00000 Atm.
 Atom     1 has atomic number  6 and mass  12.00000

 Molecular mass:   124.12520 amu.
 Principal axes and moments of inertia in atomic units:
                           1         2         3
     Eigenvalues --   952.022721064.802821527.72372
           X            0.99999   0.00282   0.00435
           Y           -0.00282   1.00000  -0.00071
           Z           -0.00435   0.00070   0.99999
 This molecule is an asymmetric top.
 Rotational symmetry number  1.
 Warning -- assumption of classical behavior for rotation
           may cause significant error
 Rotational temperatures (Kelvin)      0.09098     0.08134     0.05669
 Rotational constants (GHZ):           1.89569     1.69491     1.18133
 Zero-point vibrational energy     604805.2 (Joules/Mol)
                                  144.55191 (Kcal/Mol)
 Warning -- explicit consideration of  12 degrees of freedom as
           vibrations may cause significant error
 Vibrational temperatures:    235.28   260.83   284.32   303.73   330.84
          (Kelvin)            340.87   403.47   458.50   485.92   654.28
                              748.50   820.11   930.89  1027.75  1139.20
                             1168.27  1177.21  1232.12  1309.07  1343.67
                             1365.17  1425.36  1468.73  1481.28  1496.98
                             1526.02  1531.16  1548.64  1587.73  1625.11
                             1664.84  1681.46  1722.16  1739.69  1772.89
                             1806.13  1830.08  1847.86  1887.65  1904.48
                             1987.93  2010.47  2020.07  2030.83  2034.39
                             2051.03  2146.72  2153.91  2155.25  2156.93
                             2159.82  2163.02  2173.96  4353.06  4357.45
                             4358.36  4367.42  4370.91  4381.17  4424.16
                             4432.30  4437.81  4438.41  4438.88  4444.30
                             4446.27  4459.48  4475.13  4484.99

 Zero-point correction=                           0.230358 (Hartree/Particle)
 Thermal correction to Energy=                    0.239566
 Thermal correction to Enthalpy=                  0.240510
 Thermal correction to Gibbs Free Energy=         0.197319
 Sum of electronic and zero-point Energies=           -352.357726
 Sum of electronic and thermal Energies=              -352.348518
 Sum of electronic and thermal Enthalpies=            -352.347574
 Sum of electronic and thermal Free Energies=         -352.390765

                     E (Thermal)             CV                S
                      KCal/Mol        Cal/Mol-Kelvin    Cal/Mol-Kelvin
 Total                  150.330             37.008             90.904
 Electronic               0.000              0.000              0.000
 Translational            0.889              2.981             40.362
 Rotational               0.889              2.981             28.828
 Vibrational            148.553             31.047             21.713
 Vibration     1          0.623              1.887              2.509
 Vibration     2          0.630              1.865              2.315
 Vibration     3          0.637              1.843              2.155
 Vibration     4          0.643              1.824              2.034
 Vibration     5          0.652              1.795              1.879
 Vibration     6          0.656              1.784              1.826
 Vibration     7          0.680              1.710              1.531
 Vibration     8          0.705              1.638              1.317
 Vibration     9          0.718              1.600              1.223
 Vibration    10          0.813              1.350              0.782
 Vibration    11          0.875              1.205              0.609
 Vibration    12          0.926              1.096              0.504

 Optimization completed.
    -- Stationary point found.
 Normal termination of Gaussian 16 at Mon May 29 00:59:30 2023.
