 Gaussian 16, Revision A.03,
 Gaussian 16:  ES64L-G16RevA.03 25-Dec-2016

 -----------------------------
 # opt freq b3lyp/6-31g(2df,p)
 -----------------------------

 -------------------
 Title Card Required
 -------------------
 Symbolic Z-matrix:
 Charge =  0 Multiplicity = 1

 SCF Done:  E(RB3LYP) =  -313.264471622     A.U. after   12 cycles
 SCF Done:  E(RB3LYP) =  -313.270182822     A.U. after   10 cycles
 SCF Done:  E(RB3LYP) =  -313.271077578     A.U. after   10 cycles
 SCF Done:  E(RB3LYP) =  -313.271261319     A.U. after    9 cycles
 SCF Done:  E(RB3LYP) =  -313.271318559     A.U. after    9 cycles
 SCF Done:  E(RB3LYP) =  -313.271331203     A.U. after    8 cycles
 SCF Done:  E(RB3LYP) =  -313.271332287     A.U. after    6 cycles
 Optimization completed.
    -- Stationary point found.
 Normal termination of Gaussian 16 at Sun May 28 15:07:13 2023.

 ----------------------------------------------------------------------
 #N Geom=AllCheck Guess=TCheck SCRF=Check GenChk RB3LYP/6-31G(2df,p) Fr
 eq
 ----------------------------------------------------------------------

 Structure from the checkpoint file:  "CC1C2CCC1C2C.chk"
 -------------------
 Title Card Required
 -------------------
 Charge =  0 Multiplicity = 1

                         Standard orientation:
 ---------------------------------------------------------------------
 Center     Atomic      Atomic             Coordinates (Angstroms)
 Number     Number       Type             X           Y           Z
 ---------------------------------------------------------------------
      1          6           0       -2.470320    0.588607   -0.000067
      2          6           0       -1.263871   -0.342858   -0.000124
      3          6           0       -0.112222   -0.078091   -1.026229
      4          6           0        0.782486   -1.310957   -0.784190
      5          6           0        0.781734   -1.311730    0.783883
      6          6           0       -0.112448   -0.078588    1.026203
      7          6           0        0.445739    0.960214    0.000244
      8          6           0        1.904099    1.397014    0.000321
      9          1           0       -3.093746    0.408082   -0.883081
     10          1           0       -2.204233    1.648923    0.000285
     11          1           0       -3.094258    0.407463    0.882443
     12          1           0       -1.626151   -1.378645   -0.000368
     13          1           0       -0.318598    0.195242   -2.063250
     14          1           0        1.783955   -1.201297   -1.209138
     15          1           0        0.343971   -2.220926   -1.203914
     16          1           0        1.782837   -1.202925    1.209845
     17          1           0        0.342428   -2.221923    1.202338
     18          1           0       -0.319089    0.194443    2.063256
     19          1           0       -0.181380    1.854197    0.000368
     20          1           0        2.605580    0.558577    0.000628
     21          1           0        2.123658    2.008813    0.882886
     22          1           0        2.123845    2.008306   -0.882552
 ---------------------------------------------------------------------

 SCF Done:  E(RB3LYP) =  -313.271332287     A.U. after    1 cycles

 The electronic state is 1-A.
 Alpha  occ. eigenvalues --  -10.17944 -10.17855 -10.17852 -10.17819 -10.17193
 Alpha  occ. eigenvalues --  -10.17175 -10.16959 -10.16747  -0.88050  -0.73871
 Alpha  occ. eigenvalues --   -0.73023  -0.67820  -0.67006  -0.58946  -0.54464
 Alpha  occ. eigenvalues --   -0.50948  -0.49145  -0.45294  -0.44803  -0.41747
 Alpha  occ. eigenvalues --   -0.39465  -0.38472  -0.37445  -0.35811  -0.34848
 Alpha  occ. eigenvalues --   -0.33402  -0.33057  -0.30555  -0.28809  -0.28360
 Alpha  occ. eigenvalues --   -0.27912
 Alpha virt. eigenvalues --    0.09309   0.10032   0.11811   0.13217   0.14371
 Alpha virt. eigenvalues --    0.14877   0.15705   0.16321   0.17409   0.17621
 Alpha virt. eigenvalues --    0.18056   0.18591   0.20101   0.20559   0.20652

 Mulliken charges:
               1
     1  C   -0.439222
     2  C    0.062881
     3  C   -0.035930
     4  C   -0.218101
     5  C   -0.218097
     6  C   -0.035939
     7  C    0.054986
     8  C   -0.438634
     9  H    0.113053
    10  H    0.117665
    11  H    0.113055
    12  H    0.053476
    13  H    0.047466
    14  H    0.092741
    15  H    0.091608
    16  H    0.092693
    17  H    0.091656
    18  H    0.047467
    19  H    0.066531
    20  H    0.116137
    21  H    0.112248
    22  H    0.112259
 Sum of Mulliken charges =  -0.00000

 Dipole moment (field-independent basis, Debye):
    X=             -0.0779    Y=              0.0946    Z=             -0.0000  Tot=              0.1225
 Quadrupole moment (field-independent basis, Debye-Ang):
   XX=            -51.6142   YY=            -51.2179   ZZ=            -51.3815
   XY=              0.2402   XZ=             -0.0004   YZ=             -0.0004

  Exact polarizability:  88.522   0.458  80.490  -0.000   0.000  75.202
 Approx polarizability: 117.721   1.224 116.149  -0.001   0.000 114.022

                      1                      2                      3
                      A                      A                      A
 Frequencies --    180.1486               186.4835               233.2767
 Red. masses --      1.0405                 1.0337                 2.7649
 Frc consts  --      0.0199                 0.0212                 0.0886
 IR Inten    --      0.0006                 0.0061                 0.0835

                      4                      5                      6
                      A                      A                      A
 Frequencies --    250.3332               289.9999               296.8157
 Red. masses --      2.3701                 2.0185                 2.6935
 Frc consts  --      0.0875                 0.1000                 0.1398
 IR Inten    --      0.1825                 0.0022                 0.1041

                      7                      8                      9
                      A                      A                      A
 Frequencies --    363.4956               484.3021               573.9734
 Red. masses --      1.7577                 3.0017                 2.9123
 Frc consts  --      0.1368                 0.4148                 0.5653
 IR Inten    --      0.0213                 0.1080                 1.4342

                     10                     11                     12
                      A                      A                      A
 Frequencies --    676.9320               720.0100               784.5414
 Red. masses --      3.9060                 2.6824                 1.8954
 Frc consts  --      1.0546                 0.8193                 0.6874
 IR Inten    --      0.0080                 2.3642                 0.7025

                     13                     14                     15
                      A                      A                      A
 Frequencies --    795.0583               849.6617               861.3118
 Red. masses --      2.6427                 1.2089                 2.2696
 Frc consts  --      0.9842                 0.5142                 0.9920
 IR Inten    --      0.0185                 0.5837                 0.0515

                     16                     17                     18
                      A                      A                      A
 Frequencies --    904.1602               937.9497               958.3715
 Red. masses --      3.0354                 1.7496                 2.9919
 Frc consts  --      1.4620                 0.9069                 1.6190
 IR Inten    --      0.1077                 1.1785                 0.7388

                     19                     20                     21
                      A                      A                      A
 Frequencies --    990.0475               993.9477              1032.0092
 Red. masses --      1.2341                 2.5194                 1.4558
 Frc consts  --      0.7127                 1.4665                 0.9135
 IR Inten    --      0.7405                 0.0851                 1.1577

                     22                     23                     24
                      A                      A                      A
 Frequencies --   1058.5638              1060.5640              1072.1934
 Red. masses --      1.2246                 1.4887                 1.2515
 Frc consts  --      0.8085                 0.9866                 0.8477
 IR Inten    --      1.4486                 2.6153                 0.1552

                     25                     26                     27
                      A                      A                      A
 Frequencies --   1084.8349              1147.1544              1163.2304
 Red. masses --      1.5549                 1.8192                 2.3801
 Frc consts  --      1.0781                 1.4105                 1.8975
 IR Inten    --      0.7550                 0.3698                 1.6950

                     28                     29                     30
                      A                      A                      A
 Frequencies --   1171.1717              1192.8036              1227.6159
 Red. masses --      1.5840                 1.7469                 1.9233
 Frc consts  --      1.2801                 1.4644                 1.7077
 IR Inten    --      1.0442                 0.0289                 0.0643

                     31                     32                     33
                      A                      A                      A
 Frequencies --   1234.6682              1259.8969              1278.1365
 Red. masses --      1.3863                 1.2803                 1.4901
 Frc consts  --      1.2451                 1.1974                 1.4342
 IR Inten    --      0.0061                 0.0061                 0.2745

                     34                     35                     36
                      A                      A                      A
 Frequencies --   1282.8774              1314.5674              1326.1410
 Red. masses --      1.6968                 1.5980                 1.4210
 Frc consts  --      1.6453                 1.6270                 1.4724
 IR Inten    --      0.3717                 0.8973                 1.0421

                     37                     38                     39
                      A                      A                      A
 Frequencies --   1395.2020              1407.4649              1410.6895
 Red. masses --      1.2827                 1.4981                 1.2490
 Frc consts  --      1.4711                 1.7484                 1.4645
 IR Inten    --      3.7943                 3.8300                 3.6690

                     40                     41                     42
                      A                      A                      A
 Frequencies --   1424.4576              1486.1780              1494.8381
 Red. masses --      1.2593                 1.0650                 1.0563
 Frc consts  --      1.5055                 1.3859                 1.3907
 IR Inten    --      1.7078                 2.5566                 0.9771

                     43                     44                     45
                      A                      A                      A
 Frequencies --   1497.6951              1502.2893              1509.0970
 Red. masses --      1.0473                 1.0518                 1.0618
 Frc consts  --      1.3841                 1.3986                 1.4248
 IR Inten    --      1.6326                 2.6071                 0.7389

                     46                     47                     48
                      A                      A                      A
 Frequencies --   1518.6926              3015.3851              3028.7423
 Red. masses --      1.0953                 1.0826                 1.0381
 Frc consts  --      1.4884                 5.7998                 5.6105
 IR Inten    --      6.1506                37.9094                30.9982

                     49                     50                     51
                      A                      A                      A
 Frequencies --   3030.1729              3049.4539              3057.7117
 Red. masses --      1.0390                 1.0590                 1.0602
 Frc consts  --      5.6210                 5.8021                 5.8405
 IR Inten    --     31.9057                23.8142                56.2627

                     52                     53                     54
                      A                      A                      A
 Frequencies --   3075.2475              3083.7557              3084.7277
 Red. masses --      1.0848                 1.1053                 1.1013
 Frc consts  --      6.0445                 6.1928                 6.1743
 IR Inten    --     10.0181                 4.5515                 9.4855

                     55                     56                     57
                      A                      A                      A
 Frequencies --   3085.0535              3087.5716              3093.9083
 Red. masses --      1.0994                 1.0887                 1.0902
 Frc consts  --      6.1652                 6.1148                 6.1487
 IR Inten    --      1.3446               140.9768                 5.5799

                     58                     59                     60
                      A                      A                      A
 Frequencies --   3100.6992              3109.4323              3115.3111
 Red. masses --      1.1053                 1.0987                 1.0961
 Frc consts  --      6.2610                 6.2589                 6.2674
 IR Inten    --     42.6190                39.4373                59.5984

 - Thermochemistry -
 -------------------
 Temperature   298.150 Kelvin.  Pressure   1.00000 Atm.
 Atom     1 has atomic number  6 and mass  12.00000

 Molecular mass:   110.10955 amu.
 Principal axes and moments of inertia in atomic units:
                           1         2         3
     Eigenvalues --   603.20327 930.498231122.19870
           X            1.00000  -0.00216   0.00000
           Y            0.00216   1.00000   0.00000
           Z           -0.00000  -0.00000   1.00000
 This molecule is an asymmetric top.
 Rotational symmetry number  1.
 Warning -- assumption of classical behavior for rotation
           may cause significant error
 Rotational temperatures (Kelvin)      0.14359     0.09308     0.07718
 Rotational constants (GHZ):           2.99193     1.93954     1.60822
 Zero-point vibrational energy     531746.2 (Joules/Mol)
                                  127.09040 (Kcal/Mol)
 Warning -- explicit consideration of   9 degrees of freedom as
           vibrations may cause significant error
 Vibrational temperatures:    259.19   268.31   335.63   360.17   417.25
          (Kelvin)            427.05   522.99   696.80   825.82   973.95
                             1035.93  1128.78  1143.91  1222.47  1239.24
                             1300.88  1349.50  1378.88  1424.46  1430.07
                             1484.83  1523.04  1525.92  1542.65  1560.84
                             1650.50  1673.63  1685.05  1716.18  1766.27
                             1776.41  1812.71  1838.95  1845.77  1891.37
                             1908.02  2007.38  2025.03  2029.67  2049.48
                             2138.28  2150.74  2154.85  2161.46  2171.25
                             2185.06  4338.47  4357.68  4359.74  4387.48
                             4399.37  4424.60  4436.84  4438.24  4438.70
                             4442.33  4451.44  4461.21  4473.78  4482.24

 Zero-point correction=                           0.202531 (Hartree/Particle)
 Thermal correction to Energy=                    0.210253
 Thermal correction to Enthalpy=                  0.211198
 Thermal correction to Gibbs Free Energy=         0.171204
 Sum of electronic and zero-point Energies=           -313.068801
 Sum of electronic and thermal Energies=              -313.061079
 Sum of electronic and thermal Enthalpies=            -313.060135
 Sum of electronic and thermal Free Energies=         -313.100128

                     E (Thermal)             CV                S
                      KCal/Mol        Cal/Mol-Kelvin    Cal/Mol-Kelvin
 Total                  131.936             31.273             84.174
 Electronic               0.000              0.000              0.000
 Translational            0.889              2.981             40.005
 Rotational               0.889              2.981             27.934
 Vibrational            130.159             25.311             16.234
 Vibration     1          0.629              1.867              2.327
 Vibration     2          0.632              1.858              2.263
 Vibration     3          0.654              1.790              1.854
 Vibration     4          0.663              1.762              1.728
 Vibration     5          0.686              1.692              1.474
 Vibration     6          0.690              1.680              1.435
 Vibration     7          0.737              1.547              1.107
 Vibration     8          0.840              1.285              0.699
 Vibration     9          0.930              1.088              0.497

 Optimization completed.
    -- Stationary point found.
 Normal termination of Gaussian 16 at Sun May 28 15:39:55 2023.
