 Gaussian 16, Revision A.03,
 Gaussian 16:  ES64L-G16RevA.03 25-Dec-2016

 -----------------------------
 # opt freq b3lyp/6-31g(2df,p)
 -----------------------------

 -------------------
 Title Card Required
 -------------------
 Symbolic Z-matrix:
 Charge =  0 Multiplicity = 1

 SCF Done:  E(RB3LYP) =  -559.347178277     A.U. after   14 cycles
 SCF Done:  E(RB3LYP) =  -559.355663636     A.U. after   12 cycles
 SCF Done:  E(RB3LYP) =  -559.357262920     A.U. after   12 cycles
 SCF Done:  E(RB3LYP) =  -559.355679575     A.U. after   13 cycles
 SCF Done:  E(RB3LYP) =  -559.359613223     A.U. after   13 cycles
 SCF Done:  E(RB3LYP) =  -559.362935439     A.U. after   15 cycles
 SCF Done:  E(RB3LYP) =  -559.364484719     A.U. after   12 cycles
 SCF Done:  E(RB3LYP) =  -559.367915267     A.U. after   13 cycles
 SCF Done:  E(RB3LYP) =  -559.375263364     A.U. after   14 cycles
 SCF Done:  E(RB3LYP) =  -559.378879943     A.U. after   14 cycles
 SCF Done:  E(RB3LYP) =  -559.382772607     A.U. after   13 cycles
 SCF Done:  E(RB3LYP) =  -559.383159440     A.U. after   13 cycles
 SCF Done:  E(RB3LYP) =  -559.383375781     A.U. after   12 cycles
 SCF Done:  E(RB3LYP) =  -559.383528969     A.U. after   12 cycles
 SCF Done:  E(RB3LYP) =  -559.383565741     A.U. after   12 cycles
 SCF Done:  E(RB3LYP) =  -559.383571815     A.U. after    9 cycles
 SCF Done:  E(RB3LYP) =  -559.383572724     A.U. after    8 cycles
 SCF Done:  E(RB3LYP) =  -559.383572901     A.U. after    7 cycles
 SCF Done:  E(RB3LYP) =  -559.383572962     A.U. after    6 cycles
 Optimization completed.
    -- Stationary point found.
 Normal termination of Gaussian 16 at Tue May 23 00:05:59 2023.

 ----------------------------------------------------------------------
 #N Geom=AllCheck Guess=TCheck SCRF=Check GenChk RB3LYP/6-31G(2df,p) Fr
 eq
 ----------------------------------------------------------------------

 Structure from the checkpoint file:  "CC1CCdCqCCdOrCC1CCdN.chk"
 -------------------
 Title Card Required
 -------------------
 Charge =  0 Multiplicity = 1

                         Standard orientation:
 ---------------------------------------------------------------------
 Center     Atomic      Atomic             Coordinates (Angstroms)
 Number     Number       Type             X           Y           Z
 ---------------------------------------------------------------------
      1          6           0       -0.514602    2.417616    0.930205
      2          6           0       -1.192860    1.252675    0.193947
      3          6           0       -0.754835    1.192861   -1.283427
      4          6           0        0.570038    0.506444   -1.480749
      5          6           0        1.174296   -0.245870   -0.555943
      6          6           0        2.528505   -0.875429   -0.799544
      7          6           0        3.610265   -0.149126   -0.012888
      8          8           0        4.295354   -0.645131    0.842291
      9          6           0        0.571829   -0.466094    0.815013
     10          6           0       -0.923847   -0.102436    0.889577
     11          6           0       -1.794433   -1.245456    0.314015
     12          6           0       -3.272968   -0.988705    0.447287
     13          7           0       -4.162382   -0.994811   -0.458993
     14          1           0       -0.823143    3.376174    0.500696
     15          1           0        0.576424    2.363865    0.859596
     16          1           0       -0.783876    2.426568    1.991808
     17          1           0       -2.273921    1.434049    0.216726
     18          1           0       -0.704520    2.209500   -1.694270
     19          1           0       -1.519005    0.682618   -1.887949
     20          1           0        1.041412    0.629796   -2.454316
     21          1           0        2.787068   -0.796214   -1.863084
     22          1           0        2.549233   -1.930321   -0.506248
     23          1           0        3.712981    0.926917   -0.286711
     24          1           0        1.136885    0.115932    1.556720
     25          1           0        0.715170   -1.513300    1.112292
     26          1           0       -1.192888    0.003612    1.948844
     27          1           0       -1.558957   -2.163162    0.871732
     28          1           0       -1.543806   -1.440021   -0.735089
     29          1           0       -3.613093   -0.772664    1.468560
     30          1           0       -3.740463   -1.207507   -1.369637
 ---------------------------------------------------------------------

 SCF Done:  E(RB3LYP) =  -559.383572962     A.U. after    1 cycles

 The electronic state is 1-A.
 Alpha  occ. eigenvalues --  -19.14393 -14.31621 -10.27564 -10.22979 -10.20153
 Alpha  occ. eigenvalues --  -10.20053 -10.20037 -10.19567 -10.19407 -10.19395
 Alpha  occ. eigenvalues --  -10.19168 -10.19000 -10.17878  -1.05070  -0.90219
 Alpha  occ. eigenvalues --   -0.85838  -0.80304  -0.77204  -0.73301  -0.71884
 Alpha  occ. eigenvalues --   -0.66696  -0.62358  -0.59612  -0.58717  -0.57076
 Alpha  occ. eigenvalues --   -0.50483  -0.49356  -0.48144  -0.47163  -0.46460
 Alpha  occ. eigenvalues --   -0.45061  -0.43930  -0.43374  -0.42887  -0.41507
 Alpha  occ. eigenvalues --   -0.40066  -0.39217  -0.38725  -0.38012  -0.37534
 Alpha  occ. eigenvalues --   -0.36681  -0.35439  -0.33476  -0.31972  -0.31092
 Alpha  occ. eigenvalues --   -0.30260  -0.26644  -0.25824  -0.24149
 Alpha virt. eigenvalues --   -0.02998  -0.00142   0.02074   0.07174   0.07933
 Alpha virt. eigenvalues --    0.10464   0.11124   0.11463   0.12301   0.13306
 Alpha virt. eigenvalues --    0.14503   0.14869   0.15540   0.15635   0.16194

 Mulliken charges:
               1
     1  C   -0.407917
     2  C    0.012742
     3  C   -0.267864
     4  C   -0.143022
     5  C    0.295795
     6  C   -0.366550
     7  C    0.162309
     8  O   -0.236194
     9  C   -0.322081
    10  C   -0.010594
    11  C   -0.266873
    12  C    0.067623
    13  N   -0.393748
    14  H    0.115135
    15  H    0.120665
    16  H    0.112856
    17  H    0.085296
    18  H    0.105335
    19  H    0.106984
    20  H    0.080762
    21  H    0.118309
    22  H    0.119247
    23  H    0.077299
    24  H    0.118946
    25  H    0.105146
    26  H    0.073838
    27  H    0.113763
    28  H    0.105396
    29  H    0.103801
    30  H    0.213595
 Sum of Mulliken charges =  -0.00000

 Dipole moment (field-independent basis, Debye):
    X=              0.3314    Y=              0.6417    Z=             -1.3017  Tot=              1.4886
 Quadrupole moment (field-independent basis, Debye-Ang):
   XX=           -107.8870   YY=            -77.9878   ZZ=            -75.9089
   XY=              1.1897   XZ=             -8.5960   YZ=              0.4571

  Exact polarizability: 142.728  -6.215 109.928   9.682  -5.468 116.630
 Approx polarizability: 190.836 -15.288 164.639  27.672 -17.470 194.562

                      1                      2                      3
                      A                      A                      A
 Frequencies --     33.1241                39.1740                51.3165
 Red. masses --      5.5045                 6.9068                 4.2129
 Frc consts  --      0.0036                 0.0062                 0.0065
 IR Inten    --      4.0062                 5.7953                 0.6966

                      4                      5                      6
                      A                      A                      A
 Frequencies --     75.2779                82.9803               137.9661
 Red. masses --      3.5814                 2.3907                 2.4296
 Frc consts  --      0.0120                 0.0097                 0.0272
 IR Inten    --      0.9838                 0.8801                 0.9832

                      7                      8                      9
                      A                      A                      A
 Frequencies --    184.6019               206.4129               230.3266
 Red. masses --      2.6551                 2.3119                 1.2055
 Frc consts  --      0.0533                 0.0580                 0.0377
 IR Inten    --      1.3954                 1.8784                 0.4775

                     10                     11                     12
                      A                      A                      A
 Frequencies --    262.6361               281.1667               316.4032
 Red. masses --      2.3190                 2.9634                 2.8017
 Frc consts  --      0.0942                 0.1380                 0.1653
 IR Inten    --      0.5184                 4.9716                 0.8671

                     13                     14                     15
                      A                      A                      A
 Frequencies --    354.4256               376.2331               438.3291
 Red. masses --      2.3542                 2.0632                 2.3343
 Frc consts  --      0.1742                 0.1721                 0.2642
 IR Inten    --      1.0399                 0.3608                 2.6096

                     16                     17                     18
                      A                      A                      A
 Frequencies --    444.1624               493.5641               520.6425
 Red. masses --      3.0111                 2.5737                 2.5850
 Frc consts  --      0.3500                 0.3694                 0.4129
 IR Inten    --      0.4490                15.3346                15.1269

                     19                     20                     21
                      A                      A                      A
 Frequencies --    551.8630               582.5661               694.6273
 Red. masses --      2.8557                 3.9727                 2.2557
 Frc consts  --      0.5124                 0.7944                 0.6413
 IR Inten    --      0.6058                 3.1471                 2.0233

                     22                     23                     24
                      A                      A                      A
 Frequencies --    735.1088               781.1036               810.6573
 Red. masses --      2.2328                 2.2862                 1.6296
 Frc consts  --      0.7109                 0.8218                 0.6310
 IR Inten    --      3.3552                 2.2639                 0.4546

                     25                     26                     27
                      A                      A                      A
 Frequencies --    845.6646               877.9235               888.9481
 Red. masses --      1.8993                 1.9533                 2.0959
 Frc consts  --      0.8003                 0.8870                 0.9758
 IR Inten    --      3.9641                 1.5979                 1.5856

                     28                     29                     30
                      A                      A                      A
 Frequencies --    912.8883               936.5797               969.8712
 Red. masses --      1.9705                 1.7692                 2.5476
 Frc consts  --      0.9675                 0.9144                 1.4119
 IR Inten    --      1.3086                 2.4928                 4.7684

                     31                     32                     33
                      A                      A                      A
 Frequencies --    992.7476              1012.4398              1031.0931
 Red. masses --      1.6491                 2.0549                 2.1232
 Frc consts  --      0.9576                 1.2410                 1.3300
 IR Inten    --      1.7303                 3.0863                 2.9491

                     34                     35                     36
                      A                      A                      A
 Frequencies --   1036.6935              1053.3693              1074.6602
 Red. masses --      1.8842                 2.4514                 2.1572
 Frc consts  --      1.1931                 1.6026                 1.4679
 IR Inten    --      4.5146                17.8704                21.4355

                     37                     38                     39
                      A                      A                      A
 Frequencies --   1091.3408              1112.2367              1138.0429
 Red. masses --      2.0377                 1.7923                 1.2747
 Frc consts  --      1.4299                 1.3063                 0.9727
 IR Inten    --      6.6759                 5.8815                14.2518

                     40                     41                     42
                      A                      A                      A
 Frequencies --   1152.0873              1156.0333              1175.2942
 Red. masses --      1.9861                 1.2576                 1.1316
 Frc consts  --      1.5532                 0.9902                 0.9210
 IR Inten    --      6.0090                35.9569                 1.5097

                     43                     44                     45
                      A                      A                      A
 Frequencies --   1207.6328              1222.5467              1242.7411
 Red. masses --      1.3246                 1.4733                 1.2672
 Frc consts  --      1.1381                 1.2974                 1.1530
 IR Inten    --     18.1047                 4.4733                 7.6836

                     46                     47                     48
                      A                      A                      A
 Frequencies --   1261.6988              1285.4831              1294.1274
 Red. masses --      1.3148                 1.4614                 1.4192
 Frc consts  --      1.2332                 1.4228                 1.4003
 IR Inten    --      2.0889                 3.8768                60.5272

                     49                     50                     51
                      A                      A                      A
 Frequencies --   1310.6604              1346.5388              1353.4092
 Red. masses --      1.4488                 1.2640                 1.4226
 Frc consts  --      1.4663                 1.3503                 1.5353
 IR Inten    --      7.2911                 0.3223                 2.3533

                     52                     53                     54
                      A                      A                      A
 Frequencies --   1366.0864              1378.8803              1393.5315
 Red. masses --      1.6987                 1.3868                 1.5251
 Frc consts  --      1.8678                 1.5535                 1.7450
 IR Inten    --      4.4494                 4.2367                 3.2555

                     55                     56                     57
                      A                      A                      A
 Frequencies --   1404.1822              1413.4231              1416.9138
 Red. masses --      1.5886                 1.2806                 1.1769
 Frc consts  --      1.8454                 1.5074                 1.3921
 IR Inten    --      1.2435                 3.2131                 4.5337

                     58                     59                     60
                      A                      A                      A
 Frequencies --   1425.0926              1459.1733              1467.3936
 Red. masses --      1.2277                 1.0997                 1.0902
 Frc consts  --      1.4690                 1.3796                 1.3831
 IR Inten    --     23.3397                 7.2024                 3.9410

                     61                     62                     63
                      A                      A                      A
 Frequencies --   1475.2710              1484.0262              1497.6854
 Red. masses --      1.0847                 1.0825                 1.0544
 Frc consts  --      1.3909                 1.4046                 1.3934
 IR Inten    --      4.9056                 8.2521                 3.8928

                     64                     65                     66
                      A                      A                      A
 Frequencies --   1507.5078              1726.6750              1727.4893
 Red. masses --      1.0561                 7.5640                 7.7414
 Frc consts  --      1.4140                13.2869                13.6114
 IR Inten    --      1.4188                42.2539                23.0835

                     67                     68                     69
                      A                      A                      A
 Frequencies --   1833.1216              2861.8809              2997.9666
 Red. masses --     10.0368                 1.0826                 1.0681
 Frc consts  --     19.8713                 5.2244                 5.6562
 IR Inten    --    193.8005                90.7711                21.6417

                     70                     71                     72
                      A                      A                      A
 Frequencies --   3002.7119              3008.4018              3016.1569
 Red. masses --      1.0688                 1.0662                 1.0757
 Frc consts  --      5.6779                 5.6852                 5.7657
 IR Inten    --     13.8146                15.1146                31.1179

                     73                     74                     75
                      A                      A                      A
 Frequencies --   3026.0087              3031.5875              3033.3992
 Red. masses --      1.0589                 1.0503                 1.0866
 Frc consts  --      5.7125                 5.6873                 5.8911
 IR Inten    --     14.1573                18.7287                17.9522

                     76                     77                     78
                      A                      A                      A
 Frequencies --   3034.3076              3035.3807              3045.9600
 Red. masses --      1.0947                 1.0750                 1.0853
 Frc consts  --      5.9386                 5.8358                 5.9326
 IR Inten    --     33.4749                30.0188                19.8797

                     79                     80                     81
                      A                      A                      A
 Frequencies --   3071.8427              3088.4034              3098.2805
 Red. masses --      1.0970                 1.1032                 1.1013
 Frc consts  --      6.0990                 6.1999                 6.2290
 IR Inten    --     38.9751                14.3881                25.7769

                     82                     83                     84
                      A                      A                      A
 Frequencies --   3105.1424              3137.2385              3396.5892
 Red. masses --      1.1007                 1.0892                 1.0734
 Frc consts  --      6.2527                 6.3163                 7.2961
 IR Inten    --     32.8310                24.6924                 5.6626

 - Thermochemistry -
 -------------------
 Temperature   298.150 Kelvin.  Pressure   1.00000 Atm.
 Atom     1 has atomic number  6 and mass  12.00000

 Molecular mass:   179.13101 amu.
 Principal axes and moments of inertia in atomic units:
                           1         2         3
     Eigenvalues --  1278.712774327.680574622.08202
           X            0.99996  -0.00018  -0.00866
           Y            0.00046   0.99948   0.03218
           Z            0.00865  -0.03218   0.99944
 This molecule is an asymmetric top.
 Rotational symmetry number  1.
 Warning -- assumption of classical behavior for rotation
           may cause significant error
 Rotational temperatures (Kelvin)      0.06774     0.02001     0.01874
 Rotational constants (GHZ):           1.41137     0.41702     0.39046
 Zero-point vibrational energy     685670.4 (Joules/Mol)
                                  163.87915 (Kcal/Mol)
 Warning -- explicit consideration of  20 degrees of freedom as
           vibrations may cause significant error
 Vibrational temperatures:     47.66    56.36    73.83   108.31   119.39
          (Kelvin)            198.50   265.60   296.98   331.39   377.87
                              404.54   455.23   509.94   541.32   630.66
                              639.05   710.13   749.09   794.01   838.18
                              999.41  1057.66  1123.83  1166.36  1216.72
                             1263.14  1279.00  1313.44  1347.53  1395.43
                             1428.34  1456.68  1483.51  1491.57  1515.56
                             1546.20  1570.20  1600.26  1637.39  1657.60
                             1663.27  1690.99  1737.51  1758.97  1788.03
                             1815.30  1849.52  1861.96  1885.75  1937.37
                             1947.25  1965.49  1983.90  2004.98  2020.30
                             2033.60  2038.62  2050.39  2099.42  2111.25
                             2122.59  2135.18  2154.84  2168.97  2484.30
                             2485.47  2637.45  4117.61  4313.41  4320.23
                             4328.42  4339.58  4353.75  4361.78  4364.38
                             4365.69  4367.24  4382.46  4419.70  4443.52
                             4457.73  4467.61  4513.79  4886.93

 Zero-point correction=                           0.261158 (Hartree/Particle)
 Thermal correction to Energy=                    0.274979
 Thermal correction to Enthalpy=                  0.275923
 Thermal correction to Gibbs Free Energy=         0.219170
 Sum of electronic and zero-point Energies=           -559.122415
 Sum of electronic and thermal Energies=              -559.108594
 Sum of electronic and thermal Enthalpies=            -559.107650
 Sum of electronic and thermal Free Energies=         -559.164403

                     E (Thermal)             CV                S
                      KCal/Mol        Cal/Mol-Kelvin    Cal/Mol-Kelvin
 Total                  172.552             51.042            119.448
 Electronic               0.000              0.000              0.000
 Translational            0.889              2.981             41.456
 Rotational               0.889              2.981             31.615
 Vibrational            170.774             45.081             46.378
 Vibration     1          0.594              1.983              5.633
 Vibration     2          0.594              1.981              5.300
 Vibration     3          0.596              1.977              4.766
 Vibration     4          0.599              1.965              4.010
 Vibration     5          0.600              1.961              3.819
 Vibration     6          0.614              1.915              2.832
 Vibration     7          0.631              1.861              2.281
 Vibration     8          0.641              1.831              2.075
 Vibration     9          0.652              1.795              1.876
 Vibration    10          0.670              1.741              1.644
 Vibration    11          0.681              1.708              1.527
 Vibration    12          0.703              1.642              1.329
 Vibration    13          0.730              1.566              1.146
 Vibration    14          0.747              1.521              1.054
 Vibration    15          0.798              1.387              0.832
 Vibration    16          0.804              1.374              0.814
 Vibration    17          0.849              1.264              0.674
 Vibration    18          0.876              1.204              0.608
 Vibration    19          0.907              1.136              0.540
 Vibration    20          0.939              1.069              0.481

 Optimization completed.
    -- Stationary point found.
 Normal termination of Gaussian 16 at Tue May 23 01:46:40 2023.
