 Gaussian 16, Revision A.03,
 Gaussian 16:  ES64L-G16RevA.03 25-Dec-2016

 -----------------------------
 # opt freq b3lyp/6-31g(2df,p)
 -----------------------------

 -------------------
 Title Card Required
 -------------------
 Symbolic Z-matrix:
 Charge =  0 Multiplicity = 1

 SCF Done:  E(RB3LYP) =  -275.217070110     A.U. after   11 cycles
 SCF Done:  E(RB3LYP) =  -275.217767161     A.U. after    9 cycles
 SCF Done:  E(RB3LYP) =  -275.217820971     A.U. after    8 cycles
 SCF Done:  E(RB3LYP) =  -275.217823301     A.U. after    7 cycles
 Optimization completed.
    -- Stationary point found.
 Normal termination of Gaussian 16 at Sun May 28 10:18:43 2023.

 ----------------------------------------------------------------------
 #N Geom=AllCheck Guess=TCheck SCRF=Check GenChk RB3LYP/6-31G(2df,p) Fr
 eq
 ----------------------------------------------------------------------

 Structure from the checkpoint file:  "CC1CCCCC1.chk"
 -------------------
 Title Card Required
 -------------------
 Charge =  0 Multiplicity = 1

                         Standard orientation:
 ---------------------------------------------------------------------
 Center     Atomic      Atomic             Coordinates (Angstroms)
 Number     Number       Type             X           Y           Z
 ---------------------------------------------------------------------
      1          6           0       -2.496145    0.000018    0.072304
      2          6           0       -1.018059   -0.000071   -0.328445
      3          6           0       -0.293497   -1.262523    0.170385
      4          6           0        1.193780   -1.266965   -0.211027
      5          6           0        1.904226    0.000001    0.285564
      6          6           0        1.193780    1.267016   -0.210899
      7          6           0       -0.293557    1.262483    0.170236
      8          1           0       -3.013906   -0.885464   -0.312204
      9          1           0       -3.013955    0.885107   -0.313025
     10          1           0       -2.606283    0.000523    1.163481
     11          1           0       -0.963711   -0.000167   -1.428364
     12          1           0       -0.789247   -2.157721   -0.224670
     13          1           0       -0.387509   -1.315546    1.265304
     14          1           0        1.285776   -1.327183   -1.304640
     15          1           0        1.684494   -2.161122    0.190336
     16          1           0        2.952016    0.000032   -0.036024
     17          1           0        1.915800   -0.000078    1.384679
     18          1           0        1.286034    1.327474   -1.304460
     19          1           0        1.684344    2.161129    0.190783
     20          1           0       -0.789281    2.157619   -0.225021
     21          1           0       -0.387741    1.315650    1.265124
 ---------------------------------------------------------------------

 SCF Done:  E(RB3LYP) =  -275.217823301     A.U. after    1 cycles

 The electronic state is 1-A.
 Alpha  occ. eigenvalues --  -10.17775 -10.17181 -10.17169 -10.17150 -10.17015
 Alpha  occ. eigenvalues --  -10.17014 -10.16644  -0.82580  -0.75554  -0.73197
 Alpha  occ. eigenvalues --   -0.66721  -0.60125  -0.57740  -0.54336  -0.46502
 Alpha  occ. eigenvalues --   -0.43889  -0.43106  -0.42855  -0.40407  -0.37693
 Alpha  occ. eigenvalues --   -0.36881  -0.35883  -0.34201  -0.33309  -0.32384
 Alpha  occ. eigenvalues --   -0.30814  -0.29095  -0.28761
 Alpha virt. eigenvalues --    0.08635   0.10871   0.11167   0.13074   0.15760
 Alpha virt. eigenvalues --    0.16474   0.16766   0.17115   0.17812   0.18060
 Alpha virt. eigenvalues --    0.18555   0.19179   0.19746   0.19783   0.21060

 Mulliken charges:
               1
     1  C   -0.402819
     2  C    0.060783
     3  C   -0.174804
     4  C   -0.196281
     5  C   -0.175459
     6  C   -0.196295
     7  C   -0.174783
     8  H    0.106869
     9  H    0.106877
    10  H    0.109908
    11  H    0.064547
    12  H    0.084466
    13  H    0.086648
    14  H    0.089798
    15  H    0.086754
    16  H    0.086430
    17  H    0.089683
    18  H    0.089802
    19  H    0.086757
    20  H    0.084467
    21  H    0.086652
 Sum of Mulliken charges =  -0.00000

 Dipole moment (field-independent basis, Debye):
    X=              0.0637    Y=              0.0000    Z=             -0.0531  Tot=              0.0829
 Quadrupole moment (field-independent basis, Debye-Ang):
   XX=            -47.1654   YY=            -46.5370   ZZ=            -45.8965
   XY=             -0.0000   XZ=              0.2056   YZ=             -0.0000

  Exact polarizability:  82.030   0.000  74.596   0.048  -0.000  65.709
 Approx polarizability: 102.283   0.000 102.087   0.079   0.000 104.115

                      1                      2                      3
                      A                      A                      A
 Frequencies --    151.0854               219.5058               242.0841
 Red. masses --      2.2949                 1.3047                 1.3073
 Frc consts  --      0.0309                 0.0370                 0.0451
 IR Inten    --      0.0135                 0.0212                 0.0000

                      4                      5                      6
                      A                      A                      A
 Frequencies --    304.4527               324.6204               406.7888
 Red. masses --      2.2801                 1.7140                 3.3796
 Frc consts  --      0.1245                 0.1064                 0.3295
 IR Inten    --      0.0001                 0.0152                 0.0536

                      7                      8                      9
                      A                      A                      A
 Frequencies --    435.8343               447.7687               539.8846
 Red. masses --      1.7255                 2.9772                 1.6488
 Frc consts  --      0.1931                 0.3517                 0.2831
 IR Inten    --      0.1644                 0.0177                 0.2554

                     10                     11                     12
                      A                      A                      A
 Frequencies --    773.4853               792.7231               849.9257
 Red. masses --      2.5095                 1.4749                 2.4898
 Frc consts  --      0.8846                 0.5461                 1.0597
 IR Inten    --      0.0260                 0.0042                 0.8252

                     13                     14                     15
                      A                      A                      A
 Frequencies --    859.3550               878.2744               921.5607
 Red. masses --      1.4258                 2.0886                 1.3135
 Frc consts  --      0.6204                 0.9492                 0.6573
 IR Inten    --      0.3060                 0.7264                 1.8105

                     16                     17                     18
                      A                      A                      A
 Frequencies --    974.5127               981.2793               983.1538
 Red. masses --      2.5627                 1.2459                 1.6311
 Frc consts  --      1.4339                 0.7069                 0.9289
 IR Inten    --      0.5667                 1.7620                 1.1074

                     19                     20                     21
                      A                      A                      A
 Frequencies --   1041.5384              1071.9954              1093.0533
 Red. masses --      1.8059                 1.1424                 1.4509
 Frc consts  --      1.1543                 0.7735                 1.0213
 IR Inten    --      0.1356                 0.0729                 0.0866

                     22                     23                     24
                      A                      A                      A
 Frequencies --   1107.1398              1120.3293              1189.5210
 Red. masses --      2.8429                 1.7020                 2.2954
 Frc consts  --      2.0531                 1.2586                 1.9136
 IR Inten    --      1.0190                 0.5230                 0.0897

                     25                     26                     27
                      A                      A                      A
 Frequencies --   1225.0513              1276.5720              1288.9313
 Red. masses --      1.5545                 1.2796                 1.2708
 Frc consts  --      1.3745                 1.2286                 1.2439
 IR Inten    --      0.0000                 1.5985                 2.4072

                     28                     29                     30
                      A                      A                      A
 Frequencies --   1291.1736              1336.7489              1338.3508
 Red. masses --      1.2937                 1.3062                 1.2339
 Frc consts  --      1.2707                 1.3751                 1.3021
 IR Inten    --      1.9513                 0.1298                 2.1179

                     31                     32                     33
                      A                      A                      A
 Frequencies --   1369.6132              1376.8278              1380.3607
 Red. masses --      1.3727                 1.3699                 1.4796
 Frc consts  --      1.5171                 1.5300                 1.6610
 IR Inten    --      0.9684                 1.6220                 0.0541

                     34                     35                     36
                      A                      A                      A
 Frequencies --   1382.1690              1397.8637              1412.7096
 Red. masses --      1.5089                 1.5405                 1.2457
 Frc consts  --      1.6984                 1.7735                 1.4647
 IR Inten    --      2.8189                 0.0718                 1.8824

                     37                     38                     39
                      A                      A                      A
 Frequencies --   1479.7069              1484.9223              1487.3430
 Red. masses --      1.0855                 1.0966                 1.0968
 Frc consts  --      1.4003                 1.4246                 1.4295
 IR Inten    --      0.0216                 1.1137                 1.5067

                     40                     41                     42
                      A                      A                      A
 Frequencies --   1490.9860              1497.4579              1500.8259
 Red. masses --      1.0829                 1.0447                 1.0608
 Frc consts  --      1.4183                 1.3802                 1.4079
 IR Inten    --      6.1733                 7.2388                 1.7492

                     43                     44                     45
                      A                      A                      A
 Frequencies --   1505.7180              2978.4404              2996.4588
 Red. masses --      1.0987                 1.0800                 1.0653
 Frc consts  --      1.4676                 5.6447                 5.6357
 IR Inten    --      0.9791                 6.7061                19.8110

                     46                     47                     48
                      A                      A                      A
 Frequencies --   3003.2143              3005.8907              3008.2953
 Red. masses --      1.0657                 1.0693                 1.0632
 Frc consts  --      5.6632                 5.6922                 5.6688
 IR Inten    --     21.4358                20.5775                 7.5395

                     49                     50                     51
                      A                      A                      A
 Frequencies --   3012.2982              3021.8883              3047.2262
 Red. masses --      1.0599                 1.0365                 1.0955
 Frc consts  --      5.6666                 5.5766                 5.9936
 IR Inten    --     45.2061                43.5227                68.6217

                     52                     53                     54
                      A                      A                      A
 Frequencies --   3050.2387              3056.4729              3057.5010
 Red. masses --      1.0975                 1.0994                 1.0904
 Frc consts  --      6.0160                 6.0512                 6.0058
 IR Inten    --     31.2958                35.1509                48.4473

                     55                     56                     57
                      A                      A                      A
 Frequencies --   3063.6845              3087.2621              3093.1007
 Red. masses --      1.1044                 1.1004                 1.1014
 Frc consts  --      6.1076                 6.1797                 6.2084
 IR Inten    --     87.0704                51.0379                34.5283

 - Thermochemistry -
 -------------------
 Temperature   298.150 Kelvin.  Pressure   1.00000 Atm.
 Atom     1 has atomic number  6 and mass  12.00000

 Molecular mass:    98.10955 amu.
 Principal axes and moments of inertia in atomic units:
                           1         2         3
     Eigenvalues --   430.95058 830.780581144.02440
           X            1.00000  -0.00000  -0.00282
           Y            0.00000   1.00000   0.00000
           Z            0.00282  -0.00000   1.00000
 This molecule is an asymmetric top.
 Rotational symmetry number  1.
 Rotational temperatures (Kelvin)      0.20098     0.10426     0.07571
 Rotational constants (GHZ):           4.18781     2.17234     1.57754
 Zero-point vibrational energy     518671.9 (Joules/Mol)
                                  123.96557 (Kcal/Mol)
 Warning -- explicit consideration of   9 degrees of freedom as
           vibrations may cause significant error
 Vibrational temperatures:    217.38   315.82   348.31   438.04   467.06
          (Kelvin)            585.28   627.07   644.24   776.77  1112.87
                             1140.55  1222.85  1236.42  1263.64  1325.92
                             1402.11  1411.84  1414.54  1498.54  1542.36
                             1572.66  1592.93  1611.90  1711.46  1762.58
                             1836.70  1854.48  1857.71  1923.28  1925.59
                             1970.57  1980.95  1986.03  1988.63  2011.21
                             2032.57  2128.97  2136.47  2139.95  2145.20
                             2154.51  2159.35  2166.39  4285.31  4311.24
                             4320.96  4324.81  4328.27  4334.03  4347.82
                             4384.28  4388.61  4397.58  4399.06  4407.96
                             4441.88  4450.28

 Zero-point correction=                           0.197552 (Hartree/Particle)
 Thermal correction to Energy=                    0.204725
 Thermal correction to Enthalpy=                  0.205669
 Thermal correction to Gibbs Free Energy=         0.166942
 Sum of electronic and zero-point Energies=           -275.020272
 Sum of electronic and thermal Energies=              -275.013098
 Sum of electronic and thermal Enthalpies=            -275.012154
 Sum of electronic and thermal Free Energies=         -275.050882

                     E (Thermal)             CV                S
                      KCal/Mol        Cal/Mol-Kelvin    Cal/Mol-Kelvin
 Total                  128.467             28.603             81.509
 Electronic               0.000              0.000              0.000
 Translational            0.889              2.981             39.661
 Rotational               0.889              2.981             27.507
 Vibrational            126.690             22.642             14.342
 Vibration     1          0.619              1.901              2.659
 Vibration     2          0.647              1.811              1.963
 Vibration     3          0.658              1.776              1.788
 Vibration     4          0.695              1.665              1.392
 Vibration     5          0.709              1.626              1.287
 Vibration     6          0.772              1.455              0.938
 Vibration     7          0.796              1.392              0.840
 Vibration     8          0.807              1.366              0.803
 Vibration     9          0.895              1.162              0.566

 Optimization completed.
    -- Stationary point found.
 Normal termination of Gaussian 16 at Sun May 28 10:41:17 2023.
