 Gaussian 16, Revision A.03,
 Gaussian 16:  ES64L-G16RevA.03 25-Dec-2016

 -----------------------------
 # opt freq b3lyp/6-31g(2df,p)
 -----------------------------

 -------------------
 Title Card Required
 -------------------
 Symbolic Z-matrix:
 Charge =  0 Multiplicity = 1

 SCF Done:  E(RB3LYP) =  -655.654141578     A.U. after   14 cycles
 SCF Done:  E(RB3LYP) =  -655.664149656     A.U. after   13 cycles
 SCF Done:  E(RB3LYP) =  -655.667225832     A.U. after   12 cycles
 SCF Done:  E(RB3LYP) =  -655.667375000     A.U. after   12 cycles
 SCF Done:  E(RB3LYP) =  -655.668336398     A.U. after   12 cycles
 SCF Done:  E(RB3LYP) =  -655.668499296     A.U. after   13 cycles
 SCF Done:  E(RB3LYP) =  -655.669217290     A.U. after   11 cycles
 SCF Done:  E(RB3LYP) =  -655.669696535     A.U. after   12 cycles
 SCF Done:  E(RB3LYP) =  -655.670149035     A.U. after   13 cycles
 SCF Done:  E(RB3LYP) =  -655.670736874     A.U. after   12 cycles
 SCF Done:  E(RB3LYP) =  -655.674285533     A.U. after   11 cycles
 SCF Done:  E(RB3LYP) =  -655.674285324     A.U. after   11 cycles
 SCF Done:  E(RB3LYP) =  -655.674207168     A.U. after   10 cycles
 SCF Done:  E(RB3LYP) =  -655.674307284     A.U. after   10 cycles
 SCF Done:  E(RB3LYP) =  -655.674313476     A.U. after    9 cycles
 SCF Done:  E(RB3LYP) =  -655.674313975     A.U. after    8 cycles
 SCF Done:  E(RB3LYP) =  -655.674314150     A.U. after    6 cycles
 SCF Done:  E(RB3LYP) =  -655.674314346     A.U. after    6 cycles
 SCF Done:  E(RB3LYP) =  -655.674315074     A.U. after    8 cycles
 Optimization completed.
    -- Stationary point found.
 Normal termination of Gaussian 16 at Mon May 22 15:21:53 2023.

 ----------------------------------------------------------------------
 #N Geom=AllCheck Guess=TCheck SCRF=Check GenChk RB3LYP/6-31G(2df,p) Fr
 eq
 ----------------------------------------------------------------------

 Structure from the checkpoint file:  "CC1CCCqCCCdOrC1C1OCO1.chk"
 -------------------
 Title Card Required
 -------------------
 Charge =  0 Multiplicity = 1

                         Standard orientation:
 ---------------------------------------------------------------------
 Center     Atomic      Atomic             Coordinates (Angstroms)
 Number     Number       Type             X           Y           Z
 ---------------------------------------------------------------------
      1          6           0       -3.139988   -0.672346   -1.401753
      2          6           0       -2.174477   -0.632630   -0.217900
      3          6           0       -2.023000   -1.971939    0.534128
      4          6           0       -0.638132   -1.877431    1.179927
      5          6           0        0.225054   -1.274711    0.056192
      6          6           0        1.617104   -0.815806    0.515327
      7          6           0        2.601795   -0.543302   -0.638247
      8          6           0        3.989880   -0.229528   -0.128998
      9          8           0        4.629172    0.749306   -0.415556
     10          6           0       -0.721155   -0.212604   -0.605558
     11          6           0       -0.409597    1.219231   -0.207401
     12          8           0       -1.400445    2.182873   -0.598721
     13          6           0       -1.428138    2.597475    0.762935
     14          8           0       -0.577134    1.535464    1.185468
     15          1           0       -4.141690   -0.982781   -1.084880
     16          1           0       -2.799416   -1.382506   -2.165080
     17          1           0       -3.223091    0.313721   -1.868159
     18          1           0       -2.547219    0.103047    0.502515
     19          1           0       -2.044683   -2.808842   -0.176969
     20          1           0       -2.831235   -2.138862    1.252358
     21          1           0       -0.249972   -2.838634    1.531460
     22          1           0       -0.663981   -1.191960    2.035617
     23          1           0        0.374905   -2.067314   -0.690366
     24          1           0        2.040571   -1.607785    1.147246
     25          1           0        1.534125    0.068394    1.157568
     26          1           0        2.280346    0.277228   -1.285603
     27          1           0        2.677583   -1.449114   -1.258532
     28          1           0        4.402687   -0.997768    0.568197
     29          1           0       -0.598995   -0.235565   -1.695768
     30          1           0        0.586102    1.531129   -0.557787
     31          1           0       -2.430474    2.558227    1.211783
     32          1           0       -0.974379    3.589781    0.914956
 ---------------------------------------------------------------------

 SCF Done:  E(RB3LYP) =  -655.674315074     A.U. after    1 cycles

 The electronic state is 1-A.
 Alpha  occ. eigenvalues --  -19.15552 -19.15366 -19.13894 -10.28999 -10.28935
 Alpha  occ. eigenvalues --  -10.27110 -10.19705 -10.19682 -10.19578 -10.19145
 Alpha  occ. eigenvalues --  -10.18544 -10.17892 -10.17766 -10.17121  -1.13000
 Alpha  occ. eigenvalues --   -1.04572  -0.96387  -0.85442  -0.79756  -0.75602
 Alpha  occ. eigenvalues --   -0.74436  -0.69625  -0.66751  -0.62688  -0.59497
 Alpha  occ. eigenvalues --   -0.58072  -0.56989  -0.53766  -0.51876  -0.50990
 Alpha  occ. eigenvalues --   -0.49505  -0.48166  -0.46435  -0.45968  -0.44583
 Alpha  occ. eigenvalues --   -0.43482  -0.43081  -0.41949  -0.40739  -0.40271
 Alpha  occ. eigenvalues --   -0.38546  -0.37626  -0.37281  -0.35387  -0.34308
 Alpha  occ. eigenvalues --   -0.33347  -0.33236  -0.32412  -0.31943  -0.31697
 Alpha  occ. eigenvalues --   -0.31302  -0.30167  -0.25193  -0.24813
 Alpha virt. eigenvalues --   -0.02101   0.04935   0.07720   0.08800   0.09627
 Alpha virt. eigenvalues --    0.10597   0.11871   0.12416   0.13363   0.13570
 Alpha virt. eigenvalues --    0.15110   0.15583   0.15761   0.16348   0.16663

 Mulliken charges:
               1
     1  C   -0.419231
     2  C    0.053434
     3  C   -0.232449
     4  C   -0.232924
     5  C    0.018087
     6  C   -0.241416
     7  C   -0.285870
     8  C    0.162364
     9  O   -0.237313
    10  C   -0.061334
    11  C    0.207174
    12  O   -0.281672
    13  C    0.006402
    14  O   -0.279794
    15  H    0.109547
    16  H    0.106757
    17  H    0.128404
    18  H    0.081710
    19  H    0.090124
    20  H    0.093351
    21  H    0.089422
    22  H    0.114070
    23  H    0.072395
    24  H    0.097021
    25  H    0.134819
    26  H    0.123898
    27  H    0.117476
    28  H    0.069506
    29  H    0.080400
    30  H    0.090772
    31  H    0.115656
    32  H    0.109213
 Sum of Mulliken charges =  -0.00000

 Dipole moment (field-independent basis, Debye):
    X=             -1.9550    Y=             -1.9511    Z=              0.5012  Tot=              2.8071
 Quadrupole moment (field-independent basis, Debye-Ang):
   XX=            -97.7432   YY=            -82.2375   ZZ=            -86.0502
   XY=             -8.8423   XZ=             -0.7230   YZ=              3.4956

  Exact polarizability: 140.999   2.243 125.258   0.061  -0.814 103.795
 Approx polarizability: 177.546   3.803 181.524  -3.415  -1.340 165.139

                      1                      2                      3
                      A                      A                      A
 Frequencies --     31.4499                40.9086                58.9226
 Red. masses --      4.4558                 4.8311                 3.7991
 Frc consts  --      0.0026                 0.0048                 0.0078
 IR Inten    --      0.7906                 1.4613                 5.2976

                      4                      5                      6
                      A                      A                      A
 Frequencies --     76.1723               114.9777               130.6682
 Red. masses --      4.5335                 2.8176                 2.6884
 Frc consts  --      0.0155                 0.0219                 0.0270
 IR Inten    --      1.3951                 0.6289                 0.3048

                      7                      8                      9
                      A                      A                      A
 Frequencies --    135.9017               174.5591               207.7235
 Red. masses --      2.9439                 3.3611                 3.2173
 Frc consts  --      0.0320                 0.0603                 0.0818
 IR Inten    --      1.2483                 0.1774                 6.2203

                     10                     11                     12
                      A                      A                      A
 Frequencies --    239.4005               251.0653               262.4117
 Red. masses --      1.6821                 2.8376                 1.2045
 Frc consts  --      0.0568                 0.1054                 0.0489
 IR Inten    --      0.2953                 2.3960                 0.4921

                     13                     14                     15
                      A                      A                      A
 Frequencies --    298.2172               318.0643               378.7944
 Red. masses --      4.2008                 3.6993                 2.8839
 Frc consts  --      0.2201                 0.2205                 0.2438
 IR Inten    --      1.9114                 2.5803                 0.1824

                     16                     17                     18
                      A                      A                      A
 Frequencies --    415.2622               474.8878               521.8545
 Red. masses --      2.5442                 2.8303                 2.5371
 Frc consts  --      0.2585                 0.3761                 0.4071
 IR Inten    --      0.7067                 0.4784                18.2888

                     19                     20                     21
                      A                      A                      A
 Frequencies --    571.0239               584.2142               675.3356
 Red. masses --      2.4300                 3.1663                 3.4128
 Frc consts  --      0.4668                 0.6367                 0.9171
 IR Inten    --      0.6375                 1.2217                 7.6836

                     22                     23                     24
                      A                      A                      A
 Frequencies --    766.9744               773.8163               845.2497
 Red. masses --      1.3418                 3.1818                 1.8410
 Frc consts  --      0.4650                 1.1225                 0.7750
 IR Inten    --      3.0041                 4.0952                 3.9968

                     25                     26                     27
                      A                      A                      A
 Frequencies --    865.7334               877.7623               903.8185
 Red. masses --      1.6147                 2.9935                 3.6673
 Frc consts  --      0.7130                 1.3589                 1.7650
 IR Inten    --      5.7233                 1.2190                11.2363

                     28                     29                     30
                      A                      A                      A
 Frequencies --    913.7289               949.5487               971.2328
 Red. masses --      2.4221                 2.0613                 1.6923
 Frc consts  --      1.1914                 1.0950                 0.9405
 IR Inten    --      3.3143                18.7517                 5.6323

                     31                     32                     33
                      A                      A                      A
 Frequencies --    979.5142               983.8328              1000.5198
 Red. masses --      2.3117                 4.3693                 2.4004
 Frc consts  --      1.3068                 2.4918                 1.4158
 IR Inten    --      2.3974                20.7161                18.3443

                     34                     35                     36
                      A                      A                      A
 Frequencies --   1004.2300              1020.7361              1056.4092
 Red. masses --      2.0068                 2.1509                 2.0685
 Frc consts  --      1.1924                 1.3204                 1.3601
 IR Inten    --     17.9474                15.3225                 9.1375

                     37                     38                     39
                      A                      A                      A
 Frequencies --   1076.0127              1086.7516              1091.4342
 Red. masses --      2.2262                 2.2234                 4.9301
 Frc consts  --      1.5186                 1.5471                 3.4602
 IR Inten    --     64.0412                18.1210               181.6448

                     40                     41                     42
                      A                      A                      A
 Frequencies --   1099.8772              1129.3625              1137.0064
 Red. masses --      1.0867                 2.4888                 2.6503
 Frc consts  --      0.7745                 1.8703                 2.0187
 IR Inten    --      0.9427                 8.8866                 1.4091

                     43                     44                     45
                      A                      A                      A
 Frequencies --   1151.4344              1159.3443              1172.7906
 Red. masses --      1.5553                 2.5553                 2.1282
 Frc consts  --      1.2149                 2.0236                 1.7246
 IR Inten    --      2.0636                17.5118                16.4597

                     46                     47                     48
                      A                      A                      A
 Frequencies --   1187.2493              1204.3510              1221.2012
 Red. masses --      1.5152                 1.4232                 1.4692
 Frc consts  --      1.2583                 1.2163                 1.2909
 IR Inten    --      0.4280                12.0943                 2.0638

                     49                     50                     51
                      A                      A                      A
 Frequencies --   1263.1961              1271.9384              1277.9865
 Red. masses --      1.2993                 1.3530                 1.3565
 Frc consts  --      1.2215                 1.2897                 1.3054
 IR Inten    --      2.5889                 1.3741                 3.9402

                     52                     53                     54
                      A                      A                      A
 Frequencies --   1301.5888              1312.4203              1319.8800
 Red. masses --      1.1839                 1.2921                 1.3217
 Frc consts  --      1.1817                 1.3113                 1.3566
 IR Inten    --      2.0649                 1.8281                 3.1289

                     55                     56                     57
                      A                      A                      A
 Frequencies --   1330.7166              1356.4207              1363.9456
 Red. masses --      1.3419                 1.2848                 1.4002
 Frc consts  --      1.4000                 1.3928                 1.5347
 IR Inten    --      0.1743                 3.6805                 3.2374

                     58                     59                     60
                      A                      A                      A
 Frequencies --   1368.9973              1379.9845              1398.9083
 Red. masses --      1.3624                 1.4518                 1.4729
 Frc consts  --      1.5044                 1.6290                 1.6983
 IR Inten    --      4.0722                 8.0052                 3.4013

                     61                     62                     63
                      A                      A                      A
 Frequencies --   1405.4459              1416.0425              1424.6796
 Red. masses --      1.2859                 1.3876                 1.3223
 Frc consts  --      1.4966                 1.6393                 1.5813
 IR Inten    --      3.9906                10.1498                27.9083

                     64                     65                     66
                      A                      A                      A
 Frequencies --   1430.3274              1465.0447              1489.2126
 Red. masses --      1.2060                 1.0885                 1.0869
 Frc consts  --      1.4536                 1.3765                 1.4203
 IR Inten    --      8.4084                 4.5436                 1.0887

                     67                     68                     69
                      A                      A                      A
 Frequencies --   1496.1254              1500.8143              1505.4423
 Red. masses --      1.0556                 1.0920                 1.0578
 Frc consts  --      1.3922                 1.4492                 1.4124
 IR Inten    --      0.9741                 1.7807                 3.6565

                     70                     71                     72
                      A                      A                      A
 Frequencies --   1506.1384              1562.9072              1836.4476
 Red. masses --      1.0830                 1.1229                10.1404
 Frc consts  --      1.4474                 1.6161                20.1494
 IR Inten    --      6.6138                 3.1316               194.7585

                     73                     74                     75
                      A                      A                      A
 Frequencies --   2845.4619              2971.1462              2988.5016
 Red. masses --      1.0814                 1.0577                 1.0820
 Frc consts  --      5.1587                 5.5014                 5.6935
 IR Inten    --    114.8203               153.0607                65.8675

                     76                     77                     78
                      A                      A                      A
 Frequencies --   2994.3836              3006.0488              3016.1254
 Red. masses --      1.0829                 1.0664                 1.0664
 Frc consts  --      5.7208                 5.6777                 5.7158
 IR Inten    --     13.6554                10.5434                19.7518

                     79                     80                     81
                      A                      A                      A
 Frequencies --   3019.3420              3023.1288              3025.7967
 Red. masses --      1.0654                 1.0405                 1.1097
 Frc consts  --      5.7226                 5.6028                 5.9860
 IR Inten    --     18.8609                33.8401                48.3714

                     82                     83                     84
                      A                      A                      A
 Frequencies --   3030.4877              3036.4074              3047.2477
 Red. masses --      1.0827                 1.0602                 1.0810
 Frc consts  --      5.8586                 5.7594                 5.9140
 IR Inten    --     26.8014                28.6597                18.0423

                     85                     86                     87
                      A                      A                      A
 Frequencies --   3069.0305              3080.0674              3086.5798
 Red. masses --      1.0948                 1.0963                 1.1031
 Frc consts  --      6.0755                 6.1277                 6.1920
 IR Inten    --      8.3747                24.1052                12.2047

                     88                     89                     90
                      A                      A                      A
 Frequencies --   3091.0924              3099.8551              3108.3300
 Red. masses --      1.1007                 1.0954                 1.1007
 Frc consts  --      6.1967                 6.2016                 6.2656
 IR Inten    --     82.3208                26.6414                21.3364

 - Thermochemistry -
 -------------------
 Temperature   298.150 Kelvin.  Pressure   1.00000 Atm.
 Atom     1 has atomic number  6 and mass  12.00000

 Molecular mass:   198.12559 amu.
 Principal axes and moments of inertia in atomic units:
                           1         2         3
     Eigenvalues --  1912.071804185.356885200.95419
           X            0.99997   0.00010   0.00786
           Y           -0.00013   0.99999   0.00379
           Z           -0.00786  -0.00379   0.99996
 This molecule is an asymmetric top.
 Rotational symmetry number  1.
 Warning -- assumption of classical behavior for rotation
           may cause significant error
 Rotational temperatures (Kelvin)      0.04530     0.02069     0.01665
 Rotational constants (GHZ):           0.94387     0.43120     0.34700
 Zero-point vibrational energy     730412.2 (Joules/Mol)
                                  174.57270 (Kcal/Mol)
 Warning -- explicit consideration of  20 degrees of freedom as
           vibrations may cause significant error
 Vibrational temperatures:     45.25    58.86    84.78   109.59   165.43
          (Kelvin)            188.00   195.53   251.15   298.87   344.44
                              361.23   377.55   429.07   457.62   545.00
                              597.47   683.26   750.83   821.58   840.55
                              971.66  1103.51  1113.35  1216.13  1245.60
                             1262.90  1300.39  1314.65  1366.19  1397.39
                             1409.30  1415.52  1439.52  1444.86  1468.61
                             1519.94  1548.14  1563.59  1570.33  1582.48
                             1624.90  1635.90  1656.66  1668.04  1687.38
                             1708.19  1732.79  1757.04  1817.46  1830.04
                             1838.74  1872.70  1888.28  1899.01  1914.60
                             1951.59  1962.41  1969.68  1985.49  2012.72
                             2022.12  2037.37  2049.80  2057.92  2107.87
                             2142.64  2152.59  2159.34  2166.00  2167.00
                             2248.67  2642.24  4093.98  4274.82  4299.79
                             4308.25  4325.03  4339.53  4344.16  4349.61
                             4353.45  4360.20  4368.71  4384.31  4415.65
                             4431.53  4440.90  4447.39  4460.00  4472.19

 Zero-point correction=                           0.278199 (Hartree/Particle)
 Thermal correction to Energy=                    0.292590
 Thermal correction to Enthalpy=                  0.293534
 Thermal correction to Gibbs Free Energy=         0.235422
 Sum of electronic and zero-point Energies=           -655.396116
 Sum of electronic and thermal Energies=              -655.381725
 Sum of electronic and thermal Enthalpies=            -655.380781
 Sum of electronic and thermal Free Energies=         -655.438893

                     E (Thermal)             CV                S
                      KCal/Mol        Cal/Mol-Kelvin    Cal/Mol-Kelvin
 Total                  183.603             53.080            122.308
 Electronic               0.000              0.000              0.000
 Translational            0.889              2.981             41.756
 Rotational               0.889              2.981             32.098
 Vibrational            181.826             47.119             48.454
 Vibration     1          0.594              1.983              5.736
 Vibration     2          0.594              1.981              5.215
 Vibration     3          0.596              1.974              4.493
 Vibration     4          0.599              1.965              3.987
 Vibration     5          0.608              1.937              3.183
 Vibration     6          0.612              1.923              2.936
 Vibration     7          0.614              1.917              2.861
 Vibration     8          0.627              1.874              2.386
 Vibration     9          0.641              1.829              2.064
 Vibration    10          0.657              1.780              1.807
 Vibration    11          0.663              1.761              1.723
 Vibration    12          0.670              1.742              1.646
 Vibration    13          0.691              1.677              1.427
 Vibration    14          0.704              1.639              1.320
 Vibration    15          0.749              1.515              1.044
 Vibration    16          0.779              1.437              0.908
 Vibration    17          0.832              1.306              0.724
 Vibration    18          0.877              1.202              0.606
 Vibration    19          0.927              1.094              0.502
 Vibration    20          0.941              1.065              0.478

                           ! Non-Optimized Parameters !
 Normal termination of Gaussian 16 at Mon May 22 17:46:09 2023.
