 Gaussian 16, Revision A.03,
 Gaussian 16:  ES64L-G16RevA.03 25-Dec-2016

 -----------------------------
 # opt freq b3lyp/6-31g(2df,p)
 -----------------------------

 -------------------
 Title Card Required
 -------------------
 Symbolic Z-matrix:
 Charge =  0 Multiplicity = 1

 SCF Done:  E(RB3LYP) =  -604.340163164     A.U. after   12 cycles
 SCF Done:  E(RB3LYP) =  -604.382926749     A.U. after   10 cycles
 SCF Done:  E(RB3LYP) =  -604.401234483     A.U. after   11 cycles
 SCF Done:  E(RB3LYP) =  -604.369591366     A.U. after   11 cycles
 SCF Done:  E(RB3LYP) =  -604.410909791     A.U. after   10 cycles
 SCF Done:  E(RB3LYP) =  -604.347060063     A.U. after   11 cycles
 SCF Done:  E(RB3LYP) =  -604.433810230     A.U. after   10 cycles
 SCF Done:  E(RB3LYP) =  -604.449289920     A.U. after   11 cycles
 SCF Done:  E(RB3LYP) =  -604.463014343     A.U. after   10 cycles
 SCF Done:  E(RB3LYP) =  -604.477975129     A.U. after   11 cycles
 SCF Done:  E(RB3LYP) =  -604.522169536     A.U. after    9 cycles
 SCF Done:  E(RB3LYP) =  -604.522179365     A.U. after   10 cycles
 SCF Done:  E(RB3LYP) =  -604.522187775     A.U. after    8 cycles
 SCF Done:  E(RB3LYP) =  -604.522193250     A.U. after    8 cycles
 SCF Done:  E(RB3LYP) =  -604.522196709     A.U. after    7 cycles
 SCF Done:  E(RB3LYP) =  -604.522197464     A.U. after    8 cycles
 SCF Done:  E(RB3LYP) =  -604.522198167     A.U. after    7 cycles
 SCF Done:  E(RB3LYP) =  -604.522198303     A.U. after    7 cycles
 SCF Done:  E(RB3LYP) =  -604.522198365     A.U. after    6 cycles
 Optimization completed.
    -- Stationary point found.
 Normal termination of Gaussian 16 at Sun May 28 12:28:12 2023.

 ----------------------------------------------------------------------
 #N Geom=AllCheck Guess=TCheck SCRF=Check GenChk RB3LYP/6-31G(2df,p) Fr
 eq
 ----------------------------------------------------------------------

 Structure from the checkpoint file:  "CC1CNCCCC2CCCCCCC12.chk"
 -------------------
 Title Card Required
 -------------------
 Charge =  0 Multiplicity = 1

                         Standard orientation:
 ---------------------------------------------------------------------
 Center     Atomic      Atomic             Coordinates (Angstroms)
 Number     Number       Type             X           Y           Z
 ---------------------------------------------------------------------
      1          6           0       -0.984290   -2.104050    1.367528
      2          6           0       -1.086528   -1.685388   -0.111987
      3          6           0       -2.555803   -1.316099   -0.452053
      4          7           0       -3.267369   -0.370164    0.399563
      5          6           0       -3.541997    0.977059   -0.063110
      6          6           0       -2.398558    2.005813   -0.035875
      7          6           0       -1.144392    1.562640   -0.806064
      8          6           0       -0.104284    0.729276    0.012777
      9          6           0        1.170735    1.605093    0.129021
     10          6           0        2.296369    1.214654    1.124070
     11          6           0        3.653193    0.909211    0.462025
     12          6           0        3.802709   -0.462753   -0.215648
     13          6           0        2.635926   -0.899888   -1.117392
     14          6           0        1.402243   -1.417511   -0.330307
     15          6           0        0.047779   -0.709937   -0.571128
     16          1           0       -1.804376   -2.782240    1.628055
     17          1           0       -1.037247   -1.248895    2.050602
     18          1           0       -0.049486   -2.627068    1.580766
     19          1           0       -0.912767   -2.599625   -0.698068
     20          1           0       -3.102868   -2.273108   -0.429826
     21          1           0       -2.622123   -0.963407   -1.487064
     22          1           0       -2.966761   -0.401490    1.363180
     23          1           0       -4.382245    1.372944    0.524044
     24          1           0       -3.910819    0.895414   -1.094479
     25          1           0       -2.131582    2.241981    1.003755
     26          1           0       -2.788464    2.938813   -0.464556
     27          1           0       -0.639057    2.455549   -1.189138
     28          1           0       -1.455332    1.010830   -1.699930
     29          1           0       -0.487170    0.626380    1.035802
     30          1           0        0.807488    2.597726    0.419950
     31          1           0        1.597048    1.750643   -0.870767
     32          1           0        1.985376    0.383509    1.766117
     33          1           0        2.450709    2.058579    1.805822
     34          1           0        4.447486    1.004715    1.212810
     35          1           0        3.849051    1.697523   -0.277948
     36          1           0        3.945160   -1.234191    0.553661
     37          1           0        4.731078   -0.452068   -0.800142
     38          1           0        2.994816   -1.704383   -1.768855
     39          1           0        2.355146   -0.085452   -1.794014
     40          1           0        1.636198   -1.425359    0.737428
     41          1           0        1.255899   -2.472265   -0.592067
     42          1           0       -0.052184   -0.622625   -1.663211
 ---------------------------------------------------------------------

 SCF Done:  E(RB3LYP) =  -604.522198365     A.U. after    1 cycles

 The electronic state is 1-A.
 Alpha  occ. eigenvalues --  -14.29698 -10.19552 -10.19520 -10.17961 -10.17838
 Alpha  occ. eigenvalues --  -10.17817 -10.17263 -10.17223 -10.17214 -10.17163
 Alpha  occ. eigenvalues --  -10.17118 -10.17050 -10.16935 -10.16917 -10.16885
 Alpha  occ. eigenvalues --   -0.88887  -0.82331  -0.78925  -0.78438  -0.75451
 Alpha  occ. eigenvalues --   -0.72520  -0.69456  -0.67210  -0.65796  -0.63147
 Alpha  occ. eigenvalues --   -0.58001  -0.57573  -0.56867  -0.55559  -0.53469
 Alpha  occ. eigenvalues --   -0.48076  -0.47043  -0.45561  -0.45026  -0.43791
 Alpha  occ. eigenvalues --   -0.43141  -0.42052  -0.41381  -0.40600  -0.40310
 Alpha  occ. eigenvalues --   -0.40033  -0.39315  -0.37611  -0.36613  -0.36222
 Alpha  occ. eigenvalues --   -0.35892  -0.35461  -0.34401  -0.33435  -0.32431
 Alpha  occ. eigenvalues --   -0.32187  -0.31727  -0.31438  -0.31014  -0.30302
 Alpha  occ. eigenvalues --   -0.29344  -0.28251  -0.27750  -0.19447
 Alpha virt. eigenvalues --    0.07605   0.08144   0.08986   0.09312   0.10573
 Alpha virt. eigenvalues --    0.11537   0.11921   0.13070   0.13576   0.14061
 Alpha virt. eigenvalues --    0.14612   0.15122   0.15616   0.16047   0.16591

 Mulliken charges:
               1
     1  C   -0.405811
     2  C    0.023273
     3  C   -0.181512
     4  N   -0.272510
     5  C   -0.150116
     6  C   -0.195163
     7  C   -0.198608
     8  C    0.039209
     9  C   -0.207039
    10  C   -0.212870
    11  C   -0.180330
    12  C   -0.183509
    13  C   -0.209970
    14  C   -0.202819
    15  C   -0.014503
    16  H    0.113826
    17  H    0.113123
    18  H    0.117112
    19  H    0.067840
    20  H    0.085791
    21  H    0.093511
    22  H    0.210522
    23  H    0.090229
    24  H    0.098807
    25  H    0.084775
    26  H    0.084972
    27  H    0.085671
    28  H    0.085914
    29  H    0.059000
    30  H    0.091252
    31  H    0.094711
    32  H    0.094826
    33  H    0.089291
    34  H    0.087452
    35  H    0.092016
    36  H    0.091219
    37  H    0.087113
    38  H    0.089017
    39  H    0.094539
    40  H    0.099044
    41  H    0.087168
    42  H    0.063538
 Sum of Mulliken charges =  -0.00000

 Dipole moment (field-independent basis, Debye):
    X=              0.7830    Y=              0.2041    Z=              0.0992  Tot=              0.8152
 Quadrupole moment (field-independent basis, Debye-Ang):
   XX=           -103.0004   YY=            -96.4167   ZZ=            -95.2428
   XY=             -1.8408   XZ=              0.0520   YZ=              0.2758

  Exact polarizability: 176.085  -3.020 153.668   0.558   1.153 130.105
 Approx polarizability: 215.789  -2.923 220.794   0.259  -0.249 215.834

                      1                      2                      3
                      A                      A                      A
 Frequencies --     38.0471                65.3931               110.9469
 Red. masses --      3.2168                 2.8267                 2.9271
 Frc consts  --      0.0027                 0.0071                 0.0212
 IR Inten    --      0.4053                 0.0613                 0.1240

                      4                      5                      6
                      A                      A                      A
 Frequencies --    150.7432               191.1081               194.1111
 Red. masses --      2.7392                 2.0683                 2.0616
 Frc consts  --      0.0367                 0.0445                 0.0458
 IR Inten    --      1.3907                 0.0627                 0.3393

                      7                      8                      9
                      A                      A                      A
 Frequencies --    198.0243               229.3744               238.7637
 Red. masses --      2.1738                 1.1486                 2.3655
 Frc consts  --      0.0502                 0.0356                 0.0795
 IR Inten    --      1.5248                 0.4158                 1.8627

                     10                     11                     12
                      A                      A                      A
 Frequencies --    243.2972               270.1275               284.6704
 Red. masses --      3.7239                 2.8837                 2.9779
 Frc consts  --      0.1299                 0.1240                 0.1422
 IR Inten    --      0.3346                 0.1938                 0.2279

                     13                     14                     15
                      A                      A                      A
 Frequencies --    294.2638               321.9930               338.3689
 Red. masses --      2.1447                 2.1965                 2.1736
 Frc consts  --      0.1094                 0.1342                 0.1466
 IR Inten    --      8.0478                 3.8361                10.4454

                     16                     17                     18
                      A                      A                      A
 Frequencies --    344.5970               385.5196               416.9034
 Red. masses --      2.1507                 2.3519                 2.3540
 Frc consts  --      0.1505                 0.2059                 0.2411
 IR Inten    --      0.7537                 3.2346                 0.3971

                     19                     20                     21
                      A                      A                      A
 Frequencies --    448.2205               482.5239               488.0490
 Red. masses --      2.5984                 1.8071                 1.6318
 Frc consts  --      0.3076                 0.2479                 0.2290
 IR Inten    --     14.4170                18.7007                 0.7036

                     22                     23                     24
                      A                      A                      A
 Frequencies --    517.4436               533.5586               554.3060
 Red. masses --      1.8243                 2.4380                 1.8978
 Frc consts  --      0.2878                 0.4089                 0.3436
 IR Inten    --      6.2439                 2.9814                56.2859

                     25                     26                     27
                      A                      A                      A
 Frequencies --    639.0737               709.1988               772.6454
 Red. masses --      2.6845                 1.7658                 2.7840
 Frc consts  --      0.6460                 0.5233                 0.9792
 IR Inten    --      5.6569                 0.0649                 4.4617

                     28                     29                     30
                      A                      A                      A
 Frequencies --    780.2722               820.1013               822.9384
 Red. masses --      1.8011                 1.9409                 2.3218
 Frc consts  --      0.6461                 0.7691                 0.9264
 IR Inten    --      2.1294                 2.8652                 6.3738

                     31                     32                     33
                      A                      A                      A
 Frequencies --    843.6716               862.1620               875.2942
 Red. masses --      1.6981                 1.7046                 1.7404
 Frc consts  --      0.7121                 0.7465                 0.7856
 IR Inten    --      1.5480                 0.5292                 0.0434

                     34                     35                     36
                      A                      A                      A
 Frequencies --    896.1055               916.5074               945.0863
 Red. masses --      2.0497                 2.2751                 1.9895
 Frc consts  --      0.9697                 1.1260                 1.0470
 IR Inten    --      2.4065                 2.5651                 4.2686

                     37                     38                     39
                      A                      A                      A
 Frequencies --    955.8117               958.2706               974.4099
 Red. masses --      2.6775                 2.2170                 1.8375
 Frc consts  --      1.4412                 1.1995                 1.0279
 IR Inten    --      7.3821                 0.7037                 1.7302

                     40                     41                     42
                      A                      A                      A
 Frequencies --    990.0690               998.0933              1024.8415
 Red. masses --      1.9099                 2.2423                 2.2109
 Frc consts  --      1.1030                 1.3161                 1.3681
 IR Inten    --      1.0557                 1.6672                 1.6638

                     43                     44                     45
                      A                      A                      A
 Frequencies --   1042.4682              1063.1640              1074.8670
 Red. masses --      1.7992                 2.0689                 2.5643
 Frc consts  --      1.1520                 1.3778                 1.7455
 IR Inten    --      1.9584                 0.9300                 0.8578

                     46                     47                     48
                      A                      A                      A
 Frequencies --   1083.1028              1087.7601              1108.2609
 Red. masses --      2.3264                 2.5439                 2.3837
 Frc consts  --      1.6080                 1.7734                 1.7250
 IR Inten    --      2.9316                 1.0309                 0.0504

                     49                     50                     51
                      A                      A                      A
 Frequencies --   1114.3820              1121.8672              1138.9276
 Red. masses --      1.9723                 2.1595                 1.6711
 Frc consts  --      1.4431                 1.6014                 1.2771
 IR Inten    --      0.2891                19.6602                 1.0374

                     52                     53                     54
                      A                      A                      A
 Frequencies --   1156.9662              1174.2066              1189.7284
 Red. masses --      1.6003                 1.5608                 2.5613
 Frc consts  --      1.2621                 1.2679                 2.1360
 IR Inten    --      0.3802                10.8069                32.8801

                     55                     56                     57
                      A                      A                      A
 Frequencies --   1209.7749              1233.1555              1240.1954
 Red. masses --      1.3548                 1.2908                 1.2303
 Frc consts  --      1.1683                 1.1565                 1.1149
 IR Inten    --      6.5294                 2.0691                 3.4191

                     58                     59                     60
                      A                      A                      A
 Frequencies --   1251.5466              1264.9249              1280.7177
 Red. masses --      1.2696                 1.2497                 1.2285
 Frc consts  --      1.1717                 1.1781                 1.1873
 IR Inten    --      2.1132                 0.1122                 1.3311

                     61                     62                     63
                      A                      A                      A
 Frequencies --   1290.7248              1292.7788              1309.4814
 Red. masses --      1.2581                 1.2746                 1.1658
 Frc consts  --      1.2349                 1.2551                 1.1778
 IR Inten    --      0.4930                 1.6314                 2.5200

                     64                     65                     66
                      A                      A                      A
 Frequencies --   1317.7063              1337.2440              1344.7960
 Red. masses --      1.1512                 1.2065                 1.3098
 Frc consts  --      1.1777                 1.2712                 1.3956
 IR Inten    --      0.6223                 1.7663                 0.1843

                     67                     68                     69
                      A                      A                      A
 Frequencies --   1359.7331              1366.0330              1367.8257
 Red. masses --      1.2861                 1.3171                 1.2619
 Frc consts  --      1.4009                 1.4481                 1.3911
 IR Inten    --      6.3818                 1.1127                 2.9120

                     70                     71                     72
                      A                      A                      A
 Frequencies --   1373.3284              1376.4320              1378.3661
 Red. masses --      1.2427                 1.3605                 1.3333
 Frc consts  --      1.3809                 1.5187                 1.4925
 IR Inten    --      0.2801                 0.2444                 1.6106

                     73                     74                     75
                      A                      A                      A
 Frequencies --   1382.7735              1390.7246              1392.4231
 Red. masses --      1.3344                 1.3156                 1.3852
 Frc consts  --      1.5033                 1.4992                 1.5823
 IR Inten    --      0.2602                 1.3726                 2.6766

                     76                     77                     78
                      A                      A                      A
 Frequencies --   1396.2645              1402.4134              1407.7899
 Red. masses --      1.3548                 1.2703                 1.2376
 Frc consts  --      1.5562                 1.4720                 1.4451
 IR Inten    --      4.7623                 8.5282                13.9985

                     79                     80                     81
                      A                      A                      A
 Frequencies --   1416.7591              1424.4526              1474.2391
 Red. masses --      1.3254                 1.2411                 1.0833
 Frc consts  --      1.5674                 1.4837                 1.3872
 IR Inten    --      3.5711                 6.8587                 5.9344

                     82                     83                     84
                      A                      A                      A
 Frequencies --   1484.4911              1484.8467              1486.3029
 Red. masses --      1.0860                 1.0834                 1.0816
 Frc consts  --      1.4100                 1.4074                 1.4077
 IR Inten    --      0.1564                 4.8197                 6.7207

                     85                     86                     87
                      A                      A                      A
 Frequencies --   1488.2038              1490.2730              1496.0835
 Red. masses --      1.0924                 1.0935                 1.0915
 Frc consts  --      1.4254                 1.4309                 1.4395
 IR Inten    --      0.8595                 1.9032                 1.1838

                     88                     89                     90
                      A                      A                      A
 Frequencies --   1499.4745              1504.7042              1509.5176
 Red. masses --      1.1219                 1.0963                 1.0938
 Frc consts  --      1.4862                 1.4625                 1.4684
 IR Inten    --     14.7191                 3.0374                13.2467

                     91                     92                     93
                      A                      A                      A
 Frequencies --   1513.2115              1516.0032              1519.3417
 Red. masses --      1.1078                 1.0973                 1.0835
 Frc consts  --      1.4945                 1.4858                 1.4737
 IR Inten    --      5.0301                 7.6808                 6.5381

                     94                     95                     96
                      A                      A                      A
 Frequencies --   2950.5098              2979.5392              2993.2984
 Red. masses --      1.0744                 1.0819                 1.0835
 Frc consts  --      5.5109                 5.6590                 5.7199
 IR Inten    --     65.1776                15.9315                51.0590

                     97                     98                     99
                      A                      A                      A
 Frequencies --   2996.5548              3004.9131              3005.9503
 Red. masses --      1.0616                 1.0638                 1.0613
 Frc consts  --      5.6162                 5.6592                 5.6498
 IR Inten    --     28.8199                50.7508                17.5702

                    100                    101                    102
                      A                      A                      A
 Frequencies --   3007.3514              3014.8974              3016.5695
 Red. masses --      1.0687                 1.0660                 1.0778
 Frc consts  --      5.6947                 5.7087                 5.7786
 IR Inten    --     20.4964                 8.5602                 9.5391

                    103                    104                    105
                      A                      A                      A
 Frequencies --   3020.8929              3027.3933              3030.7350
 Red. masses --      1.0712                 1.0818                 1.0670
 Frc consts  --      5.7594                 5.8415                 5.7744
 IR Inten    --     17.1101                35.6414                11.5569

                    106                    107                    108
                      A                      A                      A
 Frequencies --   3032.8303              3034.8218              3037.9021
 Red. masses --      1.0432                 1.0745                 1.0822
 Frc consts  --      5.6536                 5.8308                 5.8844
 IR Inten    --     15.5410                32.2987                28.6371

                    109                    110                    111
                      A                      A                      A
 Frequencies --   3046.7449              3049.5783              3051.2162
 Red. masses --      1.0877                 1.0924                 1.0954
 Frc consts  --      5.9486                 5.9856                 6.0084
 IR Inten    --     61.4945                37.3651                 3.8644

                    112                    113                    114
                      A                      A                      A
 Frequencies --   3056.3903              3058.4263              3064.8015
 Red. masses --      1.0960                 1.0932                 1.0992
 Frc consts  --      6.0322                 6.0250                 6.0834
 IR Inten    --     81.7285                32.3465                46.7646

                    115                    116                    117
                      A                      A                      A
 Frequencies --   3068.7453              3072.7160              3086.2556
 Red. masses --      1.0955                 1.0983                 1.0924
 Frc consts  --      6.0783                 6.1094                 6.1306
 IR Inten    --     76.6066                59.0954                52.5569

                    118                    119                    120
                      A                      A                      A
 Frequencies --   3089.0221              3118.3467              3585.6326
 Red. masses --      1.0988                 1.0970                 1.0735
 Frc consts  --      6.1774                 6.2849                 8.1318
 IR Inten    --     40.2025                27.9587                 0.4002

 - Thermochemistry -
 -------------------
 Temperature   298.150 Kelvin.  Pressure   1.00000 Atm.
 Atom     1 has atomic number  6 and mass  12.00000

 Molecular mass:   209.21435 amu.
 Principal axes and moments of inertia in atomic units:
                           1         2         3
     Eigenvalues --  1811.906454683.591895666.10616
           X            1.00000  -0.00279   0.00112
           Y            0.00279   0.99997  -0.00696
           Z           -0.00110   0.00696   0.99998
 This molecule is an asymmetric top.
 Rotational symmetry number  1.
 Warning -- assumption of classical behavior for rotation
           may cause significant error
 Rotational temperatures (Kelvin)      0.04780     0.01849     0.01529
 Rotational constants (GHZ):           0.99605     0.38533     0.31852
 Zero-point vibrational energy    1036311.2 (Joules/Mol)
                                  247.68432 (Kcal/Mol)
 Warning -- explicit consideration of  24 degrees of freedom as
           vibrations may cause significant error
 Vibrational temperatures:     54.74    94.09   159.63   216.89   274.96
          (Kelvin)            279.28   284.91   330.02   343.53   350.05
                              388.65   409.58   423.38   463.28   486.84
                              495.80   554.68   599.83   644.89   694.24
                              702.19   744.49   767.67   797.52   919.48
                             1020.38  1111.66  1122.64  1179.94  1184.02
                             1213.86  1240.46  1259.35  1289.30  1318.65
                             1359.77  1375.20  1378.74  1401.96  1424.49
                             1436.03  1474.52  1499.88  1529.66  1546.49
                             1558.34  1565.04  1594.54  1603.35  1614.12
                             1638.66  1664.62  1689.42  1711.75  1740.60
                             1774.24  1784.36  1800.70  1819.94  1842.67
                             1857.07  1860.02  1884.05  1895.89  1924.00
                             1934.86  1956.35  1965.42  1968.00  1975.91
                             1980.38  1983.16  1989.50  2000.94  2003.39
                             2008.91  2017.76  2025.50  2038.40  2049.47
                             2121.10  2135.85  2136.36  2138.46  2141.19
                             2144.17  2152.53  2157.41  2164.93  2171.86
                             2177.17  2181.19  2185.99  4245.13  4286.89
                             4306.69  4311.37  4323.40  4324.89  4326.91
                             4337.76  4340.17  4346.39  4355.74  4360.55
                             4363.57  4366.43  4370.86  4383.59  4387.66
                             4390.02  4397.46  4400.39  4409.57  4415.24
                             4420.95  4440.43  4444.41  4486.61  5158.93

 Zero-point correction=                           0.394710 (Hartree/Particle)
 Thermal correction to Energy=                    0.409947
 Thermal correction to Enthalpy=                  0.410891
 Thermal correction to Gibbs Free Energy=         0.353706
 Sum of electronic and zero-point Energies=           -604.127488
 Sum of electronic and thermal Energies=              -604.112251
 Sum of electronic and thermal Enthalpies=            -604.111307
 Sum of electronic and thermal Free Energies=         -604.168493

                     E (Thermal)             CV                S
                      KCal/Mol        Cal/Mol-Kelvin    Cal/Mol-Kelvin
 Total                  257.246             62.503            120.357
 Electronic               0.000              0.000              0.000
 Translational            0.889              2.981             41.918
 Rotational               0.889              2.981             32.242
 Vibrational            255.468             56.541             46.197
 Vibration     1          0.594              1.982              5.358
 Vibration     2          0.597              1.971              4.287
 Vibration     3          0.607              1.940              3.252
 Vibration     4          0.618              1.902              2.663
 Vibration     5          0.634              1.852              2.217
 Vibration     6          0.635              1.848              2.188
 Vibration     7          0.637              1.843              2.151
 Vibration     8          0.652              1.796              1.884
 Vibration     9          0.657              1.781              1.812
 Vibration    10          0.659              1.774              1.779
 Vibration    11          0.674              1.728              1.595
 Vibration    12          0.683              1.702              1.505
 Vibration    13          0.689              1.684              1.449
 Vibration    14          0.707              1.631              1.300
 Vibration    15          0.719              1.599              1.220
 Vibration    16          0.723              1.586              1.191
 Vibration    17          0.754              1.501              1.017
 Vibration    18          0.780              1.434              0.903
 Vibration    19          0.807              1.365              0.801
 Vibration    20          0.839              1.289              0.703
 Vibration    21          0.844              1.277              0.689
 Vibration    22          0.872              1.211              0.616
 Vibration    23          0.889              1.176              0.579
 Vibration    24          0.910              1.130              0.535

                           ! Non-Optimized Parameters !
 Normal termination of Gaussian 16 at Sun May 28 16:58:12 2023.
