 Gaussian 16, Revision A.03,
 Gaussian 16:  ES64L-G16RevA.03 25-Dec-2016

 -----------------------------
 # opt freq b3lyp/6-31g(2df,p)
 -----------------------------

 -------------------
 Title Card Required
 -------------------
 Symbolic Z-matrix:
 Charge =  0 Multiplicity = 1

 SCF Done:  E(RB3LYP) =  -471.770286500     A.U. after   12 cycles
 SCF Done:  E(RB3LYP) =  -471.775759579     A.U. after   10 cycles
 SCF Done:  E(RB3LYP) =  -471.776559029     A.U. after    9 cycles
 SCF Done:  E(RB3LYP) =  -471.776685247     A.U. after    8 cycles
 SCF Done:  E(RB3LYP) =  -471.776698773     A.U. after    8 cycles
 SCF Done:  E(RB3LYP) =  -471.776702057     A.U. after    6 cycles
 SCF Done:  E(RB3LYP) =  -471.776702596     A.U. after    6 cycles
 SCF Done:  E(RB3LYP) =  -471.776702655     A.U. after    5 cycles
 Optimization completed.
    -- Stationary point found.
 Normal termination of Gaussian 16 at Sun May 21 22:12:20 2023.

 ----------------------------------------------------------------------
 #N Geom=AllCheck Guess=TCheck SCRF=Check GenChk RB3LYP/6-31G(2df,p) Fr
 eq
 ----------------------------------------------------------------------

 Structure from the checkpoint file:  "CC1CCCCqCqCrCrCCC1.chk"
 -------------------
 Title Card Required
 -------------------
 Charge =  0 Multiplicity = 1

                         Standard orientation:
 ---------------------------------------------------------------------
 Center     Atomic      Atomic             Coordinates (Angstroms)
 Number     Number       Type             X           Y           Z
 ---------------------------------------------------------------------
      1          6           0       -3.724996   -0.000182    1.152385
      2          6           0       -2.336726   -0.000067    0.492530
      3          6           0       -2.147786   -1.297539   -0.310525
      4          6           0       -0.768868   -1.563415   -0.946489
      5          6           0        0.462739   -1.304906   -0.043831
      6          6           0        1.259188    0.000124   -0.287981
      7          6           0        2.583329    0.000046    0.539908
      8          6           0        3.450443   -1.247959    0.287805
      9          6           0        3.450905    1.247652    0.287399
     10          6           0        0.462665    1.305068   -0.043574
     11          6           0       -0.768969    1.563672   -0.946169
     12          6           0       -2.147862    1.297596   -0.310235
     13          1           0       -3.867606   -0.885277    1.781329
     14          1           0       -4.519618   -0.000125    0.396332
     15          1           0       -3.867661    0.884769    1.781520
     16          1           0       -1.598043   -0.000137    1.304823
     17          1           0       -2.914140   -1.345690   -1.097177
     18          1           0       -2.370147   -2.131833    0.368826
     19          1           0       -0.661989   -1.007709   -1.882273
     20          1           0       -0.761448   -2.618392   -1.245076
     21          1           0        1.150437   -2.138806   -0.196686
     22          1           0        0.170871   -1.359434    1.014180
     23          1           0        1.552945    0.000224   -1.351011
     24          1           0        2.303234    0.000257    1.604478
     25          1           0        3.663758   -1.368900   -0.781618
     26          1           0        2.987033   -2.170571    0.643236
     27          1           0        4.411260   -1.152135    0.803843
     28          1           0        3.664219    1.368190   -0.782069
     29          1           0        4.411709    1.151612    0.803422
     30          1           0        2.987879    2.170551    0.642579
     31          1           0        1.150298    2.139044   -0.196273
     32          1           0        0.170805    1.359368    1.014451
     33          1           0       -0.662074    1.008140   -1.882054
     34          1           0       -0.761614    2.618702   -1.244568
     35          1           0       -2.914234    1.345883   -1.096861
     36          1           0       -2.370250    2.131729    0.369305
 ---------------------------------------------------------------------

 SCF Done:  E(RB3LYP) =  -471.776702655     A.U. after    1 cycles

 The electronic state is 1-A.
 Alpha  occ. eigenvalues --  -10.18166 -10.17880 -10.17631 -10.17048 -10.17047
 Alpha  occ. eigenvalues --  -10.16976 -10.16976 -10.16887 -10.16886 -10.16650
 Alpha  occ. eigenvalues --  -10.16649 -10.16563  -0.82452  -0.80000  -0.76037
 Alpha  occ. eigenvalues --   -0.75297  -0.69729  -0.68194  -0.66060  -0.63374
 Alpha  occ. eigenvalues --   -0.58500  -0.57385  -0.54743  -0.53132  -0.47157
 Alpha  occ. eigenvalues --   -0.46038  -0.43933  -0.43498  -0.43039  -0.41693
 Alpha  occ. eigenvalues --   -0.40718  -0.39874  -0.38810  -0.38679  -0.37654
 Alpha  occ. eigenvalues --   -0.37286  -0.36568  -0.34713  -0.34206  -0.33328
 Alpha  occ. eigenvalues --   -0.32064  -0.31884  -0.31736  -0.31025  -0.31022
 Alpha  occ. eigenvalues --   -0.29630  -0.28614  -0.27607
 Alpha virt. eigenvalues --    0.07937   0.08769   0.09586   0.11714   0.11875
 Alpha virt. eigenvalues --    0.12344   0.13489   0.14211   0.14426   0.15271
 Alpha virt. eigenvalues --    0.15653   0.16331   0.16530   0.17291   0.17753

 Mulliken charges:
               1
     1  C   -0.397201
     2  C    0.045257
     3  C   -0.175110
     4  C   -0.227416
     5  C   -0.198733
     6  C    0.031546
     7  C    0.052233
     8  C   -0.399344
     9  C   -0.399339
    10  C   -0.198737
    11  C   -0.227406
    12  C   -0.175111
    13  H    0.105801
    14  H    0.109860
    15  H    0.105801
    16  H    0.071025
    17  H    0.085371
    18  H    0.088700
    19  H    0.097546
    20  H    0.086987
    21  H    0.094574
    22  H    0.088783
    23  H    0.062563
    24  H    0.067883
    25  H    0.109351
    26  H    0.116064
    27  H    0.105834
    28  H    0.109352
    29  H    0.105845
    30  H    0.116057
    31  H    0.094566
    32  H    0.088788
    33  H    0.097548
    34  H    0.086988
    35  H    0.085372
    36  H    0.088700
 Sum of Mulliken charges =  -0.00000

 Dipole moment (field-independent basis, Debye):
    X=              0.1520    Y=              0.0000    Z=              0.0219  Tot=              0.1536
 Quadrupole moment (field-independent basis, Debye-Ang):
   XX=            -81.2013   YY=            -79.6352   ZZ=            -79.1003
   XY=             -0.0001   XZ=              0.3648   YZ=              0.0000

  Exact polarizability: 150.997   0.000 125.360  -0.288   0.000 109.825
 Approx polarizability: 181.489   0.000 178.141   0.915   0.000 178.228

                      1                      2                      3
                      A                      A                      A
 Frequencies --     14.8494                58.2525               112.1162
 Red. masses --      2.4704                 3.0303                 1.9811
 Frc consts  --      0.0003                 0.0061                 0.0147
 IR Inten    --      0.0002                 0.0100                 0.0105

                      4                      5                      6
                      A                      A                      A
 Frequencies --    153.0519               157.8853               191.3609
 Red. masses --      2.5320                 2.2038                 1.4340
 Frc consts  --      0.0349                 0.0324                 0.0309
 IR Inten    --      0.1305                 0.0049                 0.1611

                      7                      8                      9
                      A                      A                      A
 Frequencies --    215.3624               222.4367               258.5934
 Red. masses --      1.3650                 1.1411                 1.5811
 Frc consts  --      0.0373                 0.0333                 0.0623
 IR Inten    --      0.0094                 0.0011                 0.1383

                     10                     11                     12
                      A                      A                      A
 Frequencies --    275.4621               279.0104               311.0851
 Red. masses --      2.4340                 2.2851                 2.1697
 Frc consts  --      0.1088                 0.1048                 0.1237
 IR Inten    --      0.0418                 0.0026                 0.0318

                     13                     14                     15
                      A                      A                      A
 Frequencies --    345.7924               354.4727               377.9918
 Red. masses --      1.7598                 2.4293                 1.9947
 Frc consts  --      0.1240                 0.1798                 0.1679
 IR Inten    --      0.2492                 0.0219                 0.0787

                     16                     17                     18
                      A                      A                      A
 Frequencies --    393.9466               421.4841               463.4620
 Red. masses --      2.7551                 2.2422                 2.1728
 Frc consts  --      0.2519                 0.2347                 0.2750
 IR Inten    --      0.0370                 0.3027                 0.1472

                     19                     20                     21
                      A                      A                      A
 Frequencies --    470.2899               508.4653               555.5949
 Red. masses --      2.2385                 2.0665                 3.0514
 Frc consts  --      0.2917                 0.3148                 0.5550
 IR Inten    --      0.0106                 0.0067                 0.7334

                     22                     23                     24
                      A                      A                      A
 Frequencies --    698.0660               779.6589               798.2950
 Red. masses --      1.7195                 1.3211                 2.5288
 Frc consts  --      0.4937                 0.4731                 0.9495
 IR Inten    --      0.3023                 4.3991                 0.8403

                     25                     26                     27
                      A                      A                      A
 Frequencies --    828.9825               846.9760               876.4060
 Red. masses --      2.5570                 2.0911                 1.6907
 Frc consts  --      1.0353                 0.8838                 0.7651
 IR Inten    --      0.5393                 0.1103                 0.3904

                     28                     29                     30
                      A                      A                      A
 Frequencies --    878.1188               924.8077               926.0853
 Red. masses --      1.5789                 2.1341                 1.1678
 Frc consts  --      0.7173                 1.0754                 0.5901
 IR Inten    --      0.3445                 1.4864                 0.5999

                     31                     32                     33
                      A                      A                      A
 Frequencies --    954.4774               968.2014               970.8927
 Red. masses --      1.6510                 1.5335                 1.7637
 Frc consts  --      0.8862                 0.8470                 0.9795
 IR Inten    --      2.8014                 0.1270                 0.5572

                     34                     35                     36
                      A                      A                      A
 Frequencies --    987.0094              1000.5106              1020.2053
 Red. masses --      1.9527                 2.1685                 2.1920
 Frc consts  --      1.1208                 1.2790                 1.3442
 IR Inten    --      0.0099                 2.4003                 0.4716

                     37                     38                     39
                      A                      A                      A
 Frequencies --   1059.1017              1072.3647              1098.6517
 Red. masses --      2.1408                 1.6270                 2.7261
 Frc consts  --      1.4148                 1.1024                 1.9387
 IR Inten    --      0.0970                 1.2053                 0.6695

                     40                     41                     42
                      A                      A                      A
 Frequencies --   1112.6946              1116.0425              1123.8033
 Red. masses --      2.1788                 2.3892                 1.3024
 Frc consts  --      1.5893                 1.7533                 0.9691
 IR Inten    --      0.0567                 0.7821                 0.5874

                     43                     44                     45
                      A                      A                      A
 Frequencies --   1157.0640              1176.1432              1182.4153
 Red. masses --      1.5338                 2.4511                 1.7518
 Frc consts  --      1.2099                 1.9977                 1.4430
 IR Inten    --      0.1232                 0.9257                 5.5530

                     46                     47                     48
                      A                      A                      A
 Frequencies --   1182.4834              1245.9093              1251.2344
 Red. masses --      2.0725                 1.4002                 1.2007
 Frc consts  --      1.7074                 1.2806                 1.1076
 IR Inten    --      0.0259                 3.3202                 0.5534

                     49                     50                     51
                      A                      A                      A
 Frequencies --   1262.9789              1277.4492              1300.1201
 Red. masses --      1.2848                 1.2262                 1.3404
 Frc consts  --      1.2074                 1.1790                 1.3349
 IR Inten    --      0.1211                 4.6143                 2.0323

                     52                     53                     54
                      A                      A                      A
 Frequencies --   1321.2953              1334.3963              1343.5100
 Red. masses --      1.1827                 1.1397                 1.2972
 Frc consts  --      1.2166                 1.1957                 1.3795
 IR Inten    --      3.6751                 0.7694                 3.7942

                     55                     56                     57
                      A                      A                      A
 Frequencies --   1353.7281              1361.6324              1365.4334
 Red. masses --      1.2368                 1.3406                 1.2922
 Frc consts  --      1.3354                 1.4645                 1.4195
 IR Inten    --      0.1346                 0.4011                 0.5433

                     58                     59                     60
                      A                      A                      A
 Frequencies --   1368.8740              1378.4794              1387.9644
 Red. masses --      1.3900                 1.3400                 1.3705
 Frc consts  --      1.5346                 1.5003                 1.5555
 IR Inten    --      1.5949                 1.2356                11.6155

                     61                     62                     63
                      A                      A                      A
 Frequencies --   1400.2183              1401.3908              1403.6348
 Red. masses --      1.3564                 1.3006                 1.3623
 Frc consts  --      1.5668                 1.5049                 1.5814
 IR Inten    --      0.2408                 0.0410                 1.0775

                     64                     65                     66
                      A                      A                      A
 Frequencies --   1404.1154              1421.0123              1423.3559
 Red. masses --      1.3303                 1.3222                 1.2095
 Frc consts  --      1.5453                 1.5730                 1.4437
 IR Inten    --      2.9856                 6.0961                 5.1471

                     67                     68                     69
                      A                      A                      A
 Frequencies --   1474.4643              1482.8982              1489.2700
 Red. masses --      1.0793                 1.0661                 1.0891
 Frc consts  --      1.3825                 1.3812                 1.4232
 IR Inten    --      0.1017                 1.9356                 2.0876

                     70                     71                     72
                      A                      A                      A
 Frequencies --   1490.1603              1491.9222              1495.3785
 Red. masses --      1.0696                 1.0815                 1.0751
 Frc consts  --      1.3994                 1.4183                 1.4164
 IR Inten    --      3.1723                 0.2283                 2.5277

                     73                     74                     75
                      A                      A                      A
 Frequencies --   1498.4903              1502.5040              1503.3158
 Red. masses --      1.0450                 1.0634                 1.0470
 Frc consts  --      1.3825                 1.4144                 1.3942
 IR Inten    --      7.4974                 2.7666                 0.1270

                     76                     77                     78
                      A                      A                      A
 Frequencies --   1507.1949              1523.0061              1523.5626
 Red. masses --      1.0609                 1.0465                 1.0821
 Frc consts  --      1.4199                 1.4301                 1.4799
 IR Inten    --      4.5612                 8.0712                 8.0079

                     79                     80                     81
                      A                      A                      A
 Frequencies --   2962.1891              2988.2493              2997.0923
 Red. masses --      1.0799                 1.0825                 1.0596
 Frc consts  --      5.5830                 5.6955                 5.6080
 IR Inten    --      7.2919                17.1174                17.8452

                     82                     83                     84
                      A                      A                      A
 Frequencies --   2999.4454              3009.3110              3014.2599
 Red. masses --      1.0605                 1.0797                 1.0705
 Frc consts  --      5.6213                 5.7611                 5.7304
 IR Inten    --     24.7683                24.0258                 2.4703

                     85                     86                     87
                      A                      A                      A
 Frequencies --   3021.6401              3023.3466              3024.8559
 Red. masses --      1.0547                 1.0578                 1.0396
 Frc consts  --      5.6736                 5.6967                 5.6046
 IR Inten    --     56.3793                20.7410                22.2131

                     88                     89                     90
                      A                      A                      A
 Frequencies --   3028.4825              3030.4239              3030.6397
 Red. masses --      1.0984                 1.0712                 1.0408
 Frc consts  --      5.9354                 5.7960                 5.6322
 IR Inten    --     10.7948                43.1092                29.5389

                     91                     92                     93
                      A                      A                      A
 Frequencies --   3032.5344              3038.9101              3069.7090
 Red. masses --      1.0722                 1.0944                 1.0961
 Frc consts  --      5.8096                 5.9550                 6.0854
 IR Inten    --     49.6461                47.5173                32.1066

                     94                     95                     96
                      A                      A                      A
 Frequencies --   3085.0440              3087.6458              3091.6721
 Red. masses --      1.0999                 1.0989                 1.0906
 Frc consts  --      6.1679                 6.1723                 6.1421
 IR Inten    --      0.2144                19.1820                69.9902

                     97                     98                     99
                      A                      A                      A
 Frequencies --   3092.4699              3093.1992              3095.5251
 Red. masses --      1.0916                 1.0976                 1.0926
 Frc consts  --      6.1506                 6.1876                 6.1683
 IR Inten    --     20.4718                83.0083                58.0059

                    100                    101                    102
                      A                      A                      A
 Frequencies --   3095.7915              3120.0571              3121.6696
 Red. masses --      1.1015                 1.0952                 1.0956
 Frc consts  --      6.2196                 6.2817                 6.2901
 IR Inten    --     37.8326                54.5566                14.9015

 - Thermochemistry -
 -------------------
 Temperature   298.150 Kelvin.  Pressure   1.00000 Atm.
 Atom     1 has atomic number  6 and mass  12.00000

 Molecular mass:   168.18780 amu.
 Principal axes and moments of inertia in atomic units:
                           1         2         3
     Eigenvalues --  1131.410203592.097284149.59500
           X            1.00000  -0.00000  -0.00226
           Y            0.00000   1.00000  -0.00000
           Z            0.00226   0.00000   1.00000
 This molecule is an asymmetric top.
 Rotational symmetry number  1.
 Warning -- assumption of classical behavior for rotation
           may cause significant error
 Rotational temperatures (Kelvin)      0.07655     0.02411     0.02087
 Rotational constants (GHZ):           1.59513     0.50242     0.43492
 Zero-point vibrational energy     891358.4 (Joules/Mol)
                                  213.03977 (Kcal/Mol)
 Warning -- explicit consideration of  21 degrees of freedom as
           vibrations may cause significant error
 Vibrational temperatures:     21.36    83.81   161.31   220.21   227.16
          (Kelvin)            275.33   309.86   320.04   372.06   396.33
                              401.43   447.58   497.52   510.01   543.85
                              566.80   606.42   666.82   676.64   731.57
                              799.38  1004.36  1121.76  1148.57  1192.72
                             1218.61  1260.95  1263.42  1330.59  1332.43
                             1373.28  1393.03  1396.90  1420.09  1439.51
                             1467.85  1523.81  1542.89  1580.71  1600.92
                             1605.74  1616.90  1664.76  1692.21  1701.23
                             1701.33  1792.59  1800.25  1817.15  1837.96
                             1870.58  1901.05  1919.90  1933.01  1947.71
                             1959.09  1964.55  1969.50  1983.32  1996.97
                             2014.60  2016.29  2019.52  2020.21  2044.52
                             2047.89  2121.43  2133.56  2142.73  2144.01
                             2146.54  2151.52  2155.99  2161.77  2162.94
                             2168.52  2191.27  2192.07  4261.93  4299.42
                             4312.15  4315.53  4329.73  4336.85  4347.47
                             4349.92  4352.09  4357.31  4360.10  4360.41
                             4363.14  4372.31  4416.63  4438.69  4442.43
                             4448.23  4449.37  4450.42  4453.77  4454.15
                             4489.07  4491.39

 Zero-point correction=                           0.339500 (Hartree/Particle)
 Thermal correction to Energy=                    0.353358
 Thermal correction to Enthalpy=                  0.354302
 Thermal correction to Gibbs Free Energy=         0.299061
 Sum of electronic and zero-point Energies=           -471.437202
 Sum of electronic and thermal Energies=              -471.423344
 Sum of electronic and thermal Enthalpies=            -471.422400
 Sum of electronic and thermal Free Energies=         -471.477642

                     E (Thermal)             CV                S
                      KCal/Mol        Cal/Mol-Kelvin    Cal/Mol-Kelvin
 Total                  221.736             54.308            116.265
 Electronic               0.000              0.000              0.000
 Translational            0.889              2.981             41.268
 Rotational               0.889              2.981             31.201
 Vibrational            219.958             48.346             43.797
 Vibration     1          0.593              1.986              7.226
 Vibration     2          0.596              1.974              4.516
 Vibration     3          0.607              1.939              3.232
 Vibration     4          0.619              1.899              2.634
 Vibration     5          0.621              1.894              2.575
 Vibration     6          0.634              1.852              2.215
 Vibration     7          0.645              1.818              1.998
 Vibration     8          0.648              1.807              1.939
 Vibration     9          0.667              1.748              1.671
 Vibration    10          0.677              1.719              1.562
 Vibration    11          0.679              1.712              1.540
 Vibration    12          0.700              1.653              1.357
 Vibration    13          0.724              1.584              1.185
 Vibration    14          0.730              1.566              1.146
 Vibration    15          0.748              1.517              1.047
 Vibration    16          0.761              1.483              0.985
 Vibration    17          0.784              1.424              0.887
 Vibration    18          0.821              1.331              0.756
 Vibration    19          0.827              1.316              0.737
 Vibration    20          0.864              1.231              0.637
 Vibration    21          0.911              1.127              0.533

                           ! Non-Optimized Parameters !
 Normal termination of Gaussian 16 at Mon May 22 00:18:14 2023.
