 Gaussian 16, Revision A.03,
 Gaussian 16:  ES64L-G16RevA.03 25-Dec-2016

 -----------------------------
 # opt freq b3lyp/6-31g(2df,p)
 -----------------------------

 -------------------
 Title Card Required
 -------------------
 Symbolic Z-matrix:
 Charge =  0 Multiplicity = 1

 SCF Done:  E(RB3LYP) =  -196.542703514     A.U. after   11 cycles
 SCF Done:  E(RB3LYP) =  -196.544474396     A.U. after   10 cycles
 SCF Done:  E(RB3LYP) =  -196.544650546     A.U. after    9 cycles
 SCF Done:  E(RB3LYP) =  -196.544689305     A.U. after    8 cycles
 SCF Done:  E(RB3LYP) =  -196.544690358     A.U. after    6 cycles
 SCF Done:  E(RB3LYP) =  -196.544690894     A.U. after    6 cycles
 SCF Done:  E(RB3LYP) =  -196.544691047     A.U. after    6 cycles
 SCF Done:  E(RB3LYP) =  -196.544691073     A.U. after    5 cycles
 Optimization completed.
    -- Stationary point found.
 Normal termination of Gaussian 16 at Sun May 28 02:29:25 2023.

 ----------------------------------------------------------------------
 #N Geom=AllCheck Guess=TCheck SCRF=Check GenChk RB3LYP/6-31G(2df,p) Fr
 eq
 ----------------------------------------------------------------------

 Structure from the checkpoint file:  "CC1CCC1.chk"
 -------------------
 Title Card Required
 -------------------
 Charge =  0 Multiplicity = 1

                         Standard orientation:
 ---------------------------------------------------------------------
 Center     Atomic      Atomic             Coordinates (Angstroms)
 Number     Number       Type             X           Y           Z
 ---------------------------------------------------------------------
      1          6           0       -1.755178    0.000019    0.352240
      2          6           0       -0.530233    0.000062   -0.557314
      3          6           0        0.529669   -1.088450   -0.204377
      4          6           0        1.384782   -0.000063    0.501331
      5          6           0        0.529790    1.088454   -0.204302
      6          1           0       -2.376745   -0.885700    0.179278
      7          1           0       -2.376802    0.885716    0.179409
      8          1           0       -1.466631   -0.000056    1.410028
      9          1           0       -0.855119    0.000156   -1.602524
     10          1           0        1.023344   -1.491312   -1.093221
     11          1           0        0.184661   -1.928160    0.406157
     12          1           0        2.457976   -0.000099    0.296321
     13          1           0        1.247906   -0.000114    1.586079
     14          1           0        1.023502    1.491188   -1.093186
     15          1           0        0.184927    1.928251    0.406191
 ---------------------------------------------------------------------

 SCF Done:  E(RB3LYP) =  -196.544691073     A.U. after    1 cycles

 The electronic state is 1-A.
 Alpha  occ. eigenvalues --  -10.17946 -10.17351 -10.17151 -10.17150 -10.16919
 Alpha  occ. eigenvalues --   -0.83413  -0.71354  -0.64968  -0.61431  -0.52245
 Alpha  occ. eigenvalues --   -0.47973  -0.45638  -0.41188  -0.38637  -0.37329
 Alpha  occ. eigenvalues --   -0.36449  -0.32772  -0.30563  -0.29016  -0.28750
 Alpha virt. eigenvalues --    0.08876   0.10330   0.12581   0.13896   0.15354
 Alpha virt. eigenvalues --    0.16781   0.16988   0.18535   0.19263   0.20529
 Alpha virt. eigenvalues --    0.21260   0.23199   0.25240   0.26542   0.34640

 Mulliken charges:
               1
     1  C   -0.387739
     2  C    0.046710
     3  C   -0.210641
     4  C   -0.197947
     5  C   -0.210641
     6  H    0.110678
     7  H    0.110675
     8  H    0.111268
     9  H    0.062210
    10  H    0.095301
    11  H    0.090360
    12  H    0.093825
    13  H    0.100281
    14  H    0.095302
    15  H    0.090358
 Sum of Mulliken charges =  -0.00000

 Dipole moment (field-independent basis, Debye):
    X=             -0.0108    Y=             -0.0000    Z=             -0.0722  Tot=              0.0730
 Quadrupole moment (field-independent basis, Debye-Ang):
   XX=            -33.3471   YY=            -33.4315   ZZ=            -32.5713
   XY=             -0.0001   XZ=             -0.2750   YZ=             -0.0000

  Exact polarizability:  56.444   0.000  51.979  -0.202  -0.000  48.891
 Approx polarizability:  72.124   0.000  71.765  -0.183  -0.000  71.036

                      1                      2                      3
                      A                      A                      A
 Frequencies --    114.7046               253.0383               326.2829
 Red. masses --      1.8423                 1.0343                 2.0079
 Frc consts  --      0.0143                 0.0390                 0.1259
 IR Inten    --      0.0106                 0.0024                 0.0997

                      4                      5                      6
                      A                      A                      A
 Frequencies --    363.1094               671.7602               764.7570
 Red. masses --      1.9797                 1.5621                 1.2575
 Frc consts  --      0.1538                 0.4153                 0.4333
 IR Inten    --      0.2796                 2.4222                 0.0005

                      7                      8                      9
                      A                      A                      A
 Frequencies --    777.1754               871.1820               897.1473
 Red. masses --      2.0661                 2.1809                 2.0600
 Frc consts  --      0.7353                 0.9752                 0.9769
 IR Inten    --      0.3330                 0.5526                 0.0563

                     10                     11                     12
                      A                      A                      A
 Frequencies --    915.3554               942.1041               975.1577
 Red. masses --      1.5996                 2.3366                 1.9786
 Frc consts  --      0.7897                 1.2219                 1.1086
 IR Inten    --      0.4407                 0.9621                 0.0158

                     13                     14                     15
                      A                      A                      A
 Frequencies --    990.9971              1080.2924              1139.7271
 Red. masses --      1.1040                 2.2069                 1.3496
 Frc consts  --      0.6388                 1.5174                 1.0329
 IR Inten    --      0.4669                 0.2918                 0.4811

                     16                     17                     18
                      A                      A                      A
 Frequencies --   1184.4591              1190.7700              1250.0881
 Red. masses --      2.1493                 1.3352                 1.3348
 Frc consts  --      1.7766                 1.1154                 1.2289
 IR Inten    --      0.1620                 1.0804                 0.0615

                     19                     20                     21
                      A                      A                      A
 Frequencies --   1257.2477              1266.2274              1289.0077
 Red. masses --      1.2230                 1.3328                 1.5273
 Frc consts  --      1.1390                 1.2590                 1.4952
 IR Inten    --      0.0269                 0.0092                 0.3077

                     22                     23                     24
                      A                      A                      A
 Frequencies --   1290.4216              1365.1184              1410.3628
 Red. masses --      1.5387                 1.4300                 1.2625
 Frc consts  --      1.5096                 1.5701                 1.4796
 IR Inten    --      0.1067                 6.4761                 2.0825

                     25                     26                     27
                      A                      A                      A
 Frequencies --   1475.7570              1482.2826              1497.8804
 Red. masses --      1.0841                 1.0796                 1.0522
 Frc consts  --      1.3911                 1.3975                 1.3909
 IR Inten    --      1.1294                 0.4736                 1.1184

                     28                     29                     30
                      A                      A                      A
 Frequencies --   1498.0434              1507.4435              3020.6090
 Red. masses --      1.0450                 1.1293                 1.0350
 Frc consts  --      1.3817                 1.5120                 5.5637
 IR Inten    --      4.2818                 0.4748                27.5510

                     31                     32                     33
                      A                      A                      A
 Frequencies --   3040.5529              3046.7282              3051.4482
 Red. masses --      1.0785                 1.0573                 1.0635
 Frc consts  --      5.8748                 5.7827                 5.8343
 IR Inten    --     13.2450                82.2475                30.3999

                     34                     35                     36
                      A                      A                      A
 Frequencies --   3062.4267              3087.0806              3089.4529
 Red. masses --      1.0639                 1.1039                 1.1017
 Frc consts  --      5.8787                 6.1983                 6.1953
 IR Inten    --     14.8260                15.3991                26.5693

                     37                     38                     39
                      A                      A                      A
 Frequencies --   3090.2799              3097.6371              3115.8875
 Red. masses --      1.1037                 1.1075                 1.1069
 Frc consts  --      6.2101                 6.2613                 6.3316
 IR Inten    --     49.8243                 8.9845                77.8960

 - Thermochemistry -
 -------------------
 Temperature   298.150 Kelvin.  Pressure   1.00000 Atm.
 Atom     1 has atomic number  6 and mass  12.00000

 Molecular mass:    70.07825 amu.
 Principal axes and moments of inertia in atomic units:
                           1         2         3
     Eigenvalues --   218.65445 405.15320 486.40595
           X            0.99992   0.00000  -0.01243
           Y           -0.00000   1.00000  -0.00001
           Z            0.01243   0.00001   0.99992
 This molecule is an asymmetric top.
 Rotational symmetry number  1.
 Rotational temperatures (Kelvin)      0.39612     0.21378     0.17807
 Rotational constants (GHZ):           8.25385     4.45447     3.71036
 Zero-point vibrational energy     363365.7 (Joules/Mol)
                                   86.84649 (Kcal/Mol)
 Warning -- explicit consideration of   4 degrees of freedom as
           vibrations may cause significant error
 Vibrational temperatures:    165.03   364.07   469.45   522.43   966.51
          (Kelvin)           1100.31  1118.18  1253.44  1290.79  1316.99
                             1355.48  1403.03  1425.82  1554.30  1639.81
                             1704.17  1713.25  1798.60  1808.90  1821.82
                             1854.59  1856.63  1964.10  2029.20  2123.29
                             2132.67  2155.12  2155.35  2168.88  4345.98
                             4374.68  4383.56  4390.35  4406.15  4441.62
                             4445.03  4446.22  4456.81  4483.07

 Zero-point correction=                           0.138399 (Hartree/Particle)
 Thermal correction to Energy=                    0.143933
 Thermal correction to Enthalpy=                  0.144877
 Thermal correction to Gibbs Free Energy=         0.110085
 Sum of electronic and zero-point Energies=           -196.406292
 Sum of electronic and thermal Energies=              -196.400758
 Sum of electronic and thermal Enthalpies=            -196.399814
 Sum of electronic and thermal Free Energies=         -196.434606

                     E (Thermal)             CV                S
                      KCal/Mol        Cal/Mol-Kelvin    Cal/Mol-Kelvin
 Total                   90.319             20.268             73.226
 Electronic               0.000              0.000              0.000
 Translational            0.889              2.981             38.658
 Rotational               0.889              2.981             25.269
 Vibrational             88.542             14.307              9.299
 Vibration     1          0.608              1.937              3.188
 Vibration     2          0.664              1.758              1.709
 Vibration     3          0.710              1.623              1.278
 Vibration     4          0.737              1.548              1.109

 Optimization completed.
    -- Stationary point found.
 Normal termination of Gaussian 16 at Sun May 28 02:39:15 2023.
