 Gaussian 16, Revision A.03,
 Gaussian 16:  ES64L-G16RevA.03 25-Dec-2016

 -----------------------------
 # opt freq b3lyp/6-31g(2df,p)
 -----------------------------

 -------------------
 Title Card Required
 -------------------
 Symbolic Z-matrix:
 Charge =  0 Multiplicity = 1

 SCF Done:  E(RB3LYP) =  -602.247419329     A.U. after   12 cycles
 SCF Done:  E(RB3LYP) =  -602.278046126     A.U. after   11 cycles
 SCF Done:  E(RB3LYP) =  -602.291419540     A.U. after   11 cycles
 SCF Done:  E(RB3LYP) =  -602.299625362     A.U. after   10 cycles
 SCF Done:  E(RB3LYP) =  -602.303898501     A.U. after   11 cycles
 SCF Done:  E(RB3LYP) =  -602.307208327     A.U. after   11 cycles
 SCF Done:  E(RB3LYP) =  -602.307866031     A.U. after   10 cycles
 SCF Done:  E(RB3LYP) =  -602.308118101     A.U. after   10 cycles
 SCF Done:  E(RB3LYP) =  -602.308447196     A.U. after   10 cycles
 SCF Done:  E(RB3LYP) =  -602.308593960     A.U. after   10 cycles
 SCF Done:  E(RB3LYP) =  -602.308670887     A.U. after    9 cycles
 SCF Done:  E(RB3LYP) =  -602.308688009     A.U. after    8 cycles
 SCF Done:  E(RB3LYP) =  -602.308697861     A.U. after    8 cycles
 SCF Done:  E(RB3LYP) =  -602.308699854     A.U. after    7 cycles
 SCF Done:  E(RB3LYP) =  -602.308700611     A.U. after    6 cycles
 SCF Done:  E(RB3LYP) =  -602.308700719     A.U. after    5 cycles
 Optimization completed.
    -- Stationary point found.
 Normal termination of Gaussian 16 at Mon May 22 01:26:06 2023.

 ----------------------------------------------------------------------
 #N Geom=AllCheck Guess=TCheck SCRF=Check GenChk RB3LYP/6-31G(2df,p) Fr
 eq
 ----------------------------------------------------------------------

 Structure from the checkpoint file:  "CC1CCqCCOrCCCCCC1N.chk"
 -------------------
 Title Card Required
 -------------------
 Charge =  0 Multiplicity = 1

                         Standard orientation:
 ---------------------------------------------------------------------
 Center     Atomic      Atomic             Coordinates (Angstroms)
 Number     Number       Type             X           Y           Z
 ---------------------------------------------------------------------
      1          6           0        2.556512   -1.135458    1.470715
      2          6           0        1.708367   -1.437006    0.221331
      3          6           0        0.199679   -1.727318    0.526013
      4          6           0       -0.986897   -0.744941    0.859998
      5          6           0       -1.987502   -0.586298   -0.309728
      6          6           0       -3.414257   -0.261517    0.147486
      7          8           0       -4.335825   -0.213778   -0.931161
      8          6           0       -0.663595    0.593039    1.591410
      9          6           0       -0.691409    1.917798    0.799810
     10          6           0        0.291960    2.083188   -0.367984
     11          6           0        1.768807    1.890543    0.034580
     12          6           0        2.578531    0.893365   -0.806781
     13          6           0        2.109324   -0.573085   -1.024249
     14          7           0        1.177234   -0.676629   -2.162626
     15          1           0        2.393635   -1.902523    2.235492
     16          1           0        2.340684   -0.168370    1.927500
     17          1           0        3.623558   -1.146051    1.221998
     18          1           0        2.028588   -2.447796   -0.074281
     19          1           0        0.259618   -2.416057    1.378023
     20          1           0       -0.160450   -2.351555   -0.299340
     21          1           0       -1.549624   -1.327866    1.601282
     22          1           0       -2.042394   -1.523492   -0.875402
     23          1           0       -1.667485    0.186709   -1.019267
     24          1           0       -3.439037    0.671634    0.730807
     25          1           0       -3.776223   -1.058513    0.807300
     26          1           0       -4.078456    0.514421   -1.505440
     27          1           0        0.295180    0.491254    2.106919
     28          1           0       -1.398147    0.714786    2.396749
     29          1           0       -0.499933    2.720181    1.525279
     30          1           0       -1.708564    2.100013    0.432052
     31          1           0        0.147998    3.085154   -0.789006
     32          1           0        0.036938    1.401355   -1.181521
     33          1           0        1.820573    1.605982    1.088943
     34          1           0        2.291161    2.853146   -0.019230
     35          1           0        3.584147    0.850475   -0.370334
     36          1           0        2.704623    1.299344   -1.817069
     37          1           0        3.026034   -1.051707   -1.393822
     38          1           0        0.223725   -0.494531   -1.869102
     39          1           0        1.172688   -1.633230   -2.506454
 ---------------------------------------------------------------------

 SCF Done:  E(RB3LYP) =  -602.308700719     A.U. after    1 cycles

 The electronic state is 1-A.
 Alpha  occ. eigenvalues --  -19.13121 -14.30119 -10.22340 -10.20521 -10.19043
 Alpha  occ. eigenvalues --  -10.18664 -10.17995 -10.17855 -10.17844 -10.17832
 Alpha  occ. eigenvalues --  -10.17305 -10.17153 -10.17143 -10.16927  -1.01198
 Alpha  occ. eigenvalues --   -0.87776  -0.81638  -0.78599  -0.77656  -0.73861
 Alpha  occ. eigenvalues --   -0.70274  -0.69315  -0.65794  -0.62734  -0.59554
 Alpha  occ. eigenvalues --   -0.58999  -0.54259  -0.52155  -0.50058  -0.49423
 Alpha  occ. eigenvalues --   -0.46859  -0.46177  -0.45029  -0.44298  -0.43113
 Alpha  occ. eigenvalues --   -0.42966  -0.41310  -0.40412  -0.39845  -0.39104
 Alpha  occ. eigenvalues --   -0.37640  -0.37402  -0.36968  -0.36082  -0.35151
 Alpha  occ. eigenvalues --   -0.34437  -0.33598  -0.32478  -0.31631  -0.31413
 Alpha  occ. eigenvalues --   -0.30710  -0.30172  -0.29026  -0.28239  -0.26109
 Alpha  occ. eigenvalues --   -0.22961
 Alpha virt. eigenvalues --    0.05242   0.06695   0.08233   0.08850   0.10070
 Alpha virt. eigenvalues --    0.10613   0.11567   0.13011   0.13657   0.13876
 Alpha virt. eigenvalues --    0.14493   0.15417   0.15746   0.16565   0.17126

 Mulliken charges:
               1
     1  C   -0.413065
     2  C    0.025331
     3  C   -0.261695
     4  C    0.031776
     5  C   -0.220395
     6  C   -0.074218
     7  O   -0.418624
     8  C   -0.218643
     9  C   -0.198175
    10  C   -0.186224
    11  C   -0.193484
    12  C   -0.193116
    13  C    0.002093
    14  N   -0.521673
    15  H    0.107391
    16  H    0.125681
    17  H    0.110921
    18  H    0.076654
    19  H    0.096804
    20  H    0.087712
    21  H    0.079754
    22  H    0.100660
    23  H    0.088102
    24  H    0.093357
    25  H    0.109011
    26  H    0.280510
    27  H    0.099881
    28  H    0.096746
    29  H    0.092415
    30  H    0.085451
    31  H    0.093337
    32  H    0.102733
    33  H    0.092889
    34  H    0.092654
    35  H    0.088039
    36  H    0.104773
    37  H    0.081602
    38  H    0.232313
    39  H    0.220723
 Sum of Mulliken charges =  -0.00000

 Dipole moment (field-independent basis, Debye):
    X=              0.9816    Y=              0.0179    Z=              0.9708  Tot=              1.3807
 Quadrupole moment (field-independent basis, Debye-Ang):
   XX=            -99.8907   YY=            -86.7708   ZZ=            -92.4870
   XY=             -5.0958   XZ=              0.3867   YZ=             -0.0795

  Exact polarizability: 151.723  -0.673 135.322  -0.103  -1.204 126.496
 Approx polarizability: 199.051   0.456 195.469   1.919  -0.810 194.415

                      1                      2                      3
                      A                      A                      A
 Frequencies --     32.9678                69.2359               102.9465
 Red. masses --      3.6592                 4.0106                 2.6531
 Frc consts  --      0.0023                 0.0113                 0.0166
 IR Inten    --      0.5693                 1.5948                 0.1930

                      4                      5                      6
                      A                      A                      A
 Frequencies --    119.8046               124.8900               163.0155
 Red. masses --      2.3398                 2.5208                 2.4641
 Frc consts  --      0.0198                 0.0232                 0.0386
 IR Inten    --      5.1244                 2.1066                 0.1365

                      7                      8                      9
                      A                      A                      A
 Frequencies --    169.7381               197.5415               220.0807
 Red. masses --      3.4890                 1.9897                 2.1790
 Frc consts  --      0.0592                 0.0457                 0.0622
 IR Inten    --      2.5299                 5.9725                 0.8307

                     10                     11                     12
                      A                      A                      A
 Frequencies --    236.2587               244.8292               267.8720
 Red. masses --      1.4648                 2.8804                 1.3437
 Frc consts  --      0.0482                 0.1017                 0.0568
 IR Inten    --      0.2089                 0.7089                25.0030

                     13                     14                     15
                      A                      A                      A
 Frequencies --    282.2116               290.2954               297.7879
 Red. masses --      2.1219                 1.8806                 1.2057
 Frc consts  --      0.0996                 0.0934                 0.0630
 IR Inten    --      4.0967                29.5465                72.4274

                     16                     17                     18
                      A                      A                      A
 Frequencies --    311.0212               345.2570               383.8011
 Red. masses --      2.1579                 2.0955                 2.2334
 Frc consts  --      0.1230                 0.1472                 0.1938
 IR Inten    --      0.1278                 8.0512                 0.4616

                     19                     20                     21
                      A                      A                      A
 Frequencies --    400.0910               421.7898               438.7522
 Red. masses --      2.0704                 2.2285                 3.2125
 Frc consts  --      0.1953                 0.2336                 0.3644
 IR Inten    --      9.3765                 2.0813                 3.4622

                     22                     23                     24
                      A                      A                      A
 Frequencies --    453.8458               528.5486               590.4271
 Red. masses --      3.0622                 2.6863                 2.1023
 Frc consts  --      0.3716                 0.4422                 0.4318
 IR Inten    --      0.6419                 1.4802                 2.9151

                     25                     26                     27
                      A                      A                      A
 Frequencies --    633.9783               718.1582               729.5140
 Red. masses --      3.0891                 2.0417                 2.7752
 Frc consts  --      0.7315                 0.6204                 0.8702
 IR Inten    --      1.0172                 2.9961                 0.5061

                     28                     29                     30
                      A                      A                      A
 Frequencies --    738.5305               771.0193               789.1255
 Red. masses --      1.6424                 2.3892                 1.2470
 Frc consts  --      0.5278                 0.8368                 0.4575
 IR Inten    --      3.9075                 0.6253                 4.2208

                     31                     32                     33
                      A                      A                      A
 Frequencies --    837.3062               848.3178               880.3558
 Red. masses --      2.0988                 1.7795                 1.7426
 Frc consts  --      0.8670                 0.7545                 0.7957
 IR Inten    --     10.2888                 8.9471                76.3138

                     34                     35                     36
                      A                      A                      A
 Frequencies --    891.5322               915.0296               946.4832
 Red. masses --      2.0156                 2.0075                 1.9789
 Frc consts  --      0.9439                 0.9903                 1.0445
 IR Inten    --      2.6032                45.3863                 3.2946

                     37                     38                     39
                      A                      A                      A
 Frequencies --    979.1618              1004.4645              1016.8772
 Red. masses --      2.0174                 1.9108                 2.3187
 Frc consts  --      1.1396                 1.1359                 1.4126
 IR Inten    --      7.5623                 2.8361                 8.5860

                     40                     41                     42
                      A                      A                      A
 Frequencies --   1020.0944              1037.2849              1051.3584
 Red. masses --      1.7858                 2.2626                 1.9428
 Frc consts  --      1.0949                 1.4343                 1.2652
 IR Inten    --     21.7390                 9.5938                 3.9703

                     43                     44                     45
                      A                      A                      A
 Frequencies --   1065.5059              1076.4243              1079.6973
 Red. masses --      2.0164                 3.6582                 2.3861
 Frc consts  --      1.3487                 2.4974                 1.6389
 IR Inten    --      0.9076                68.6112                46.1143

                     46                     47                     48
                      A                      A                      A
 Frequencies --   1104.5117              1114.7822              1136.6856
 Red. masses --      2.2566                 1.9262                 2.6075
 Frc consts  --      1.6220                 1.4104                 1.9850
 IR Inten    --      1.4300                 2.3349                 7.2689

                     49                     50                     51
                      A                      A                      A
 Frequencies --   1149.6745              1166.8028              1186.5747
 Red. masses --      1.4445                 1.9055                 1.2169
 Frc consts  --      1.1249                 1.5284                 1.0095
 IR Inten    --      6.5171                 1.7933                 0.3610

                     52                     53                     54
                      A                      A                      A
 Frequencies --   1204.5572              1217.1782              1237.2916
 Red. masses --      1.2156                 2.8396                 1.4407
 Frc consts  --      1.0392                 2.4787                 1.2995
 IR Inten    --      0.6661                 2.8303                 4.2945

                     55                     56                     57
                      A                      A                      A
 Frequencies --   1256.5867              1299.6016              1302.6526
 Red. masses --      1.1965                 1.1828                 1.3269
 Frc consts  --      1.1131                 1.1771                 1.3266
 IR Inten    --      0.9276                 0.1870                 1.2138

                     58                     59                     60
                      A                      A                      A
 Frequencies --   1313.2132              1315.9970              1323.7985
 Red. masses --      1.1773                 1.1461                 1.1549
 Frc consts  --      1.1962                 1.1695                 1.1925
 IR Inten    --      3.2233                 2.8137                 0.2539

                     61                     62                     63
                      A                      A                      A
 Frequencies --   1335.3536              1350.4599              1356.3408
 Red. masses --      1.1006                 1.2674                 1.2418
 Frc consts  --      1.1563                 1.3619                 1.3460
 IR Inten    --      1.5412                 0.1650                 2.0505

                     64                     65                     66
                      A                      A                      A
 Frequencies --   1369.0574              1376.4496              1386.3801
 Red. masses --      1.2977                 1.2559                 1.2891
 Frc consts  --      1.4331                 1.4019                 1.4598
 IR Inten    --      2.1463                13.8738                 6.1646

                     67                     68                     69
                      A                      A                      A
 Frequencies --   1392.5812              1395.9549              1404.9440
 Red. masses --      1.2882                 1.3222                 1.3535
 Frc consts  --      1.4719                 1.5180                 1.5741
 IR Inten    --      5.7486                 2.3003                 4.0480

                     70                     71                     72
                      A                      A                      A
 Frequencies --   1406.7670              1410.9581              1412.3672
 Red. masses --      1.2750                 1.2917                 1.3104
 Frc consts  --      1.4866                 1.5151                 1.5401
 IR Inten    --      1.2674                 5.4251                 0.3459

                     73                     74                     75
                      A                      A                      A
 Frequencies --   1419.0919              1426.5792              1437.2820
 Red. masses --      1.2420                 1.2595                 1.2778
 Frc consts  --      1.4737                 1.5102                 1.5552
 IR Inten    --     40.7629                19.3952                 8.3882

                     76                     77                     78
                      A                      A                      A
 Frequencies --   1474.6533              1478.8622              1481.4824
 Red. masses --      1.0818                 1.0745                 1.0871
 Frc consts  --      1.3861                 1.3846                 1.4058
 IR Inten    --      3.8307                 0.7927                 8.2247

                     79                     80                     81
                      A                      A                      A
 Frequencies --   1485.8018              1496.1780              1496.4915
 Red. masses --      1.0830                 1.0639                 1.0799
 Frc consts  --      1.4086                 1.4032                 1.4249
 IR Inten    --      7.1929                 1.5467                 1.1065

                     82                     83                     84
                      A                      A                      A
 Frequencies --   1503.7914              1507.2011              1513.8753
 Red. masses --      1.0829                 1.0629                 1.0926
 Frc consts  --      1.4429                 1.4227                 1.4754
 IR Inten    --      2.0642                 2.2734                 0.9422

                     85                     86                     87
                      A                      A                      A
 Frequencies --   1514.4538              1665.1616              2962.3542
 Red. masses --      1.0739                 1.0884                 1.0827
 Frc consts  --      1.4511                 1.7781                 5.5981
 IR Inten    --      9.2469                13.8926                13.6820

                     88                     89                     90
                      A                      A                      A
 Frequencies --   2984.1456              2986.7083              3001.4933
 Red. masses --      1.0803                 1.0690                 1.0805
 Frc consts  --      5.6678                 5.6185                 5.7354
 IR Inten    --      6.2552                37.0762                19.4509

                     91                     92                     93
                      A                      A                      A
 Frequencies --   3010.4243              3021.4908              3022.9021
 Red. masses --      1.0649                 1.0658                 1.0694
 Frc consts  --      5.6862                 5.7327                 5.7574
 IR Inten    --     13.9106                31.0513                34.0611

                     94                     95                     96
                      A                      A                      A
 Frequencies --   3025.5214              3030.9410              3035.6266
 Red. masses --      1.0602                 1.0652                 1.0606
 Frc consts  --      5.7179                 5.7654                 5.7584
 IR Inten    --     21.9109                11.9486                74.5908

                     97                     98                     99
                      A                      A                      A
 Frequencies --   3036.5100              3043.2014              3049.3359
 Red. masses --      1.0575                 1.0865                 1.0786
 Frc consts  --      5.7448                 5.9285                 5.9091
 IR Inten    --     52.5680                47.6946                22.0442

                    100                    101                    102
                      A                      A                      A
 Frequencies --   3049.6312              3055.6262              3059.7067
 Red. masses --      1.0963                 1.0934                 1.0988
 Frc consts  --      6.0075                 6.0151                 6.0609
 IR Inten    --      9.0141                34.0736                 7.6316

                    103                    104                    105
                      A                      A                      A
 Frequencies --   3075.7259              3082.6702              3089.2346
 Red. masses --      1.1028                 1.0934                 1.1005
 Frc consts  --      6.1466                 6.1217                 6.1877
 IR Inten    --     77.7882                43.4509                25.6029

                    106                    107                    108
                      A                      A                      A
 Frequencies --   3090.7852              3110.4670              3133.7368
 Red. masses --      1.0910                 1.0872                 1.0939
 Frc consts  --      6.1403                 6.1975                 6.3291
 IR Inten    --     68.2181                32.7376                29.0321

                    109                    110                    111
                      A                      A                      A
 Frequencies --   3493.8150              3577.1244              3815.2276
 Red. masses --      1.0519                 1.0881                 1.0661
 Frc consts  --      7.5654                 8.2035                 9.1432
 IR Inten    --      0.6582                 2.6581                13.6445

 - Thermochemistry -
 -------------------
 Temperature   298.150 Kelvin.  Pressure   1.00000 Atm.
 Atom     1 has atomic number  6 and mass  12.00000

 Molecular mass:   199.19361 amu.
 Principal axes and moments of inertia in atomic units:
                           1         2         3
     Eigenvalues --  1973.544114188.136234511.77184
           X            0.99998  -0.00690   0.00008
           Y            0.00690   0.99987  -0.01436
           Z            0.00002   0.01436   0.99990
 This molecule is an asymmetric top.
 Rotational symmetry number  1.
 Warning -- assumption of classical behavior for rotation
           may cause significant error
 Rotational temperatures (Kelvin)      0.04389     0.02068     0.01920
 Rotational constants (GHZ):           0.91447     0.43092     0.40001
 Zero-point vibrational energy     953400.2 (Joules/Mol)
                                  227.86811 (Kcal/Mol)
 Warning -- explicit consideration of  24 degrees of freedom as
           vibrations may cause significant error
 Vibrational temperatures:     47.43    99.62   148.12   172.37   179.69
          (Kelvin)            234.54   244.22   284.22   316.65   339.92
                              352.25   385.41   406.04   417.67   428.45
                              447.49   496.75   552.20   575.64   606.86
                              631.27   652.98   760.46   849.49   912.15
                             1033.27  1049.61  1062.58  1109.32  1135.38
                             1204.70  1220.54  1266.64  1282.72  1316.52
                             1361.78  1408.80  1445.20  1463.06  1467.69
                             1492.42  1512.67  1533.03  1548.73  1553.44
                             1589.15  1603.92  1635.44  1654.13  1678.77
                             1707.22  1733.09  1751.25  1780.19  1807.95
                             1869.84  1874.23  1889.42  1893.43  1904.65
                             1921.28  1943.01  1951.47  1969.77  1980.40
                             1994.69  2003.61  2008.47  2021.40  2024.02
                             2030.05  2032.08  2041.76  2052.53  2067.93
                             2121.70  2127.75  2131.52  2137.74  2152.67
                             2153.12  2163.62  2168.53  2178.13  2178.96
                             2395.80  4262.17  4293.52  4297.21  4318.48
                             4331.33  4347.25  4349.28  4353.05  4360.85
                             4367.59  4368.86  4378.49  4387.31  4387.74
                             4396.36  4402.24  4425.28  4435.27  4444.72
                             4446.95  4475.27  4508.75  5026.82  5146.68
                             5489.26

 Zero-point correction=                           0.363131 (Hartree/Particle)
 Thermal correction to Energy=                    0.379088
 Thermal correction to Enthalpy=                  0.380032
 Thermal correction to Gibbs Free Energy=         0.321031
 Sum of electronic and zero-point Energies=           -601.945570
 Sum of electronic and thermal Energies=              -601.929613
 Sum of electronic and thermal Enthalpies=            -601.928668
 Sum of electronic and thermal Free Energies=         -601.987670

                     E (Thermal)             CV                S
                      KCal/Mol        Cal/Mol-Kelvin    Cal/Mol-Kelvin
 Total                  237.881             62.342            124.179
 Electronic               0.000              0.000              0.000
 Translational            0.889              2.981             41.772
 Rotational               0.889              2.981             31.989
 Vibrational            236.104             56.380             50.418
 Vibration     1          0.594              1.983              5.642
 Vibration     2          0.598              1.969              4.175
 Vibration     3          0.605              1.947              3.398
 Vibration     4          0.609              1.933              3.104
 Vibration     5          0.610              1.928              3.023
 Vibration     6          0.623              1.888              2.515
 Vibration     7          0.625              1.880              2.438
 Vibration     8          0.637              1.843              2.156
 Vibration     9          0.647              1.810              1.958
 Vibration    10          0.655              1.785              1.831
 Vibration    11          0.660              1.771              1.768
 Vibration    12          0.673              1.732              1.610
 Vibration    13          0.681              1.707              1.520
 Vibration    14          0.686              1.692              1.472
 Vibration    15          0.691              1.678              1.429
 Vibration    16          0.700              1.653              1.357
 Vibration    17          0.724              1.585              1.188
 Vibration    18          0.753              1.505              1.024
 Vibration    19          0.766              1.470              0.962
 Vibration    20          0.784              1.423              0.886
 Vibration    21          0.799              1.386              0.831
 Vibration    22          0.812              1.352              0.784
 Vibration    23          0.884              1.187              0.590
 Vibration    24          0.948              1.052              0.466

                           ! Non-Optimized Parameters !
 Normal termination of Gaussian 16 at Mon May 22 05:12:18 2023.
