 Gaussian 16, Revision A.03,
 Gaussian 16:  ES64L-G16RevA.03 25-Dec-2016

 -----------------------------
 # opt freq b3lyp/6-31g(2df,p)
 -----------------------------

 -------------------
 Title Card Required
 -------------------
 Symbolic Z-matrix:
 Charge =  0 Multiplicity = 1

 SCF Done:  E(RB3LYP) =  -494.280670659     A.U. after   12 cycles
 SCF Done:  E(RB3LYP) =  -494.283341521     A.U. after   10 cycles
 SCF Done:  E(RB3LYP) =  -494.284319524     A.U. after   10 cycles
 SCF Done:  E(RB3LYP) =  -494.285522844     A.U. after   10 cycles
 SCF Done:  E(RB3LYP) =  -494.285968944     A.U. after   10 cycles
 SCF Done:  E(RB3LYP) =  -494.286090486     A.U. after    9 cycles
 SCF Done:  E(RB3LYP) =  -494.286101828     A.U. after    8 cycles
 SCF Done:  E(RB3LYP) =  -494.286102719     A.U. after    7 cycles
 SCF Done:  E(RB3LYP) =  -494.286102994     A.U. after    7 cycles
 Optimization completed.
    -- Stationary point found.
 Normal termination of Gaussian 16 at Sun May 28 10:33:58 2023.

 ----------------------------------------------------------------------
 #N Geom=AllCheck Guess=TCheck SCRF=Check GenChk RB3LYP/6-31G(2df,p) Fr
 eq
 ----------------------------------------------------------------------

 Structure from the checkpoint file:  "CC1CC1CqFrqFrF.chk"
 -------------------
 Title Card Required
 -------------------
 Charge =  0 Multiplicity = 1

                         Standard orientation:
 ---------------------------------------------------------------------
 Center     Atomic      Atomic             Coordinates (Angstroms)
 Number     Number       Type             X           Y           Z
 ---------------------------------------------------------------------
      1          6           0        2.778671   -0.662448   -0.109841
      2          6           0        1.503494   -0.020301    0.386366
      3          6           0        1.089111    1.352046   -0.076638
      4          6           0        0.326603    0.136523   -0.543716
      5          6           0       -1.061129   -0.107058   -0.040596
      6          9           0       -1.212379    0.296739    1.234302
      7          9           0       -1.978893    0.544010   -0.775759
      8          9           0       -1.381871   -1.412055   -0.085164
      9          1           0        3.636780   -0.343553    0.491090
     10          1           0        2.981151   -0.386767   -1.150204
     11          1           0        2.719860   -1.754737   -0.058727
     12          1           0        1.242851   -0.252397    1.414673
     13          1           0        1.706123    1.857429   -0.811530
     14          1           0        0.601862    2.007237    0.635622
     15          1           0        0.449161   -0.178028   -1.574777
 ---------------------------------------------------------------------

 SCF Done:  E(RB3LYP) =  -494.286102994     A.U. after    1 cycles

 The electronic state is 1-A.
 Alpha  occ. eigenvalues --  -24.71499 -24.70859 -24.70849 -10.41193 -10.21003
 Alpha  occ. eigenvalues --  -10.20851 -10.20017 -10.18868  -1.29750  -1.21032
 Alpha  occ. eigenvalues --   -1.20607  -0.88381  -0.73853  -0.70217  -0.62584
 Alpha  occ. eigenvalues --   -0.59435  -0.57734  -0.56706  -0.54848  -0.47416
 Alpha  occ. eigenvalues --   -0.45203  -0.45034  -0.44793  -0.41973  -0.41209
 Alpha  occ. eigenvalues --   -0.40997  -0.39780  -0.39174  -0.36814  -0.36353
 Alpha  occ. eigenvalues --   -0.30786  -0.29772
 Alpha virt. eigenvalues --    0.08893   0.09979   0.10792   0.13193   0.14898
 Alpha virt. eigenvalues --    0.15553   0.16399   0.17112   0.17880   0.21196
 Alpha virt. eigenvalues --    0.23469   0.24755   0.25618   0.28323   0.29011

 Mulliken charges:
               1
     1  C   -0.413777
     2  C    0.006136
     3  C   -0.293220
     4  C   -0.164921
     5  C    0.278040
     6  F   -0.088364
     7  F   -0.080262
     8  F   -0.081239
     9  H    0.124928
    10  H    0.117023
    11  H    0.127387
    12  H    0.105824
    13  H    0.118773
    14  H    0.131846
    15  H    0.111827
 Sum of Mulliken charges =  -0.00000

 Dipole moment (field-independent basis, Debye):
    X=              2.2703    Y=              0.3492    Z=             -0.4134  Tot=              2.3339
 Quadrupole moment (field-independent basis, Debye-Ang):
   XX=            -46.3236   YY=            -45.6260   ZZ=            -44.4687
   XY=             -0.1837   XZ=             -0.6481   YZ=              0.0485

  Exact polarizability:  60.769  -1.189  53.174   0.866  -0.050  48.854
 Approx polarizability:  76.017  -0.124  76.907   2.726  -0.007  73.917

                      1                      2                      3
                      A                      A                      A
 Frequencies --     67.5226               140.1878               192.1548
 Red. masses --      4.1952                 4.3579                 2.1791
 Frc consts  --      0.0113                 0.0505                 0.0474
 IR Inten    --      0.0551                 0.3678                 0.4089

                      4                      5                      6
                      A                      A                      A
 Frequencies --    224.7453               297.0599               365.3924
 Red. masses --      1.3676                 3.7773                 2.9987
 Frc consts  --      0.0407                 0.1964                 0.2359
 IR Inten    --      0.0634                 1.8211                 0.8648

                      7                      8                      9
                      A                      A                      A
 Frequencies --    378.8452               436.8546               537.5335
 Red. masses --      6.1272                 3.5173                 9.1992
 Frc consts  --      0.5181                 0.3955                 1.5661
 IR Inten    --      4.0508                 1.6014                 3.3701

                     10                     11                     12
                      A                      A                      A
 Frequencies --    576.4258               646.5140               789.8535
 Red. masses --      8.2319                 4.4093                 3.7613
 Frc consts  --      1.6115                 1.0859                 1.3825
 IR Inten    --      0.0877                 9.1400                 0.5277

                     13                     14                     15
                      A                      A                      A
 Frequencies --    813.0645               878.0720               915.3929
 Red. masses --      1.9227                 1.8464                 1.4949
 Frc consts  --      0.7489                 0.8388                 0.7380
 IR Inten    --      4.5142                 1.8145                 7.6599

                     16                     17                     18
                      A                      A                      A
 Frequencies --    958.2817              1034.4153              1075.0866
 Red. masses --      2.0359                 2.0247                 1.4857
 Frc consts  --      1.1015                 1.2765                 1.0118
 IR Inten    --     12.0362                 8.4790                14.3669

                     19                     20                     21
                      A                      A                      A
 Frequencies --   1085.2836              1108.0810              1138.2137
 Red. masses --      1.8557                 1.2223                 1.6293
 Frc consts  --      1.2878                 0.8843                 1.2437
 IR Inten    --     10.2832                 7.1588                43.6368

                     22                     23                     24
                      A                      A                      A
 Frequencies --   1178.6774              1186.4856              1207.5914
 Red. masses --      3.0063                 4.5802                 2.1665
 Frc consts  --      2.4608                 3.7989                 1.8614
 IR Inten    --    150.5635               204.0977                51.4140

                     25                     26                     27
                      A                      A                      A
 Frequencies --   1237.7063              1284.6927              1358.7970
 Red. masses --      1.8620                 2.7946                 1.7474
 Frc consts  --      1.6806                 2.7175                 1.9009
 IR Inten    --      3.3320               142.8670                55.4345

                     28                     29                     30
                      A                      A                      A
 Frequencies --   1416.7345              1449.5688              1491.5762
 Red. masses --      1.2425                 1.5413                 1.0621
 Frc consts  --      1.4693                 1.9081                 1.3922
 IR Inten    --      8.2858                50.6337                 1.7143

                     31                     32                     33
                      A                      A                      A
 Frequencies --   1494.9983              1508.4656              3030.6945
 Red. masses --      1.2243                 1.4193                 1.0351
 Frc consts  --      1.6122                 1.9028                 5.6019
 IR Inten    --     13.2406                10.7037                26.6032

                     34                     35                     36
                      A                      A                      A
 Frequencies --   3097.7535              3098.2474              3141.2508
 Red. masses --      1.1010                 1.1011                 1.0546
 Frc consts  --      6.2247                 6.2274                 6.1313
 IR Inten    --     21.0981                19.7035                 8.8778

                     37                     38                     39
                      A                      A                      A
 Frequencies --   3159.0238              3172.1089              3230.8331
 Red. masses --      1.0890                 1.0882                 1.1162
 Frc consts  --      6.4028                 6.4516                 6.8648
 IR Inten    --      7.2689                 5.0276                 4.7099

 - Thermochemistry -
 -------------------
 Temperature   298.150 Kelvin.  Pressure   1.00000 Atm.
 Atom     1 has atomic number  6 and mass  12.00000

 Molecular mass:   124.04999 amu.
 Principal axes and moments of inertia in atomic units:
                           1         2         3
     Eigenvalues --   488.898511331.805231440.57591
           X            0.99986  -0.01467  -0.00789
           Y            0.01468   0.99989   0.00053
           Z            0.00788  -0.00064   0.99997
 This molecule is an asymmetric top.
 Rotational symmetry number  1.
 Warning -- assumption of classical behavior for rotation
           may cause significant error
 Rotational temperatures (Kelvin)      0.17716     0.06503     0.06012
 Rotational constants (GHZ):           3.69144     1.35511     1.25279
 Zero-point vibrational energy     301484.0 (Joules/Mol)
                                   72.05640 (Kcal/Mol)
 Warning -- explicit consideration of  10 degrees of freedom as
           vibrations may cause significant error
 Vibrational temperatures:     97.15   201.70   276.47   323.36   427.40
          (Kelvin)            525.72   545.07   628.54   773.39   829.35
                              930.19  1136.42  1169.82  1263.35  1317.05
                             1378.75  1488.29  1546.81  1561.48  1594.28
                             1637.64  1695.85  1707.09  1737.45  1780.78
                             1848.39  1955.01  2038.36  2085.61  2146.05
                             2150.97  2170.35  4360.49  4456.98  4457.69
                             4519.56  4545.13  4563.96  4648.45

 Zero-point correction=                           0.114829 (Hartree/Particle)
 Thermal correction to Energy=                    0.122654
 Thermal correction to Enthalpy=                  0.123599
 Thermal correction to Gibbs Free Energy=         0.082208
 Sum of electronic and zero-point Energies=           -494.171274
 Sum of electronic and thermal Energies=              -494.163449
 Sum of electronic and thermal Enthalpies=            -494.162504
 Sum of electronic and thermal Free Energies=         -494.203895

                     E (Thermal)             CV                S
                      KCal/Mol        Cal/Mol-Kelvin    Cal/Mol-Kelvin
 Total                   76.967             28.509             87.114
 Electronic               0.000              0.000              0.000
 Translational            0.889              2.981             40.360
 Rotational               0.889              2.981             28.330
 Vibrational             75.189             22.547             18.424
 Vibration     1          0.598              1.970              4.224
 Vibration     2          0.615              1.913              2.801
 Vibration     3          0.634              1.851              2.207
 Vibration     4          0.649              1.803              1.921
 Vibration     5          0.691              1.679              1.433
 Vibration     6          0.739              1.543              1.099
 Vibration     7          0.749              1.515              1.044
 Vibration     8          0.797              1.390              0.837
 Vibration     9          0.893              1.167              0.571
 Vibration    10          0.933              1.082              0.492

                           ! Non-Optimized Parameters !
 Normal termination of Gaussian 16 at Sun May 28 10:50:18 2023.
