 Gaussian 16, Revision A.03,
 Gaussian 16:  ES64L-G16RevA.03 25-Dec-2016

 -----------------------------
 # opt freq b3lyp/6-31g(2df,p)
 -----------------------------

 -------------------
 Title Card Required
 -------------------
 Symbolic Z-matrix:
 Charge =  0 Multiplicity = 1

 SCF Done:  E(RB3LYP) =  -350.742341258     A.U. after   19 cycles
 SCF Done:  E(RB3LYP) =  -350.827032193     A.U. after   16 cycles
 SCF Done:  E(RB3LYP) =  -350.915985846     A.U. after   16 cycles
 SCF Done:  E(RB3LYP) =  -350.936252814     A.U. after   18 cycles
 SCF Done:  E(RB3LYP) =  -351.043245958     A.U. after   15 cycles
 SCF Done:  E(RB3LYP) =  -351.148156577     A.U. after   15 cycles
 SCF Done:  E(RB3LYP) =  -351.180728956     A.U. after   14 cycles
 SCF Done:  E(RB3LYP) =  -351.213090962     A.U. after   14 cycles
 SCF Done:  E(RB3LYP) =  -351.227306246     A.U. after   14 cycles
 SCF Done:  E(RB3LYP) =  -351.246547101     A.U. after   15 cycles
 SCF Done:  E(RB3LYP) =  -351.382606996     A.U. after   10 cycles
 SCF Done:  E(RB3LYP) =  -351.382739420     A.U. after   10 cycles
 SCF Done:  E(RB3LYP) =  -351.382764715     A.U. after   11 cycles
 SCF Done:  E(RB3LYP) =  -351.382824465     A.U. after   10 cycles
 SCF Done:  E(RB3LYP) =  -351.382830735     A.U. after    8 cycles
 SCF Done:  E(RB3LYP) =  -351.382832161     A.U. after    8 cycles
 SCF Done:  E(RB3LYP) =  -351.382835610     A.U. after    7 cycles
 SCF Done:  E(RB3LYP) =  -351.382840544     A.U. after    9 cycles
 SCF Done:  E(RB3LYP) =  -351.382840705     A.U. after    7 cycles
 Optimization completed.
    -- Stationary point found.
 Normal termination of Gaussian 16 at Mon May 29 02:26:58 2023.

 ----------------------------------------------------------------------
 #N Geom=AllCheck Guess=TCheck SCRF=Check GenChk RB3LYP/6-31G(2df,p) Fr
 eq
 ----------------------------------------------------------------------

 Structure from the checkpoint file:  "CC1C2C3CCCC2C13.chk"
 -------------------
 Title Card Required
 -------------------
 Charge =  0 Multiplicity = 1

                         Standard orientation:
 ---------------------------------------------------------------------
 Center     Atomic      Atomic             Coordinates (Angstroms)
 Number     Number       Type             X           Y           Z
 ---------------------------------------------------------------------
      1          6           0       -3.521063   -0.158845   -0.633321
      2          6           0       -2.154688   -0.329902   -0.035022
      3          6           0       -1.328259    0.669484    0.264622
      4          6           0        2.062712    0.945682   -0.609572
      5          6           0        2.401893   -0.520535   -0.674333
      6          6           0        1.234943   -1.396506   -0.197464
      7          6           0        0.621385   -0.826202    1.088426
      8          6           0        0.057774    0.591206    0.875620
      9          6           0        1.021783    1.435180    0.062119
     10          1           0       -4.296836   -0.586301    0.014598
     11          1           0       -3.602165   -0.676731   -1.597445
     12          1           0       -3.759700    0.896534   -0.795392
     13          1           0       -1.852259   -1.358003    0.154608
     14          1           0       -1.661098    1.687893    0.056311
     15          1           0        2.718351    1.627051   -1.147770
     16          1           0        3.297492   -0.715948   -0.064675
     17          1           0        2.685416   -0.789222   -1.699846
     18          1           0        1.573971   -2.425428   -0.036168
     19          1           0        0.468988   -1.431266   -0.980362
     20          1           0        1.401225   -0.772675    1.858379
     21          1           0       -0.153940   -1.490055    1.483220
     22          1           0       -0.020965    1.071807    1.864799
     23          1           0        0.822635    2.504980    0.043285
 ---------------------------------------------------------------------

 SCF Done:  E(RB3LYP) =  -351.382840705     A.U. after    1 cycles

 The electronic state is 1-A.
 Alpha  occ. eigenvalues --  -10.18756 -10.17808 -10.17561 -10.17462 -10.17386
 Alpha  occ. eigenvalues --  -10.17345 -10.17327 -10.17317 -10.17213  -0.83328
 Alpha  occ. eigenvalues --   -0.78289  -0.73912  -0.73340  -0.67009  -0.61205
 Alpha  occ. eigenvalues --   -0.59670  -0.53298  -0.50224  -0.48682  -0.44875
 Alpha  occ. eigenvalues --   -0.43403  -0.42252  -0.40607  -0.40052  -0.38894
 Alpha  occ. eigenvalues --   -0.37766  -0.37322  -0.36111  -0.34169  -0.31982
 Alpha  occ. eigenvalues --   -0.31089  -0.29668  -0.24088  -0.23197
 Alpha virt. eigenvalues --    0.02233   0.04824   0.09164   0.11366   0.12079
 Alpha virt. eigenvalues --    0.13358   0.13960   0.15233   0.16062   0.16654
 Alpha virt. eigenvalues --    0.17272   0.17695   0.18988   0.19286   0.19595

 Mulliken charges:
               1
     1  C   -0.427735
     2  C   -0.046073
     3  C   -0.028550
     4  C   -0.050765
     5  C   -0.238550
     6  C   -0.197275
     7  C   -0.229308
     8  C   -0.065752
     9  C   -0.058597
    10  H    0.121364
    11  H    0.122490
    12  H    0.116997
    13  H    0.080877
    14  H    0.073417
    15  H    0.080726
    16  H    0.103926
    17  H    0.099518
    18  H    0.087576
    19  H    0.105651
    20  H    0.091762
    21  H    0.094627
    22  H    0.083517
    23  H    0.080157
 Sum of Mulliken charges =  -0.00000

 Dipole moment (field-independent basis, Debye):
    X=              0.0068    Y=             -0.2134    Z=              0.0452  Tot=              0.2183
 Quadrupole moment (field-independent basis, Debye-Ang):
   XX=            -54.9088   YY=            -54.6821   ZZ=            -56.8885
   XY=             -0.2417   XZ=             -0.0982   YZ=              0.0888

  Exact polarizability: 117.156   2.222  91.774  -2.539   1.982  75.043
 Approx polarizability: 153.222   4.571 140.211  -5.412   8.062 115.950

                      1                      2                      3
                      A                      A                      A
 Frequencies --     78.1773                96.2686               146.1356
 Red. masses --      2.9564                 1.6852                 2.3495
 Frc consts  --      0.0106                 0.0092                 0.0296
 IR Inten    --      0.1718                 0.0254                 0.2295

                      4                      5                      6
                      A                      A                      A
 Frequencies --    195.2892               214.1500               274.7728
 Red. masses --      2.3003                 1.2905                 2.3190
 Frc consts  --      0.0517                 0.0349                 0.1032
 IR Inten    --      0.3231                 0.5579                 0.4632

                      7                      8                      9
                      A                      A                      A
 Frequencies --    304.5594               377.2784               441.5127
 Red. masses --      2.6262                 2.3619                 2.5994
 Frc consts  --      0.1435                 0.1981                 0.2985
 IR Inten    --      0.7448                 0.7528                 0.9040

                     10                     11                     12
                      A                      A                      A
 Frequencies --    457.0854               508.7868               618.0352
 Red. masses --      2.3951                 4.1013                 2.3312
 Frc consts  --      0.2948                 0.6255                 0.5246
 IR Inten    --      1.4963                 0.5092                 3.6791

                     13                     14                     15
                      A                      A                      A
 Frequencies --    719.5260               738.7080               764.2718
 Red. masses --      1.7119                 1.4827                 2.5334
 Frc consts  --      0.5222                 0.4767                 0.8719
 IR Inten    --      4.4049                15.8291                 0.0519

                     16                     17                     18
                      A                      A                      A
 Frequencies --    839.7958               856.9705               900.6248
 Red. masses --      1.9971                 2.3819                 1.6735
 Frc consts  --      0.8298                 1.0306                 0.7998
 IR Inten    --      0.4780                 1.0269                 9.5245

                     19                     20                     21
                      A                      A                      A
 Frequencies --    918.1166               933.3120               988.6842
 Red. masses --      2.1484                 2.0633                 2.2518
 Frc consts  --      1.0670                 1.0589                 1.2968
 IR Inten    --      1.9996                 3.5604                11.8473

                     22                     23                     24
                      A                      A                      A
 Frequencies --   1007.3215              1021.6528              1033.9563
 Red. masses --      1.2226                 1.1285                 2.1665
 Frc consts  --      0.7309                 0.6940                 1.3646
 IR Inten    --      0.4636                18.7181                 2.4855

                     25                     26                     27
                      A                      A                      A
 Frequencies --   1061.1090              1068.2330              1076.7353
 Red. masses --      1.7518                 1.5307                 1.9426
 Frc consts  --      1.1621                 1.0291                 1.3270
 IR Inten    --      1.2989                 0.6329                 1.1778

                     28                     29                     30
                      A                      A                      A
 Frequencies --   1105.1594              1137.7599              1157.9904
 Red. masses --      1.9932                 1.7117                 1.1180
 Frc consts  --      1.4343                 1.3055                 0.8833
 IR Inten    --      0.9708                 1.4426                 0.1842

                     31                     32                     33
                      A                      A                      A
 Frequencies --   1176.5833              1259.6748              1272.3381
 Red. masses --      1.2059                 1.2594                 1.2542
 Frc consts  --      0.9835                 1.1775                 1.1962
 IR Inten    --      1.2371                 0.4178                 2.0085

                     34                     35                     36
                      A                      A                      A
 Frequencies --   1295.9201              1316.4466              1339.1100
 Red. masses --      1.3167                 1.5100                 1.2626
 Frc consts  --      1.3029                 1.5418                 1.3340
 IR Inten    --      7.8017                 2.7012                 0.1123

                     37                     38                     39
                      A                      A                      A
 Frequencies --   1352.5745              1365.1054              1373.4041
 Red. masses --      1.3168                 1.6177                 1.4460
 Frc consts  --      1.4194                 1.7761                 1.6070
 IR Inten    --      1.1272                 1.0210                 0.6088

                     40                     41                     42
                      A                      A                      A
 Frequencies --   1385.6747              1412.3424              1419.2227
 Red. masses --      1.4456                 1.2601                 1.4757
 Frc consts  --      1.6354                 1.4809                 1.7512
 IR Inten    --      2.2593                 1.7609                 1.3037

                     43                     44                     45
                      A                      A                      A
 Frequencies --   1474.6616              1480.3275              1491.1774
 Red. masses --      1.0858                 1.0449                 1.0887
 Frc consts  --      1.3912                 1.3491                 1.4263
 IR Inten    --      1.0437                 4.7034                 4.0539

                     46                     47                     48
                      A                      A                      A
 Frequencies --   1493.0217              1500.3892              1722.4717
 Red. masses --      1.0559                 1.0919                 6.6224
 Frc consts  --      1.3868                 1.4482                11.5763
 IR Inten    --      4.2651                 6.9522                 1.7327

                     49                     50                     51
                      A                      A                      A
 Frequencies --   1741.8594              2957.4498              2991.2131
 Red. masses --      6.1224                 1.0808                 1.0695
 Frc consts  --     10.9446                 5.5695                 5.6382
 IR Inten    --      0.0146                26.2100                35.3703

                     52                     53                     54
                      A                      A                      A
 Frequencies --   3015.5435              3028.3896              3031.0017
 Red. masses --      1.0372                 1.0680                 1.0731
 Frc consts  --      5.5571                 5.7711                 5.8084
 IR Inten    --     42.4038                32.4671                 5.5802

                     55                     56                     57
                      A                      A                      A
 Frequencies --   3042.7185              3061.4886              3074.1250
 Red. masses --      1.0751                 1.0988                 1.0955
 Frc consts  --      5.8642                 6.0680                 6.0997
 IR Inten    --     47.9686                23.0989                35.2301

                     58                     59                     60
                      A                      A                      A
 Frequencies --   3080.0540              3101.6127              3108.8939
 Red. masses --      1.1043                 1.0984                 1.0875
 Frc consts  --      6.1722                 6.2258                 6.1928
 IR Inten    --     49.6768                 9.9578                23.1343

                     61                     62                     63
                      A                      A                      A
 Frequencies --   3131.4483              3146.9591              3156.1561
 Red. masses --      1.0829                 1.0877                 1.0965
 Frc consts  --      6.2565                 6.3467                 6.4356
 IR Inten    --      9.3018                25.5168                45.8165

 - Thermochemistry -
 -------------------
 Temperature   298.150 Kelvin.  Pressure   1.00000 Atm.
 Atom     1 has atomic number  6 and mass  12.00000

 Molecular mass:   122.10955 amu.
 Principal axes and moments of inertia in atomic units:
                           1         2         3
     Eigenvalues --   596.517811863.459392051.80436
           X            0.99997  -0.00560   0.00557
           Y            0.00563   0.99997  -0.00522
           Z           -0.00554   0.00525   0.99997
 This molecule is an asymmetric top.
 Rotational symmetry number  1.
 Warning -- assumption of classical behavior for rotation
           may cause significant error
 Rotational temperatures (Kelvin)      0.14520     0.04648     0.04221
 Rotational constants (GHZ):           3.02546     0.96849     0.87959
 Zero-point vibrational energy     543351.9 (Joules/Mol)
                                  129.86421 (Kcal/Mol)
 Warning -- explicit consideration of  12 degrees of freedom as
           vibrations may cause significant error
 Vibrational temperatures:    112.48   138.51   210.26   280.98   308.11
          (Kelvin)            395.34   438.19   542.82   635.24   657.64
                              732.03   889.21  1035.24  1062.84  1099.62
                             1208.28  1232.99  1295.80  1320.97  1342.83
                             1422.50  1449.31  1469.93  1487.63  1526.70
                             1536.95  1549.18  1590.08  1636.98  1666.09
                             1692.84  1812.39  1830.61  1864.54  1894.07
                             1926.68  1946.05  1964.08  1976.02  1993.68
                             2032.05  2041.94  2121.71  2129.86  2145.47
                             2148.13  2158.73  2478.25  2506.15  4255.11
                             4303.69  4338.69  4357.18  4360.94  4377.79
                             4404.80  4422.98  4431.51  4462.53  4473.00
                             4505.46  4527.77  4541.00

 Zero-point correction=                           0.206952 (Hartree/Particle)
 Thermal correction to Energy=                    0.216176
 Thermal correction to Enthalpy=                  0.217120
 Thermal correction to Gibbs Free Energy=         0.172846
 Sum of electronic and zero-point Energies=           -351.175889
 Sum of electronic and thermal Energies=              -351.166665
 Sum of electronic and thermal Enthalpies=            -351.165721
 Sum of electronic and thermal Free Energies=         -351.209994

                     E (Thermal)             CV                S
                      KCal/Mol        Cal/Mol-Kelvin    Cal/Mol-Kelvin
 Total                  135.652             35.382             93.182
 Electronic               0.000              0.000              0.000
 Translational            0.889              2.981             40.313
 Rotational               0.889              2.981             29.213
 Vibrational            133.875             29.420             23.655
 Vibration     1          0.599              1.964              3.936
 Vibration     2          0.603              1.952              3.528
 Vibration     3          0.617              1.907              2.722
 Vibration     4          0.636              1.846              2.177
 Vibration     5          0.644              1.819              2.008
 Vibration     6          0.677              1.720              1.566
 Vibration     7          0.695              1.665              1.392
 Vibration     8          0.748              1.519              1.050
 Vibration     9          0.801              1.380              0.822
 Vibration    10          0.815              1.345              0.775
 Vibration    11          0.864              1.231              0.637
 Vibration    12          0.978              0.994              0.420

                           ! Non-Optimized Parameters !
 Normal termination of Gaussian 16 at Mon May 29 03:04:51 2023.
