 Gaussian 16, Revision A.03,
 Gaussian 16:  ES64L-G16RevA.03 25-Dec-2016

 -----------------------------
 # opt freq b3lyp/6-31g(2df,p)
 -----------------------------

 -------------------
 Title Card Required
 -------------------
 Symbolic Z-matrix:
 Charge =  0 Multiplicity = 1

 SCF Done:  E(RB3LYP) =  -585.086928351     A.U. after   12 cycles
 SCF Done:  E(RB3LYP) =  -585.096894990     A.U. after   11 cycles
 SCF Done:  E(RB3LYP) =  -585.099796392     A.U. after   10 cycles
 SCF Done:  E(RB3LYP) =  -585.101950904     A.U. after   10 cycles
 SCF Done:  E(RB3LYP) =  -585.102222498     A.U. after   12 cycles
 SCF Done:  E(RB3LYP) =  -585.103522152     A.U. after   10 cycles
 SCF Done:  E(RB3LYP) =  -585.103650489     A.U. after    9 cycles
 SCF Done:  E(RB3LYP) =  -585.103810342     A.U. after   10 cycles
 SCF Done:  E(RB3LYP) =  -585.103838625     A.U. after    9 cycles
 SCF Done:  E(RB3LYP) =  -585.103885672     A.U. after    9 cycles
 SCF Done:  E(RB3LYP) =  -585.103961268     A.U. after    8 cycles
 SCF Done:  E(RB3LYP) =  -585.103961835     A.U. after    8 cycles
 SCF Done:  E(RB3LYP) =  -585.103962164     A.U. after    8 cycles
 SCF Done:  E(RB3LYP) =  -585.103961933     A.U. after    7 cycles
 SCF Done:  E(RB3LYP) =  -585.103962051     A.U. after    8 cycles
 SCF Done:  E(RB3LYP) =  -585.103961221     A.U. after    9 cycles
 SCF Done:  E(RB3LYP) =  -585.103962135     A.U. after    8 cycles
 SCF Done:  E(RB3LYP) =  -585.103962293     A.U. after    7 cycles
 SCF Done:  E(RB3LYP) =  -585.103962343     A.U. after    7 cycles
 Optimization completed on the basis of negligible forces.
    -- Stationary point found.
 Normal termination of Gaussian 16 at Wed May 24 06:17:10 2023.

 ----------------------------------------------------------------------
 #N Geom=AllCheck Guess=TCheck SCRF=Check GenChk RB3LYP/6-31G(2df,p) Fr
 eq
 ----------------------------------------------------------------------

 Structure from the checkpoint file:  "CC1COCC1CCCC1CCCC1.chk"
 -------------------
 Title Card Required
 -------------------
 Charge =  0 Multiplicity = 1

                         Standard orientation:
 ---------------------------------------------------------------------
 Center     Atomic      Atomic             Coordinates (Angstroms)
 Number     Number       Type             X           Y           Z
 ---------------------------------------------------------------------
      1          6           0       -2.218202    2.209630   -0.653741
      2          6           0       -2.562230    0.953863    0.147619
      3          6           0       -4.060865    0.837821    0.491273
      4          8           0       -4.321277   -0.547708    0.614739
      5          6           0       -3.608657   -1.160300   -0.449798
      6          6           0       -2.265560   -0.395984   -0.579030
      7          6           0       -1.090187   -1.180624    0.022934
      8          6           0        0.272839   -0.488731   -0.102318
      9          6           0        1.411416   -1.332699    0.488852
     10          6           0        2.830170   -0.748102    0.394026
     11          6           0        3.383652   -0.512787   -1.025198
     12          6           0        4.643840    0.361998   -0.816533
     13          6           0        4.464221    1.041561    0.575800
     14          6           0        3.063880    0.617550    1.066353
     15          1           0       -2.495637    3.118485   -0.107888
     16          1           0       -2.751741    2.222032   -1.611244
     17          1           0       -1.146991    2.267663   -0.869432
     18          1           0       -2.000334    0.969032    1.088999
     19          1           0       -4.672357    1.279123   -0.316685
     20          1           0       -4.337586    1.321826    1.431953
     21          1           0       -4.187755   -1.089743   -1.385374
     22          1           0       -3.484437   -2.218905   -0.203830
     23          1           0       -2.051570   -0.205689   -1.637822
     24          1           0       -1.033347   -2.161971   -0.467972
     25          1           0       -1.307239   -1.382723    1.081358
     26          1           0        0.235538    0.485859    0.398704
     27          1           0        0.467414   -0.281018   -1.162569
     28          1           0        1.408649   -2.316642   -0.000609
     29          1           0        1.186267   -1.528439    1.546369
     30          1           0        3.499982   -1.468539    0.887742
     31          1           0        2.645777    0.032834   -1.624817
     32          1           0        3.597371   -1.446037   -1.555568
     33          1           0        4.760633    1.095600   -1.619118
     34          1           0        5.548262   -0.253949   -0.826181
     35          1           0        4.572757    2.128567    0.526666
     36          1           0        5.229736    0.682809    1.271604
     37          1           0        2.312205    1.336554    0.718699
     38          1           0        2.988718    0.575769    2.157661
 ---------------------------------------------------------------------

 SCF Done:  E(RB3LYP) =  -585.103962343     A.U. after    1 cycles

 The electronic state is 1-A.
 Alpha  occ. eigenvalues --  -19.12961 -10.21750 -10.21724 -10.18444 -10.18250
 Alpha  occ. eigenvalues --  -10.17799 -10.17679 -10.17630 -10.17567 -10.17475
 Alpha  occ. eigenvalues --  -10.17287 -10.17269 -10.17087 -10.17081  -1.02960
 Alpha  occ. eigenvalues --   -0.83270  -0.80989  -0.77393  -0.74477  -0.70586
 Alpha  occ. eigenvalues --   -0.70074  -0.67625  -0.64357  -0.59859  -0.58557
 Alpha  occ. eigenvalues --   -0.55895  -0.55819  -0.53929  -0.48826  -0.47505
 Alpha  occ. eigenvalues --   -0.46855  -0.45903  -0.45676  -0.44377  -0.41855
 Alpha  occ. eigenvalues --   -0.41645  -0.41219  -0.40769  -0.38979  -0.38789
 Alpha  occ. eigenvalues --   -0.37616  -0.35809  -0.35441  -0.34026  -0.33121
 Alpha  occ. eigenvalues --   -0.32892  -0.32809  -0.32483  -0.31414  -0.30872
 Alpha  occ. eigenvalues --   -0.30591  -0.30103  -0.29862  -0.29649  -0.24460
 Alpha virt. eigenvalues --    0.07824   0.08467   0.09505   0.10068   0.10372
 Alpha virt. eigenvalues --    0.11110   0.12065   0.13083   0.13604   0.14832
 Alpha virt. eigenvalues --    0.15129   0.15732   0.15974   0.16564   0.16782

 Mulliken charges:
               1
     1  C   -0.415059
     2  C    0.025019
     3  C   -0.096807
     4  O   -0.241675
     5  C   -0.106027
     6  C   -0.012980
     7  C   -0.194995
     8  C   -0.188603
     9  C   -0.225009
    10  C    0.043391
    11  C   -0.205704
    12  C   -0.202392
    13  C   -0.203330
    14  C   -0.203610
    15  H    0.113625
    16  H    0.114575
    17  H    0.119205
    18  H    0.075911
    19  H    0.077673
    20  H    0.104585
    21  H    0.080256
    22  H    0.102006
    23  H    0.064354
    24  H    0.089785
    25  H    0.100021
    26  H    0.102130
    27  H    0.094329
    28  H    0.089078
    29  H    0.090197
    30  H    0.063452
    31  H    0.094741
    32  H    0.088409
    33  H    0.094911
    34  H    0.096982
    35  H    0.093159
    36  H    0.096903
    37  H    0.093761
    38  H    0.087734
 Sum of Mulliken charges =  -0.00000

 Dipole moment (field-independent basis, Debye):
    X=              1.2100    Y=              0.5665    Z=             -0.7373  Tot=              1.5260
 Quadrupole moment (field-independent basis, Debye-Ang):
   XX=            -98.4298   YY=            -88.0284   ZZ=            -89.1738
   XY=             -4.1952   XZ=              4.0298   YZ=              1.4296

  Exact polarizability: 163.043   1.264 134.503  -0.637   2.275 122.301
 Approx polarizability: 192.917  -1.535 195.421  -0.378   1.351 192.080

                      1                      2                      3
                      A                      A                      A
 Frequencies --     11.5713                21.2026                30.0401
 Red. masses --      2.3771                 1.9765                 2.9375
 Frc consts  --      0.0002                 0.0005                 0.0016
 IR Inten    --      0.1818                 0.0894                 0.5570

                      4                      5                      6
                      A                      A                      A
 Frequencies --     47.4089                69.6676               115.3495
 Red. masses --      3.1733                 3.1234                 2.6172
 Frc consts  --      0.0042                 0.0089                 0.0205
 IR Inten    --      0.0246                 0.0521                 0.0549

                      7                      8                      9
                      A                      A                      A
 Frequencies --    130.1122               146.3346               194.9470
 Red. masses --      1.9514                 2.6778                 3.0010
 Frc consts  --      0.0195                 0.0338                 0.0672
 IR Inten    --      0.0889                 0.3327                 1.0193

                     10                     11                     12
                      A                      A                      A
 Frequencies --    228.1265               247.9611               253.7166
 Red. masses --      1.2616                 1.8919                 2.8238
 Frc consts  --      0.0387                 0.0685                 0.1071
 IR Inten    --      0.0139                 0.6414                 3.7138

                     13                     14                     15
                      A                      A                      A
 Frequencies --    299.8224               308.4041               363.0501
 Red. masses --      2.1804                 2.3000                 2.2610
 Frc consts  --      0.1155                 0.1289                 0.1756
 IR Inten    --      0.0090                 0.5938                 0.5650

                     16                     17                     18
                      A                      A                      A
 Frequencies --    395.9341               479.3249               496.3516
 Red. masses --      2.6190                 2.1544                 2.4881
 Frc consts  --      0.2419                 0.2916                 0.3612
 IR Inten    --      0.3325                 2.6090                 0.3085

                     19                     20                     21
                      A                      A                      A
 Frequencies --    599.9095               625.2766               629.8066
 Red. masses --      3.7022                 2.7940                 3.1067
 Frc consts  --      0.7850                 0.6436                 0.7261
 IR Inten    --      2.1233                 0.4331                 0.2126

                     22                     23                     24
                      A                      A                      A
 Frequencies --    713.6316               736.6139               757.5555
 Red. masses --      4.5083                 1.1853                 1.2509
 Frc consts  --      1.3527                 0.3789                 0.4230
 IR Inten    --      6.8875                 2.4980                 0.6402

                     25                     26                     27
                      A                      A                      A
 Frequencies --    781.6737               819.4285               853.3073
 Red. masses --      1.8584                 1.6785                 2.5388
 Frc consts  --      0.6690                 0.6640                 1.0892
 IR Inten    --      0.5515                 0.0630                 0.5924

                     28                     29                     30
                      A                      A                      A
 Frequencies --    866.2393               890.8911               900.9001
 Red. masses --      1.9183                 2.5997                 1.8517
 Frc consts  --      0.8481                 1.2157                 0.8855
 IR Inten    --      1.1699                 0.4354                 8.4580

                     31                     32                     33
                      A                      A                      A
 Frequencies --    927.9582               946.8116               951.7500
 Red. masses --      1.8275                 1.7365                 1.9218
 Frc consts  --      0.9272                 0.9172                 1.0257
 IR Inten    --      2.8484                 0.0394                 1.7037

                     34                     35                     36
                      A                      A                      A
 Frequencies --    953.8728               973.0811               978.8645
 Red. masses --      1.5445                 3.2363                 1.2691
 Frc consts  --      0.8280                 1.8055                 0.7165
 IR Inten    --      5.4315                23.9134                 0.3916

                     37                     38                     39
                      A                      A                      A
 Frequencies --   1000.3184              1009.8589              1018.0381
 Red. masses --      2.1711                 2.2372                 1.7330
 Frc consts  --      1.2800                 1.3442                 1.0582
 IR Inten    --      4.1059                 1.2109                 3.1343

                     40                     41                     42
                      A                      A                      A
 Frequencies --   1047.4275              1063.9121              1068.0677
 Red. masses --      2.3825                 2.5931                 2.4222
 Frc consts  --      1.5401                 1.7293                 1.6280
 IR Inten    --      0.4969                 3.3715                16.7192

                     43                     44                     45
                      A                      A                      A
 Frequencies --   1075.8581              1108.8336              1127.7723
 Red. masses --      1.7039                 1.9840                 2.9352
 Frc consts  --      1.1620                 1.4372                 2.1995
 IR Inten    --      2.4637                 0.9427                22.3634

                     46                     47                     48
                      A                      A                      A
 Frequencies --   1130.0071              1161.7400              1167.8917
 Red. masses --      3.0509                 2.2170                 1.9918
 Frc consts  --      2.2953                 1.7629                 1.6007
 IR Inten    --     27.4269                 4.7588                 9.1696

                     49                     50                     51
                      A                      A                      A
 Frequencies --   1188.2002              1192.5412              1208.2290
 Red. masses --      1.4248                 1.3929                 1.4344
 Frc consts  --      1.1852                 1.1671                 1.2338
 IR Inten    --      1.1975                 0.5945                 0.5400

                     52                     53                     54
                      A                      A                      A
 Frequencies --   1237.2255              1239.0192              1261.1913
 Red. masses --      1.5031                 1.2877                 1.2774
 Frc consts  --      1.3556                 1.1647                 1.1971
 IR Inten    --      0.8444                 2.8755                 1.5348

                     55                     56                     57
                      A                      A                      A
 Frequencies --   1263.0690              1283.2238              1287.8055
 Red. masses --      1.2787                 1.2865                 1.3442
 Frc consts  --      1.2019                 1.2481                 1.3135
 IR Inten    --      1.3797                 2.6854                 2.5669

                     58                     59                     60
                      A                      A                      A
 Frequencies --   1297.9594              1306.5434              1316.2392
 Red. masses --      1.2408                 1.2858                 1.2253
 Frc consts  --      1.2316                 1.2932                 1.2508
 IR Inten    --      0.1318                 0.7490                 0.6220

                     61                     62                     63
                      A                      A                      A
 Frequencies --   1326.0797              1329.6578              1333.4321
 Red. masses --      1.2570                 1.3117                 1.2825
 Frc consts  --      1.3024                 1.3663                 1.3435
 IR Inten    --      0.0336                 3.1952                 3.4293

                     64                     65                     66
                      A                      A                      A
 Frequencies --   1335.5599              1346.7631              1356.2916
 Red. masses --      1.2370                 1.1234                 1.3451
 Frc consts  --      1.3000                 1.2005                 1.4578
 IR Inten    --      1.1926                 0.5736                 5.6223

                     67                     68                     69
                      A                      A                      A
 Frequencies --   1370.3089              1371.9489              1381.9968
 Red. masses --      1.3640                 1.3576                 1.4720
 Frc consts  --      1.5090                 1.5056                 1.6564
 IR Inten    --      5.2504                 1.4157                 1.8050

                     70                     71                     72
                      A                      A                      A
 Frequencies --   1393.7529              1405.6393              1411.4983
 Red. masses --      1.5371                 1.3705                 1.4185
 Frc consts  --      1.7593                 1.5955                 1.6651
 IR Inten    --      0.4034                 8.2848                 9.5905

                     73                     74                     75
                      A                      A                      A
 Frequencies --   1418.4440              1480.6720              1484.1852
 Red. masses --      1.3098                 1.0751                 1.0865
 Frc consts  --      1.5527                 1.3887                 1.4101
 IR Inten    --      3.8415                 0.9468                 0.7602

                     76                     77                     78
                      A                      A                      A
 Frequencies --   1486.2642              1495.2814              1496.4965
 Red. masses --      1.0790                 1.0890                 1.0729
 Frc consts  --      1.4044                 1.4346                 1.4157
 IR Inten    --      0.0561                 0.5950                 2.5004

                     79                     80                     81
                      A                      A                      A
 Frequencies --   1496.9825              1499.2949              1506.2954
 Red. masses --      1.0658                 1.0482                 1.0783
 Frc consts  --      1.4072                 1.3883                 1.4414
 IR Inten    --      2.1820                 2.6574                 1.0481

                     82                     83                     84
                      A                      A                      A
 Frequencies --   1506.5727              1519.4330              1520.2931
 Red. masses --      1.0960                 1.1046                 1.1034
 Frc consts  --      1.4657                 1.5025                 1.5026
 IR Inten    --      1.2887                 0.5727                 2.6691

                     85                     86                     87
                      A                      A                      A
 Frequencies --   2939.5876              2962.6438              2980.4506
 Red. masses --      1.0715                 1.0720                 1.0790
 Frc consts  --      5.4553                 5.5435                 5.6475
 IR Inten    --     59.3595                81.4374                16.3663

                     88                     89                     90
                      A                      A                      A
 Frequencies --   3000.4531              3006.2054              3019.6950
 Red. masses --      1.0593                 1.0614                 1.0654
 Frc consts  --      5.6190                 5.6515                 5.7241
 IR Inten    --      2.9257                42.2963                35.8466

                     91                     92                     93
                      A                      A                      A
 Frequencies --   3021.7244              3025.5539              3028.3794
 Red. masses --      1.0821                 1.0449                 1.0774
 Frc consts  --      5.8216                 5.6357                 5.8217
 IR Inten    --      3.5639                19.4555                29.0561

                     94                     95                     96
                      A                      A                      A
 Frequencies --   3028.8572              3032.2167              3038.3090
 Red. masses --      1.0779                 1.0840                 1.0620
 Frc consts  --      5.8260                 5.8720                 5.7760
 IR Inten    --     35.8226                 2.0867                38.8193

                     97                     98                     99
                      A                      A                      A
 Frequencies --   3041.2466              3041.3768              3054.9823
 Red. masses --      1.0674                 1.0896                 1.0656
 Frc consts  --      5.8169                 5.9383                 5.8595
 IR Inten    --     33.2253                15.6406                44.0087

                    100                    101                    102
                      A                      A                      A
 Frequencies --   3069.1905              3070.4848              3079.2968
 Red. masses --      1.0973                 1.1022                 1.0980
 Frc consts  --      6.0899                 6.1224                 6.1340
 IR Inten    --    110.9950                11.2707                19.8187

                    103                    104                    105
                      A                      A                      A
 Frequencies --   3081.1266              3084.8028              3086.0009
 Red. masses --      1.0917                 1.1045                 1.0949
 Frc consts  --      6.1064                 6.1927                 6.1435
 IR Inten    --     43.8211                 5.5829                 6.8956

                    106                    107                    108
                      A                      A                      A
 Frequencies --   3091.1823              3101.8945              3102.2251
 Red. masses --      1.0981                 1.1022                 1.1033
 Frc consts  --      6.1819                 6.2482                 6.2561
 IR Inten    --     63.5317                80.8837                37.9064

 - Thermochemistry -
 -------------------
 Temperature   298.150 Kelvin.  Pressure   1.00000 Atm.
 Atom     1 has atomic number  6 and mass  12.00000

 Molecular mass:   196.18272 amu.
 Principal axes and moments of inertia in atomic units:
                           1         2         3
     Eigenvalues --  1162.515317435.685997905.85377
           X            0.99999  -0.00376   0.00372
           Y            0.00376   0.99999   0.00065
           Z           -0.00372  -0.00063   0.99999
 This molecule is an asymmetric top.
 Rotational symmetry number  1.
 Warning -- assumption of classical behavior for rotation
           may cause significant error
 Rotational temperatures (Kelvin)      0.07451     0.01165     0.01096
 Rotational constants (GHZ):           1.55245     0.24271     0.22828
 Zero-point vibrational energy     921536.7 (Joules/Mol)
                                  220.25255 (Kcal/Mol)
 Warning -- explicit consideration of  19 degrees of freedom as
           vibrations may cause significant error
 Vibrational temperatures:     16.65    30.51    43.22    68.21   100.24
          (Kelvin)            165.96   187.20   210.54   280.49   328.22
                              356.76   365.04   431.38   443.72   522.35
                              569.66   689.64   714.14   863.14   899.63
                              906.15  1026.76  1059.82  1089.95  1124.65
                             1178.97  1227.72  1246.33  1281.79  1296.19
                             1335.12  1362.25  1369.36  1372.41  1400.05
                             1408.37  1439.24  1452.96  1464.73  1507.01
                             1530.73  1536.71  1547.92  1595.36  1622.61
                             1625.83  1671.48  1680.34  1709.56  1715.80
                             1738.37  1780.09  1782.67  1814.57  1817.27
                             1846.27  1852.86  1867.47  1879.82  1893.77
                             1907.93  1913.08  1918.51  1921.57  1937.69
                             1951.40  1971.57  1973.93  1988.39  2005.30
                             2022.40  2030.83  2040.82  2130.36  2135.41
                             2138.40  2151.38  2153.12  2153.82  2157.15
                             2167.22  2167.62  2186.13  2187.36  4229.41
                             4262.58  4288.20  4316.98  4325.26  4344.67
                             4347.59  4353.10  4357.16  4357.85  4362.68
                             4371.45  4375.68  4375.86  4395.44  4415.88
                             4417.74  4430.42  4433.05  4438.34  4440.07
                             4447.52  4462.93  4463.41

 Zero-point correction=                           0.350995 (Hartree/Particle)
 Thermal correction to Energy=                    0.366263
 Thermal correction to Enthalpy=                  0.367207
 Thermal correction to Gibbs Free Energy=         0.304741
 Sum of electronic and zero-point Energies=           -584.752968
 Sum of electronic and thermal Energies=              -584.737699
 Sum of electronic and thermal Enthalpies=            -584.736755
 Sum of electronic and thermal Free Energies=         -584.799222

                     E (Thermal)             CV                S
                      KCal/Mol        Cal/Mol-Kelvin    Cal/Mol-Kelvin
 Total                  229.833             57.013            131.471
 Electronic               0.000              0.000              0.000
 Translational            0.889              2.981             41.727
 Rotational               0.889              2.981             32.591
 Vibrational            228.056             51.051             57.154
 Vibration     1          0.593              1.987              7.721
 Vibration     2          0.593              1.985              6.518
 Vibration     3          0.594              1.984              5.827
 Vibration     4          0.595              1.979              4.923
 Vibration     5          0.598              1.969              4.163
 Vibration     6          0.608              1.937              3.177
 Vibration     7          0.612              1.923              2.944
 Vibration     8          0.617              1.907              2.719
 Vibration     9          0.636              1.847              2.180
 Vibration    10          0.651              1.798              1.894
 Vibration    11          0.662              1.766              1.745
 Vibration    12          0.665              1.757              1.705
 Vibration    13          0.692              1.674              1.418
 Vibration    14          0.698              1.658              1.371
 Vibration    15          0.737              1.548              1.109
 Vibration    16          0.763              1.479              0.978
 Vibration    17          0.836              1.296              0.712
 Vibration    18          0.852              1.258              0.667
 Vibration    19          0.958              1.032              0.450

 Optimization completed on the basis of negligible forces.
    -- Stationary point found.
 Normal termination of Gaussian 16 at Wed May 24 09:00:13 2023.
