 Gaussian 16, Revision A.03,
 Gaussian 16:  ES64L-G16RevA.03 25-Dec-2016

 -----------------------------
 # opt freq b3lyp/6-31g(2df,p)
 -----------------------------

 -------------------
 Title Card Required
 -------------------
 Symbolic Z-matrix:
 Charge =  0 Multiplicity = 1

 SCF Done:  E(RB3LYP) =  -311.918734174     A.U. after   12 cycles
 SCF Done:  E(RB3LYP) =  -311.953310343     A.U. after   11 cycles
 SCF Done:  E(RB3LYP) =  -311.970173645     A.U. after   11 cycles
 SCF Done:  E(RB3LYP) =  -311.974949807     A.U. after   10 cycles
 SCF Done:  E(RB3LYP) =  -311.977039661     A.U. after   10 cycles
 SCF Done:  E(RB3LYP) =  -311.977372724     A.U. after   10 cycles
 SCF Done:  E(RB3LYP) =  -311.977497109     A.U. after    9 cycles
 SCF Done:  E(RB3LYP) =  -311.977514189     A.U. after    8 cycles
 SCF Done:  E(RB3LYP) =  -311.977518748     A.U. after    7 cycles
 SCF Done:  E(RB3LYP) =  -311.977521219     A.U. after    7 cycles
 SCF Done:  E(RB3LYP) =  -311.977521812     A.U. after    7 cycles
 Optimization completed.
    -- Stationary point found.
 Normal termination of Gaussian 16 at Sun May 28 22:17:01 2023.

 ----------------------------------------------------------------------
 #N Geom=AllCheck Guess=TCheck SCRF=Check GenChk RB3LYP/6-31G(2df,p) Fr
 eq
 ----------------------------------------------------------------------

 Structure from the checkpoint file:  "CC1C2CC1C21CC1.chk"
 -------------------
 Title Card Required
 -------------------
 Charge =  0 Multiplicity = 1

                         Standard orientation:
 ---------------------------------------------------------------------
 Center     Atomic      Atomic             Coordinates (Angstroms)
 Number     Number       Type             X           Y           Z
 ---------------------------------------------------------------------
      1          6           0       -1.897969   -1.359887   -0.000039
      2          6           0       -1.446795    0.091695   -0.000174
      3          6           0       -0.306951    0.609251    0.945048
      4          6           0       -0.207444    1.846548   -0.000065
      5          6           0       -0.306487    0.609152   -0.944984
      6          6           0        0.711203   -0.062231    0.000394
      7          6           0        1.421225   -1.371305    0.000042
      8          6           0        2.202441   -0.059861   -0.000100
      9          1           0       -2.514130   -1.568659    0.882095
     10          1           0       -1.063325   -2.062434   -0.000440
     11          1           0       -2.514896   -1.568543   -0.881674
     12          1           0       -2.321314    0.753579   -0.000454
     13          1           0       -0.298796    0.608119    2.036989
     14          1           0        0.743153    2.383277    0.000186
     15          1           0       -1.063135    2.527554   -0.000268
     16          1           0       -0.297806    0.607416   -2.036921
     17          1           0        1.430013   -1.964054   -0.909948
     18          1           0        1.430814   -1.963721    0.910252
     19          1           0        2.726612    0.213905   -0.910865
     20          1           0        2.727477    0.213392    0.910321
 ---------------------------------------------------------------------

 SCF Done:  E(RB3LYP) =  -311.977521812     A.U. after    1 cycles

 The electronic state is 1-A.
 Alpha  occ. eigenvalues --  -10.19359 -10.19352 -10.19317 -10.18749 -10.18055
 Alpha  occ. eigenvalues --  -10.17746 -10.17516 -10.16606  -0.91157  -0.82374
 Alpha  occ. eigenvalues --   -0.72587  -0.62447  -0.62203  -0.59634  -0.58896
 Alpha  occ. eigenvalues --   -0.50562  -0.49175  -0.46436  -0.44128  -0.43300
 Alpha  occ. eigenvalues --   -0.40312  -0.36878  -0.35917  -0.34987  -0.32277
 Alpha  occ. eigenvalues --   -0.31266  -0.30225  -0.29146  -0.27102  -0.26251
 Alpha virt. eigenvalues --    0.10473   0.10595   0.10985   0.12034   0.13728
 Alpha virt. eigenvalues --    0.14426   0.15376   0.16273   0.16467   0.17382
 Alpha virt. eigenvalues --    0.17868   0.18291   0.19875   0.20350   0.22238

 Mulliken charges:
               1
     1  C   -0.442282
     2  C    0.067250
     3  C   -0.141183
     4  C   -0.221757
     5  C   -0.141029
     6  C    0.472896
     7  C   -0.372113
     8  C   -0.378461
     9  H    0.111983
    10  H    0.128773
    11  H    0.111970
    12  H    0.057365
    13  H    0.064645
    14  H    0.092728
    15  H    0.084269
    16  H    0.064648
    17  H    0.110614
    18  H    0.110608
    19  H    0.109543
    20  H    0.109534
 Sum of Mulliken charges =  -0.00000

 Dipole moment (field-independent basis, Debye):
    X=             -0.0957    Y=             -0.0433    Z=              0.0000  Tot=              0.1050
 Quadrupole moment (field-independent basis, Debye-Ang):
   XX=            -50.3919   YY=            -50.4841   ZZ=            -48.3748
   XY=              0.1300   XZ=              0.0006   YZ=              0.0003

  Exact polarizability:  87.622   0.218  82.081   0.001  -0.001  70.000
 Approx polarizability: 118.652  -0.229 116.226   0.001  -0.001 109.537

                      1                      2                      3
                      A                      A                      A
 Frequencies --    179.2522               194.1767               211.5409
 Red. masses --      1.0368                 3.1831                 2.0247
 Frc consts  --      0.0196                 0.0707                 0.0534
 IR Inten    --      0.0013                 0.0443                 0.0287

                      4                      5                      6
                      A                      A                      A
 Frequencies --    288.2382               325.7044               329.9201
 Red. masses --      2.2580                 2.2380                 2.7755
 Frc consts  --      0.1105                 0.1399                 0.1780
 IR Inten    --      0.0058                 0.1985                 0.6903

                      7                      8                      9
                      A                      A                      A
 Frequencies --    495.2802               586.3930               646.9204
 Red. masses --      3.0413                 2.9292                 3.3482
 Frc consts  --      0.4396                 0.5934                 0.8256
 IR Inten    --      0.9126                 1.2849                 0.4074

                     10                     11                     12
                      A                      A                      A
 Frequencies --    760.2457               766.3774               785.3001
 Red. masses --      2.0501                 1.8066                 1.9975
 Frc consts  --      0.6981                 0.6252                 0.7258
 IR Inten    --      0.0904                 0.0096                 0.2403

                     13                     14                     15
                      A                      A                      A
 Frequencies --    791.7460               869.1136               891.2567
 Red. masses --      1.4474                 2.0802                 2.1872
 Frc consts  --      0.5346                 0.9258                 1.0236
 IR Inten    --      0.1875                 0.4767                 0.1017

                     16                     17                     18
                      A                      A                      A
 Frequencies --    910.1829               958.0819               975.1341
 Red. masses --      1.1966                 2.5238                 2.7943
 Frc consts  --      0.5841                 1.3649                 1.5655
 IR Inten    --      0.0135                 2.7921                18.3921

                     19                     20                     21
                      A                      A                      A
 Frequencies --   1018.9778              1029.7686              1036.0324
 Red. masses --      1.1174                 1.0506                 1.7537
 Frc consts  --      0.6836                 0.6564                 1.1091
 IR Inten    --      1.7767                 2.2335                 4.4718

                     22                     23                     24
                      A                      A                      A
 Frequencies --   1049.2047              1077.7442              1086.1621
 Red. masses --      1.3743                 1.5496                 2.5579
 Frc consts  --      0.8914                 1.0605                 1.7779
 IR Inten    --      8.8529                 0.5577                 0.7330

                     25                     26                     27
                      A                      A                      A
 Frequencies --   1089.8240              1097.7697              1142.5499
 Red. masses --      1.3955                 2.2612                 1.6500
 Frc consts  --      0.9765                 1.6055                 1.2691
 IR Inten    --      0.3552                 4.6406                 0.0000

                     28                     29                     30
                      A                      A                      A
 Frequencies --   1155.3298              1182.5295              1184.7174
 Red. masses --      2.6288                 1.3206                 1.4103
 Frc consts  --      2.0674                 1.0881                 1.1663
 IR Inten    --      1.2147                 0.1407                 0.1309

                     31                     32                     33
                      A                      A                      A
 Frequencies --   1201.4450              1224.9307              1251.4218
 Red. masses --      1.4723                 1.7451                 1.8042
 Frc consts  --      1.2522                 1.5427                 1.6647
 IR Inten    --      1.5259                 0.6186                 0.8437

                     34                     35                     36
                      A                      A                      A
 Frequencies --   1263.9862              1399.7436              1407.3980
 Red. masses --      1.8840                 1.5362                 1.4561
 Frc consts  --      1.7734                 1.7734                 1.6994
 IR Inten    --      7.2496                 5.7870                 1.2712

                     37                     38                     39
                      A                      A                      A
 Frequencies --   1422.9388              1462.2233              1495.1733
 Red. masses --      1.4059                 1.0893                 1.0608
 Frc consts  --      1.6772                 1.3722                 1.3973
 IR Inten    --     10.9887                 0.3487                 2.2718

                     40                     41                     42
                      A                      A                      A
 Frequencies --   1500.4155              1505.5497              1524.1078
 Red. masses --      1.0467                 1.2522                 1.5698
 Frc consts  --      1.3883                 1.6722                 2.1485
 IR Inten    --      2.0289                 0.6490                 2.1249

                     43                     44                     45
                      A                      A                      A
 Frequencies --   3024.0172              3034.1247              3052.8386
 Red. masses --      1.0746                 1.0485                 1.0549
 Frc consts  --      5.7896                 5.6868                 5.7927
 IR Inten    --     31.5954                49.8992                56.2279

                     46                     47                     48
                      A                      A                      A
 Frequencies --   3083.2157              3087.7116              3093.8452
 Red. masses --      1.1001                 1.0898                 1.0928
 Frc consts  --      6.1618                 6.1219                 6.1629
 IR Inten    --     20.2666               116.9354                 8.7956

                     49                     50                     51
                      A                      A                      A
 Frequencies --   3113.8590              3118.1209              3125.4171
 Red. masses --      1.0511                 1.0577                 1.1094
 Frc consts  --      6.0047                 6.0588                 6.3849
 IR Inten    --     17.1722                12.3345                36.8516

                     52                     53                     54
                      A                      A                      A
 Frequencies --   3138.0210              3189.2015              3203.9613
 Red. masses --      1.0957                 1.1171                 1.1148
 Frc consts  --      6.3567                 6.6943                 6.7428
 IR Inten    --     25.0091                 0.0669                19.0909

 - Thermochemistry -
 -------------------
 Temperature   298.150 Kelvin.  Pressure   1.00000 Atm.
 Atom     1 has atomic number  6 and mass  12.00000

 Molecular mass:   108.09390 amu.
 Principal axes and moments of inertia in atomic units:
                           1         2         3
     Eigenvalues --   571.18639 838.226631161.54463
           X            0.99940   0.03475   0.00000
           Y           -0.03475   0.99940   0.00000
           Z            0.00000  -0.00000   1.00000
 This molecule is an asymmetric top.
 Rotational symmetry number  1.
 Warning -- assumption of classical behavior for rotation
           may cause significant error
 Rotational temperatures (Kelvin)      0.15164     0.10333     0.07457
 Rotational constants (GHZ):           3.15964     2.15305     1.55374
 Zero-point vibrational energy     466777.7 (Joules/Mol)
                                  111.56255 (Kcal/Mol)
 Warning -- explicit consideration of   8 degrees of freedom as
           vibrations may cause significant error
 Vibrational temperatures:    257.90   279.38   304.36   414.71   468.62
          (Kelvin)            474.68   712.60   843.69   930.77  1093.82
                             1102.65  1129.87  1139.15  1250.46  1282.32
                             1309.55  1378.47  1403.00  1466.08  1481.61
                             1490.62  1509.57  1550.63  1562.75  1568.01
                             1579.45  1643.87  1662.26  1701.40  1704.54
                             1728.61  1762.40  1800.52  1818.59  2013.92
                             2024.93  2047.29  2103.81  2151.22  2158.76
                             2166.15  2192.85  4350.89  4365.43  4392.35
                             4436.06  4442.53  4451.35  4480.15  4486.28
                             4496.78  4514.91  4588.55  4609.79

 Zero-point correction=                           0.177786 (Hartree/Particle)
 Thermal correction to Energy=                    0.185076
 Thermal correction to Enthalpy=                  0.186020
 Thermal correction to Gibbs Free Energy=         0.146842
 Sum of electronic and zero-point Energies=           -311.799736
 Sum of electronic and thermal Energies=              -311.792446
 Sum of electronic and thermal Enthalpies=            -311.791502
 Sum of electronic and thermal Free Energies=         -311.830680

                     E (Thermal)             CV                S
                      KCal/Mol        Cal/Mol-Kelvin    Cal/Mol-Kelvin
 Total                  116.137             29.694             82.458
 Electronic               0.000              0.000              0.000
 Translational            0.889              2.981             39.950
 Rotational               0.889              2.981             27.811
 Vibrational            114.359             23.733             14.697
 Vibration     1          0.629              1.868              2.336
 Vibration     2          0.635              1.848              2.188
 Vibration     3          0.643              1.823              2.030
 Vibration     4          0.685              1.696              1.484
 Vibration     5          0.710              1.624              1.281
 Vibration     6          0.713              1.616              1.260
 Vibration     7          0.851              1.260              0.670
 Vibration     8          0.943              1.061              0.474

 Optimization completed.
    -- Stationary point found.
 Normal termination of Gaussian 16 at Sun May 28 22:42:54 2023.
