 Gaussian 16, Revision A.03,
 Gaussian 16:  ES64L-G16RevA.03 25-Dec-2016

 -----------------------------
 # opt freq b3lyp/6-31g(2df,p)
 -----------------------------

 -------------------
 Title Card Required
 -------------------
 Symbolic Z-matrix:
 Charge =  0 Multiplicity = 1

 SCF Done:  E(RB3LYP) =  -235.888223107     A.U. after   11 cycles
 SCF Done:  E(RB3LYP) =  -235.889798874     A.U. after   10 cycles
 SCF Done:  E(RB3LYP) =  -235.889840442     A.U. after    8 cycles
 SCF Done:  E(RB3LYP) =  -235.889846643     A.U. after    8 cycles
 SCF Done:  E(RB3LYP) =  -235.889847535     A.U. after    6 cycles
 SCF Done:  E(RB3LYP) =  -235.889848701     A.U. after    6 cycles
 SCF Done:  E(RB3LYP) =  -235.889850862     A.U. after    8 cycles
 SCF Done:  E(RB3LYP) =  -235.889852045     A.U. after    7 cycles
 SCF Done:  E(RB3LYP) =  -235.889852294     A.U. after    6 cycles
 Optimization completed.
    -- Stationary point found.
 Normal termination of Gaussian 16 at Sun May 28 00:43:05 2023.

 ----------------------------------------------------------------------
 #N Geom=AllCheck Guess=TCheck SCRF=Check GenChk RB3LYP/6-31G(2df,p) Fr
 eq
 ----------------------------------------------------------------------

 Structure from the checkpoint file:  "CC1CCCC1.chk"
 -------------------
 Title Card Required
 -------------------
 Charge =  0 Multiplicity = 1

                         Standard orientation:
 ---------------------------------------------------------------------
 Center     Atomic      Atomic             Coordinates (Angstroms)
 Number     Number       Type             X           Y           Z
 ---------------------------------------------------------------------
      1          6           0       -1.800928    0.000008   -0.663779
      2          6           0       -0.855949   -0.000158    0.545527
      3          6           0        0.114947   -1.199488    0.537175
      4          6           0        1.270159   -0.778650   -0.403820
      5          6           0        1.269998    0.778842   -0.403768
      6          6           0        0.114809    1.199396    0.537340
      7          1           0       -2.446140   -0.885054   -0.659917
      8          1           0       -1.249882    0.000617   -1.610838
      9          1           0       -2.446660    0.884681   -0.659082
     10          1           0       -1.465188   -0.000259    1.456592
     11          1           0       -0.365093   -2.133199    0.227355
     12          1           0        0.499827   -1.358876    1.551221
     13          1           0        1.103519   -1.160981   -1.415427
     14          1           0        2.227080   -1.191462   -0.072783
     15          1           0        1.103155    1.161198   -1.415336
     16          1           0        2.226882    1.191851   -0.072860
     17          1           0       -0.365420    2.133047    0.227643
     18          1           0        0.499702    1.358734    1.551388
 ---------------------------------------------------------------------

 SCF Done:  E(RB3LYP) =  -235.889852294     A.U. after    1 cycles

 The electronic state is 1-A.
 Alpha  occ. eigenvalues --  -10.17692 -10.17098 -10.17080 -10.16919 -10.16918
 Alpha  occ. eigenvalues --  -10.16719  -0.82794  -0.72900  -0.69834  -0.65399
 Alpha  occ. eigenvalues --   -0.55566  -0.53740  -0.47874  -0.46238  -0.42376
 Alpha  occ. eigenvalues --   -0.39786  -0.38597  -0.37654  -0.32808  -0.32664
 Alpha  occ. eigenvalues --   -0.31440  -0.31394  -0.31150  -0.30230
 Alpha virt. eigenvalues --    0.07627   0.09864   0.13243   0.14485   0.15339
 Alpha virt. eigenvalues --    0.15977   0.17707   0.17940   0.18466   0.18956
 Alpha virt. eigenvalues --    0.19624   0.19927   0.21662   0.23813   0.26334

 Mulliken charges:
               1
     1  C   -0.385982
     2  C    0.035832
     3  C   -0.198531
     4  C   -0.193042
     5  C   -0.193032
     6  C   -0.198545
     7  H    0.109329
     8  H    0.113926
     9  H    0.109340
    10  H    0.060639
    11  H    0.087237
    12  H    0.090898
    13  H    0.097872
    14  H    0.094028
    15  H    0.097872
    16  H    0.094023
    17  H    0.087241
    18  H    0.090894
 Sum of Mulliken charges =  -0.00000

 Dipole moment (field-independent basis, Debye):
    X=              0.0084    Y=              0.0000    Z=              0.0608  Tot=              0.0614
 Quadrupole moment (field-independent basis, Debye-Ang):
   XX=            -39.8235   YY=            -39.9805   ZZ=            -39.3976
   XY=             -0.0000   XZ=              0.2201   YZ=              0.0000

  Exact polarizability:  65.864   0.001  62.542   0.331   0.000  58.595
 Approx polarizability:  86.584   0.001  86.285   0.588   0.000  85.983

                      1                      2                      3
                      A                      A                      A
 Frequencies --     64.3827               175.4827               220.7793
 Red. masses --      1.6078                 2.3095                 1.0418
 Frc consts  --      0.0039                 0.0419                 0.0299
 IR Inten    --      0.0012                 0.0292                 0.0454

                      4                      5                      6
                      A                      A                      A
 Frequencies --    346.7038               368.7544               630.7645
 Red. masses --      1.9587                 1.9032                 2.6028
 Frc consts  --      0.1387                 0.1525                 0.6101
 IR Inten    --      0.0084                 0.2511                 0.0253

                      7                      8                      9
                      A                      A                      A
 Frequencies --    656.8307               770.1398               812.0825
 Red. masses --      1.9028                 1.6603                 1.6817
 Frc consts  --      0.4837                 0.5802                 0.6534
 IR Inten    --      1.8948                 0.6132                 0.0013

                     10                     11                     12
                      A                      A                      A
 Frequencies --    819.6835               888.9190               896.6051
 Red. masses --      2.1586                 2.8475                 2.1219
 Frc consts  --      0.8545                 1.3257                 1.0050
 IR Inten    --      0.4679                 0.3237                 0.6350

                     13                     14                     15
                      A                      A                      A
 Frequencies --    924.1080               970.3887              1003.7746
 Red. masses --      1.7676                 1.4270                 2.3551
 Frc consts  --      0.8893                 0.7917                 1.3981
 IR Inten    --      0.8767                 0.6374                 0.0815

                     16                     17                     18
                      A                      A                      A
 Frequencies --   1029.3999              1037.5127              1072.5323
 Red. masses --      1.6479                 1.2941                 1.7406
 Frc consts  --      1.0288                 0.8208                 1.1797
 IR Inten    --      0.3310                 0.1549                 0.2087

                     19                     20                     21
                      A                      A                      A
 Frequencies --   1134.5559              1189.9917              1218.1374
 Red. masses --      1.3210                 1.6393                 1.4848
 Frc consts  --      1.0019                 1.3677                 1.2981
 IR Inten    --      1.1720                 0.9147                 0.0920

                     22                     23                     24
                      A                      A                      A
 Frequencies --   1237.9010              1246.8531              1301.3717
 Red. masses --      1.4208                 1.3018                 1.2770
 Frc consts  --      1.2828                 1.1924                 1.2742
 IR Inten    --      0.4837                 0.5003                 0.0811

                     25                     26                     27
                      A                      A                      A
 Frequencies --   1314.9130              1315.7534              1351.9899
 Red. masses --      1.1872                 1.3434                 1.4896
 Frc consts  --      1.2094                 1.3703                 1.6042
 IR Inten    --      0.0080                 0.2163                 0.7199

                     28                     29                     30
                      A                      A                      A
 Frequencies --   1352.6114              1379.6462              1412.0877
 Red. masses --      1.4490                 1.4088                 1.2637
 Frc consts  --      1.5619                 1.5799                 1.4847
 IR Inten    --      0.5811                 5.4199                 4.5701

                     31                     32                     33
                      A                      A                      A
 Frequencies --   1485.0100              1489.5183              1491.9649
 Red. masses --      1.0807                 1.0680                 1.0691
 Frc consts  --      1.4042                 1.3960                 1.4021
 IR Inten    --      0.6106                 0.6800                 2.9064

                     34                     35                     36
                      A                      A                      A
 Frequencies --   1504.0453              1505.7330              1520.1202
 Red. masses --      1.0652                 1.0605                 1.1010
 Frc consts  --      1.4198                 1.4166                 1.4990
 IR Inten    --      0.1364                 5.2660                 0.9368

                     37                     38                     39
                      A                      A                      A
 Frequencies --   3024.7198              3027.6981              3030.1372
 Red. masses --      1.0667                 1.0418                 1.0631
 Frc consts  --      5.7499                 5.6268                 5.7510
 IR Inten    --     17.2515                14.6549                30.2653

                     40                     41                     42
                      A                      A                      A
 Frequencies --   3044.3627              3045.3723              3058.3520
 Red. masses --      1.0719                 1.0637                 1.0690
 Frc consts  --      5.8530                 5.8121                 5.8911
 IR Inten    --     75.5781                21.1321                17.8129

                     43                     44                     45
                      A                      A                      A
 Frequencies --   3069.3246              3077.9536              3084.2238
 Red. masses --      1.0970                 1.0961                 1.1051
 Frc consts  --      6.0888                 6.1180                 6.1934
 IR Inten    --     34.9001                11.1325                 2.3647

                     46                     47                     48
                      A                      A                      A
 Frequencies --   3094.5490              3094.9458              3103.3161
 Red. masses --      1.1007                 1.1014                 1.1048
 Frc consts  --      6.2105                 6.2156                 6.2688
 IR Inten    --     56.2860                39.9226                78.3489

 - Thermochemistry -
 -------------------
 Temperature   298.150 Kelvin.  Pressure   1.00000 Atm.
 Atom     1 has atomic number  6 and mass  12.00000

 Molecular mass:    84.09390 amu.
 Principal axes and moments of inertia in atomic units:
                           1         2         3
     Eigenvalues --   369.40511 535.96403 660.32082
           X            0.99992  -0.00001   0.01279
           Y            0.00001   1.00000  -0.00000
           Z           -0.01279   0.00000   0.99992
 This molecule is an asymmetric top.
 Rotational symmetry number  1.
 Rotational temperatures (Kelvin)      0.23447     0.16160     0.13117
 Rotational constants (GHZ):           4.88553     3.36728     2.73313
 Zero-point vibrational energy     441996.3 (Joules/Mol)
                                  105.63964 (Kcal/Mol)
 Warning -- explicit consideration of   5 degrees of freedom as
           vibrations may cause significant error
 Vibrational temperatures:     92.63   252.48   317.65   498.83   530.56
          (Kelvin)            907.53   945.03  1108.06  1168.41  1179.34
                             1278.96  1290.01  1329.59  1396.17  1444.21
                             1481.08  1492.75  1543.13  1632.37  1712.13
                             1752.63  1781.06  1793.94  1872.38  1891.87
                             1893.08  1945.21  1946.11  1985.00  2031.68
                             2136.60  2143.08  2146.60  2163.99  2166.41
                             2187.11  4351.90  4356.18  4359.69  4380.16
                             4381.61  4400.29  4416.07  4428.49  4437.51
                             4452.37  4452.94  4464.98

 Zero-point correction=                           0.168347 (Hartree/Particle)
 Thermal correction to Energy=                    0.174839
 Thermal correction to Enthalpy=                  0.175783
 Thermal correction to Gibbs Free Energy=         0.138176
 Sum of electronic and zero-point Energies=           -235.721505
 Sum of electronic and thermal Energies=              -235.715013
 Sum of electronic and thermal Enthalpies=            -235.714069
 Sum of electronic and thermal Free Energies=         -235.751676

                     E (Thermal)             CV                S
                      KCal/Mol        Cal/Mol-Kelvin    Cal/Mol-Kelvin
 Total                  109.713             24.185             79.150
 Electronic               0.000              0.000              0.000
 Translational            0.889              2.981             39.202
 Rotational               0.889              2.981             26.372
 Vibrational            107.936             18.224             13.577
 Vibration     1          0.597              1.971              4.318
 Vibration     2          0.627              1.873              2.376
 Vibration     3          0.647              1.809              1.953
 Vibration     4          0.725              1.582              1.181
 Vibration     5          0.741              1.536              1.085

 Optimization completed.
    -- Stationary point found.
 Normal termination of Gaussian 16 at Sun May 28 00:59:13 2023.
