 Gaussian 16, Revision A.03,
 Gaussian 16:  ES64L-G16RevA.03 25-Dec-2016

 -----------------------------
 # opt freq b3lyp/6-31g(2df,p)
 -----------------------------

 -------------------
 Title Card Required
 -------------------
 Symbolic Z-matrix:
 Charge =  0 Multiplicity = 1

 SCF Done:  E(RB3LYP) =  -314.275374541     A.U. after   12 cycles
 SCF Done:  E(RB3LYP) =  -314.329346042     A.U. after   11 cycles
 SCF Done:  E(RB3LYP) =  -314.391200667     A.U. after   11 cycles
 SCF Done:  E(RB3LYP) =  -314.432745021     A.U. after   10 cycles
 SCF Done:  E(RB3LYP) =  -314.497812774     A.U. after   11 cycles
 SCF Done:  E(RB3LYP) =  -314.506692945     A.U. after   10 cycles
 SCF Done:  E(RB3LYP) =  -314.512834161     A.U. after   10 cycles
 SCF Done:  E(RB3LYP) =  -314.514828435     A.U. after   11 cycles
 SCF Done:  E(RB3LYP) =  -314.516716777     A.U. after   10 cycles
 SCF Done:  E(RB3LYP) =  -314.517964992     A.U. after    9 cycles
 SCF Done:  E(RB3LYP) =  -314.522253735     A.U. after    9 cycles
 SCF Done:  E(RB3LYP) =  -314.522325834     A.U. after    8 cycles
 SCF Done:  E(RB3LYP) =  -314.522496931     A.U. after    9 cycles
 SCF Done:  E(RB3LYP) =  -314.522459076     A.U. after    9 cycles
 SCF Done:  E(RB3LYP) =  -314.522525547     A.U. after    9 cycles
 SCF Done:  E(RB3LYP) =  -314.522525010     A.U. after    8 cycles
 SCF Done:  E(RB3LYP) =  -314.522529729     A.U. after    8 cycles
 SCF Done:  E(RB3LYP) =  -314.522529040     A.U. after    7 cycles
 SCF Done:  E(RB3LYP) =  -314.522529984     A.U. after    7 cycles
 Optimization completed.
    -- Stationary point found.
 Normal termination of Gaussian 16 at Sun May 28 17:44:42 2023.

 ----------------------------------------------------------------------
 #N Geom=AllCheck Guess=TCheck SCRF=Check GenChk RB3LYP/6-31G(2df,p) Fr
 eq
 ----------------------------------------------------------------------

 Structure from the checkpoint file:  "CC1CCqCrCqCrC1.chk"
 -------------------
 Title Card Required
 -------------------
 Charge =  0 Multiplicity = 1

                         Standard orientation:
 ---------------------------------------------------------------------
 Center     Atomic      Atomic             Coordinates (Angstroms)
 Number     Number       Type             X           Y           Z
 ---------------------------------------------------------------------
      1          6           0        3.005941    0.387797   -0.234291
      2          6           0        1.857433   -0.625776   -0.201482
      3          6           0        0.601591   -0.145501    0.546817
      4          6           0       -0.481548   -1.258919    0.608946
      5          6           0       -1.525224   -1.107318   -0.504800
      6          6           0       -2.321766    0.207252   -0.343160
      7          6           0       -1.461942    1.328798    0.285465
      8          6           0        0.020685    1.153629   -0.065669
      9          1           0        3.887350   -0.032924   -0.728625
     10          1           0        3.302495    0.679857    0.779912
     11          1           0        2.730666    1.299450   -0.773383
     12          1           0        1.580824   -0.897770   -1.230112
     13          1           0        2.212073   -1.551101    0.270712
     14          1           0        0.904622    0.081167    1.578733
     15          1           0       -0.994856   -1.224259    1.578036
     16          1           0       -0.003315   -2.243636    0.555497
     17          1           0       -2.206673   -1.964546   -0.513725
     18          1           0       -1.016229   -1.117059   -1.476706
     19          1           0       -3.206307    0.033292    0.280233
     20          1           0       -2.696715    0.527858   -1.321866
     21          1           0       -1.822694    2.310094   -0.040533
     22          1           0       -1.569020    1.314569    1.377694
     23          1           0        0.598247    2.019831    0.272585
     24          1           0        0.128518    1.125405   -1.159404
 ---------------------------------------------------------------------

 SCF Done:  E(RB3LYP) =  -314.522529984     A.U. after    1 cycles

 The electronic state is 1-A.
 Alpha  occ. eigenvalues --  -10.17618 -10.17227 -10.17141 -10.17122 -10.17097
 Alpha  occ. eigenvalues --  -10.16971 -10.16919 -10.16778  -0.82579  -0.76756
 Alpha  occ. eigenvalues --   -0.72917  -0.70696  -0.62298  -0.60855  -0.57119
 Alpha  occ. eigenvalues --   -0.51577  -0.47621  -0.46408  -0.44300  -0.41551
 Alpha  occ. eigenvalues --   -0.40569  -0.38582  -0.37368  -0.36566  -0.35843
 Alpha  occ. eigenvalues --   -0.35092  -0.33484  -0.33106  -0.32150  -0.28908
 Alpha  occ. eigenvalues --   -0.28798  -0.28680
 Alpha virt. eigenvalues --    0.07963   0.10111   0.10806   0.12997   0.13968
 Alpha virt. eigenvalues --    0.14320   0.15728   0.16253   0.16590   0.17460
 Alpha virt. eigenvalues --    0.17974   0.18776   0.18885   0.20217   0.20799

 Mulliken charges:
               1
     1  C   -0.386998
     2  C   -0.175560
     3  C    0.060764
     4  C   -0.213801
     5  C   -0.189296
     6  C   -0.180178
     7  C   -0.203650
     8  C   -0.192647
     9  H    0.108906
    10  H    0.110999
    11  H    0.117401
    12  H    0.091396
    13  H    0.089002
    14  H    0.061656
    15  H    0.088626
    16  H    0.085215
    17  H    0.087937
    18  H    0.095147
    19  H    0.092091
    20  H    0.091694
    21  H    0.087939
    22  H    0.093337
    23  H    0.090834
    24  H    0.089184
 Sum of Mulliken charges =  -0.00000

 Dipole moment (field-independent basis, Debye):
    X=             -0.0382    Y=              0.0025    Z=              0.0368  Tot=              0.0531
 Quadrupole moment (field-independent basis, Debye-Ang):
   XX=            -53.6346   YY=            -53.1824   ZZ=            -52.4787
   XY=             -0.1419   XZ=             -0.0351   YZ=             -0.0881

  Exact polarizability:  95.682   0.136  82.461   0.089  -0.026  74.518
 Approx polarizability: 117.483  -0.194 115.561  -0.430  -0.153 116.954

                      1                      2                      3
                      A                      A                      A
 Frequencies --     69.3298               113.7601               178.5351
 Red. masses --      2.4216                 1.8514                 1.8913
 Frc consts  --      0.0069                 0.0141                 0.0355
 IR Inten    --      0.0050                 0.0029                 0.0062

                      4                      5                      6
                      A                      A                      A
 Frequencies --    213.5703               248.7828               280.6613
 Red. masses --      1.8185                 1.2563                 1.9620
 Frc consts  --      0.0489                 0.0458                 0.0911
 IR Inten    --      0.0375                 0.0336                 0.0161

                      7                      8                      9
                      A                      A                      A
 Frequencies --    372.5370               396.2589               448.5612
 Red. masses --      2.4138                 2.1919                 2.6034
 Frc consts  --      0.1974                 0.2028                 0.3086
 IR Inten    --      0.0670                 0.4218                 0.0683

                     10                     11                     12
                      A                      A                      A
 Frequencies --    517.7117               566.4681               743.3909
 Red. masses --      2.8818                 1.7193                 1.9844
 Frc consts  --      0.4551                 0.3251                 0.6461
 IR Inten    --      0.0138                 0.9498                 0.6616

                     13                     14                     15
                      A                      A                      A
 Frequencies --    773.7488               794.8032               832.0229
 Red. masses --      1.3439                 1.3204                 2.6473
 Frc consts  --      0.4741                 0.4915                 1.0797
 IR Inten    --      1.5762                 1.3476                 0.1824

                     16                     17                     18
                      A                      A                      A
 Frequencies --    870.7468               889.5843               915.9609
 Red. masses --      1.6279                 2.0956                 1.9399
 Frc consts  --      0.7272                 0.9771                 0.9589
 IR Inten    --      0.8211                 1.7954                 0.5427

                     19                     20                     21
                      A                      A                      A
 Frequencies --    961.1323              1006.6978              1022.5520
 Red. masses --      1.4776                 1.9183                 1.4597
 Frc consts  --      0.8042                 1.1454                 0.8992
 IR Inten    --      0.4073                 3.3468                 0.2785

                     22                     23                     24
                      A                      A                      A
 Frequencies --   1031.3960              1046.2623              1071.5811
 Red. masses --      1.9003                 2.1184                 2.0678
 Frc consts  --      1.1910                 1.3663                 1.3989
 IR Inten    --      0.0088                 0.0352                 0.1048

                     25                     26                     27
                      A                      A                      A
 Frequencies --   1093.8683              1115.2723              1147.1193
 Red. masses --      1.7594                 2.0042                 1.1712
 Frc consts  --      1.2403                 1.4688                 0.9080
 IR Inten    --      0.6686                 0.8567                 0.2661

                     28                     29                     30
                      A                      A                      A
 Frequencies --   1177.8437              1206.1164              1248.5866
 Red. masses --      2.2432                 1.4331                 1.3897
 Frc consts  --      1.8336                 1.2283                 1.2764
 IR Inten    --      0.7780                 0.6578                 0.4858

                     31                     32                     33
                      A                      A                      A
 Frequencies --   1273.8074              1295.4287              1301.6589
 Red. masses --      1.2443                 1.2773                 1.1814
 Frc consts  --      1.1895                 1.2629                 1.1794
 IR Inten    --      0.4536                 1.0239                 0.2697

                     34                     35                     36
                      A                      A                      A
 Frequencies --   1329.6509              1341.1846              1351.3327
 Red. masses --      1.2164                 1.3060                 1.4067
 Frc consts  --      1.2671                 1.3841                 1.5135
 IR Inten    --      5.6543                 0.0870                 2.9865

                     37                     38                     39
                      A                      A                      A
 Frequencies --   1366.2413              1373.5642              1381.5025
 Red. masses --      1.4068                 1.2880                 1.4386
 Frc consts  --      1.5472                 1.4317                 1.6177
 IR Inten    --      0.6823                 3.3091                 1.4869

                     40                     41                     42
                      A                      A                      A
 Frequencies --   1389.3114              1391.0377              1411.5258
 Red. masses --      1.4773                 1.4085                 1.2386
 Frc consts  --      1.6800                 1.6057                 1.4539
 IR Inten    --      0.1704                 0.6443                 1.9223

                     43                     44                     45
                      A                      A                      A
 Frequencies --   1484.9311              1486.2610              1491.7874
 Red. masses --      1.0700                 1.0758                 1.0881
 Frc consts  --      1.3901                 1.4002                 1.4267
 IR Inten    --      0.3639                 0.2771                 0.1315

                     46                     47                     48
                      A                      A                      A
 Frequencies --   1493.3233              1500.4477              1504.1040
 Red. masses --      1.0843                 1.0524                 1.0749
 Frc consts  --      1.4247                 1.3960                 1.4327
 IR Inten    --      2.1191                 7.2571                 3.7570

                     49                     50                     51
                      A                      A                      A
 Frequencies --   1508.4205              1514.1775              2989.8365
 Red. masses --      1.0633                 1.0940                 1.0797
 Frc consts  --      1.4254                 1.4778                 5.6867
 IR Inten    --      3.3227                 0.5361                 8.3923

                     52                     53                     54
                      A                      A                      A
 Frequencies --   3003.3666              3007.7866              3018.5598
 Red. masses --      1.0658                 1.0658                 1.0641
 Frc consts  --      5.6644                 5.6808                 5.7128
 IR Inten    --     22.3089                20.5693                14.0055

                     55                     56                     57
                      A                      A                      A
 Frequencies --   3021.7605              3024.8779              3029.7615
 Red. masses --      1.0643                 1.0631                 1.0385
 Frc consts  --      5.7257                 5.7313                 5.6164
 IR Inten    --     13.0296                42.9777                29.6531

                     58                     59                     60
                      A                      A                      A
 Frequencies --   3031.7635              3041.6730              3053.0670
 Red. masses --      1.0661                 1.0970                 1.0965
 Frc consts  --      5.7734                 5.9798                 6.0216
 IR Inten    --     28.7532                39.1767                24.1495

                     61                     62                     63
                      A                      A                      A
 Frequencies --   3059.6096              3065.4112              3070.1409
 Red. masses --      1.1003                 1.0978                 1.0927
 Frc consts  --      6.0686                 6.0780                 6.0683
 IR Inten    --     49.1180                66.4509                27.1747

                     64                     65                     66
                      A                      A                      A
 Frequencies --   3079.1500              3094.0744              3105.2584
 Red. masses --      1.1043                 1.1004                 1.1008
 Frc consts  --      6.1688                 6.2065                 6.2538
 IR Inten    --     87.2969                42.8394                41.3709

 - Thermochemistry -
 -------------------
 Temperature   298.150 Kelvin.  Pressure   1.00000 Atm.
 Atom     1 has atomic number  6 and mass  12.00000

 Molecular mass:   112.12520 amu.
 Principal axes and moments of inertia in atomic units:
                           1         2         3
     Eigenvalues --   496.742391353.616941628.87758
           X            0.99999   0.00472  -0.00200
           Y           -0.00471   0.99999   0.00146
           Z            0.00200  -0.00145   1.00000
 This molecule is an asymmetric top.
 Rotational symmetry number  1.
 Warning -- assumption of classical behavior for rotation
           may cause significant error
 Rotational temperatures (Kelvin)      0.17436     0.06399     0.05317
 Rotational constants (GHZ):           3.63315     1.33327     1.10797
 Zero-point vibrational energy     593591.0 (Joules/Mol)
                                  141.87164 (Kcal/Mol)
 Warning -- explicit consideration of  11 degrees of freedom as
           vibrations may cause significant error
 Vibrational temperatures:     99.75   163.68   256.87   307.28   357.94
          (Kelvin)            403.81   536.00   570.13   645.38   744.87
                              815.02  1069.57  1113.25  1143.54  1197.10
                             1252.81  1279.91  1317.86  1382.85  1448.41
                             1471.22  1483.95  1505.34  1541.77  1573.83
                             1604.63  1650.45  1694.65  1735.33  1796.44
                             1832.72  1863.83  1872.80  1913.07  1929.67
                             1944.27  1965.72  1976.25  1987.67  1998.91
                             2001.39  2030.87  2136.48  2138.40  2146.35
                             2148.56  2158.81  2164.07  2170.28  2178.56
                             4301.71  4321.17  4327.53  4343.03  4347.64
                             4352.12  4359.15  4362.03  4376.29  4392.68
                             4402.10  4410.44  4417.25  4430.21  4451.68
                             4467.77

 Zero-point correction=                           0.226087 (Hartree/Particle)
 Thermal correction to Energy=                    0.234769
 Thermal correction to Enthalpy=                  0.235713
 Thermal correction to Gibbs Free Energy=         0.192948
 Sum of electronic and zero-point Energies=           -314.296443
 Sum of electronic and thermal Energies=              -314.287761
 Sum of electronic and thermal Enthalpies=            -314.286817
 Sum of electronic and thermal Free Energies=         -314.329582

                     E (Thermal)             CV                S
                      KCal/Mol        Cal/Mol-Kelvin    Cal/Mol-Kelvin
 Total                  147.320             33.588             90.007
 Electronic               0.000              0.000              0.000
 Translational            0.889              2.981             40.059
 Rotational               0.889              2.981             28.484
 Vibrational            145.542             27.627             21.464
 Vibration     1          0.598              1.969              4.172
 Vibration     2          0.607              1.938              3.204
 Vibration     3          0.629              1.869              2.344
 Vibration     4          0.644              1.820              2.013
 Vibration     5          0.662              1.765              1.739
 Vibration     6          0.680              1.709              1.530
 Vibration     7          0.744              1.529              1.069
 Vibration     8          0.763              1.478              0.977
 Vibration     9          0.808              1.364              0.800
 Vibration    10          0.873              1.211              0.615
 Vibration    11          0.922              1.104              0.511

 Optimization completed.
    -- Stationary point found.
 Normal termination of Gaussian 16 at Sun May 28 18:18:41 2023.
