 Gaussian 16, Revision A.03,
 Gaussian 16:  ES64L-G16RevA.03 25-Dec-2016

 -----------------------------
 # opt freq b3lyp/6-31g(2df,p)
 -----------------------------

 -------------------
 Title Card Required
 -------------------
 Symbolic Z-matrix:
 Charge =  0 Multiplicity = 1

 SCF Done:  E(RB3LYP) =  -588.512378111     A.U. after   12 cycles
 SCF Done:  E(RB3LYP) =  -588.518733141     A.U. after   10 cycles
 SCF Done:  E(RB3LYP) =  -588.519997176     A.U. after    9 cycles
 SCF Done:  E(RB3LYP) =  -588.521861179     A.U. after   10 cycles
 SCF Done:  E(RB3LYP) =  -588.522505993     A.U. after   10 cycles
 SCF Done:  E(RB3LYP) =  -588.522514734     A.U. after    9 cycles
 SCF Done:  E(RB3LYP) =  -588.522714852     A.U. after    9 cycles
 SCF Done:  E(RB3LYP) =  -588.522725686     A.U. after    8 cycles
 SCF Done:  E(RB3LYP) =  -588.522741110     A.U. after    8 cycles
 SCF Done:  E(RB3LYP) =  -588.522752143     A.U. after    8 cycles
 SCF Done:  E(RB3LYP) =  -588.525211092     A.U. after    8 cycles
 SCF Done:  E(RB3LYP) =  -588.525195524     A.U. after    8 cycles
 SCF Done:  E(RB3LYP) =  -588.525215602     A.U. after    8 cycles
 SCF Done:  E(RB3LYP) =  -588.525200559     A.U. after    8 cycles
 SCF Done:  E(RB3LYP) =  -588.525219520     A.U. after    8 cycles
 SCF Done:  E(RB3LYP) =  -588.525214288     A.U. after    8 cycles
 SCF Done:  E(RB3LYP) =  -588.525219959     A.U. after    8 cycles
 SCF Done:  E(RB3LYP) =  -588.525220010     A.U. after    5 cycles
 SCF Done:  E(RB3LYP) =  -588.525220040     A.U. after    5 cycles
 Optimization completed.
    -- Stationary point found.
 Normal termination of Gaussian 16 at Wed May 24 23:45:24 2023.

 ----------------------------------------------------------------------
 #N Geom=AllCheck Guess=TCheck SCRF=Check GenChk RB3LYP/6-31G(2df,p) Fr
 eq
 ----------------------------------------------------------------------

 Structure from the checkpoint file:  "CC1CCCC1CCCCC1CCCC1.chk"
 -------------------
 Title Card Required
 -------------------
 Charge =  0 Multiplicity = 1

                         Standard orientation:
 ---------------------------------------------------------------------
 Center     Atomic      Atomic             Coordinates (Angstroms)
 Number     Number       Type             X           Y           Z
 ---------------------------------------------------------------------
      1          6           0       -3.146102    2.104066   -0.678431
      2          6           0       -3.228190    0.929790    0.304920
      3          6           0       -4.650697    0.773043    0.915232
      4          6           0       -5.278118   -0.418111    0.172762
      5          6           0       -4.089440   -1.371096    0.002693
      6          6           0       -2.908408   -0.447291   -0.371318
      7          6           0       -1.543520   -1.044834   -0.004966
      8          6           0       -0.332340   -0.247889   -0.503682
      9          6           0        1.009560   -0.898618   -0.147113
     10          6           0        2.221138   -0.109504   -0.657597
     11          6           0        3.581374   -0.760721   -0.345520
     12          6           0        4.755653   -0.025008   -1.024985
     13          6           0        5.082888    1.164586   -0.091912
     14          6           0        4.599811    0.731453    1.323203
     15          6           0        3.978861   -0.676513    1.145061
     16          1           0       -3.331461    3.058724   -0.174041
     17          1           0       -3.891695    2.000109   -1.475946
     18          1           0       -2.162064    2.162372   -1.155191
     19          1           0       -2.506179    1.112362    1.109822
     20          1           0       -5.241000    1.691196    0.832964
     21          1           0       -4.578560    0.535886    1.983074
     22          1           0       -5.648714   -0.101923   -0.810669
     23          1           0       -6.121917   -0.863418    0.708304
     24          1           0       -4.258052   -2.157185   -0.740107
     25          1           0       -3.879588   -1.871239    0.958234
     26          1           0       -2.929731   -0.298853   -1.460496
     27          1           0       -1.485163   -2.065528   -0.408518
     28          1           0       -1.484261   -1.150665    1.088221
     29          1           0       -0.359709    0.768132   -0.087941
     30          1           0       -0.399969   -0.130388   -1.594503
     31          1           0        1.040931   -1.915644   -0.563074
     32          1           0        1.070417   -1.017859    0.942606
     33          1           0        2.189393    0.908843   -0.246060
     34          1           0        2.130857    0.005154   -1.746518
     35          1           0        3.537867   -1.805555   -0.677116
     36          1           0        4.526298    0.288457   -2.048421
     37          1           0        5.617439   -0.700404   -1.082239
     38          1           0        4.553299    2.065147   -0.417559
     39          1           0        6.148450    1.409450   -0.109122
     40          1           0        3.857211    1.437337    1.707438
     41          1           0        5.415662    0.717621    2.051227
     42          1           0        3.144172   -0.857397    1.828243
     43          1           0        4.731249   -1.444849    1.357308
 ---------------------------------------------------------------------

 SCF Done:  E(RB3LYP) =  -588.525220040     A.U. after    1 cycles

 The electronic state is 1-A.
 Alpha  occ. eigenvalues --  -10.17597 -10.17481 -10.17356 -10.17183 -10.17155
 Alpha  occ. eigenvalues --  -10.17083 -10.17076 -10.17066 -10.17046 -10.17044
 Alpha  occ. eigenvalues --  -10.16900 -10.16885 -10.16872 -10.16866 -10.16674
 Alpha  occ. eigenvalues --   -0.83504  -0.83005  -0.78711  -0.74431  -0.73508
 Alpha  occ. eigenvalues --   -0.70502  -0.69797  -0.66895  -0.64416  -0.60816
 Alpha  occ. eigenvalues --   -0.57544  -0.56105  -0.55396  -0.53787  -0.53320
 Alpha  occ. eigenvalues --   -0.48044  -0.46982  -0.46447  -0.46350  -0.45348
 Alpha  occ. eigenvalues --   -0.42026  -0.41701  -0.40927  -0.40508  -0.39692
 Alpha  occ. eigenvalues --   -0.38500  -0.37629  -0.37451  -0.36741  -0.35131
 Alpha  occ. eigenvalues --   -0.33256  -0.32968  -0.32707  -0.32515  -0.32384
 Alpha  occ. eigenvalues --   -0.32046  -0.31449  -0.31089  -0.30991  -0.30775
 Alpha  occ. eigenvalues --   -0.30219  -0.30066  -0.29322  -0.28529
 Alpha virt. eigenvalues --    0.07626   0.08386   0.09502   0.09988   0.10539
 Alpha virt. eigenvalues --    0.11355   0.12396   0.12899   0.13528   0.14616
 Alpha virt. eigenvalues --    0.15093   0.15170   0.16024   0.16293   0.17035

 Mulliken charges:
               1
     1  C   -0.401137
     2  C    0.047572
     3  C   -0.216401
     4  C   -0.204744
     5  C   -0.221449
     6  C    0.037823
     7  C   -0.206194
     8  C   -0.187265
     9  C   -0.185082
    10  C   -0.183763
    11  C    0.017426
    12  C   -0.217604
    13  C   -0.193136
    14  C   -0.192218
    15  C   -0.207394
    16  H    0.107391
    17  H    0.110693
    18  H    0.113417
    19  H    0.061637
    20  H    0.087004
    21  H    0.090979
    22  H    0.093985
    23  H    0.089067
    24  H    0.088151
    25  H    0.089621
    26  H    0.060191
    27  H    0.086846
    28  H    0.087193
    29  H    0.096412
    30  H    0.089237
    31  H    0.090105
    32  H    0.094487
    33  H    0.090854
    34  H    0.087435
    35  H    0.057404
    36  H    0.086588
    37  H    0.089762
    38  H    0.098050
    39  H    0.093246
    40  H    0.097158
    41  H    0.093855
    42  H    0.091187
    43  H    0.091610
 Sum of Mulliken charges =  -0.00000

 Dipole moment (field-independent basis, Debye):
    X=              0.0416    Y=             -0.0842    Z=              0.0136  Tot=              0.0949
 Quadrupole moment (field-independent basis, Debye-Ang):
   XX=            -98.4715   YY=            -98.3951   ZZ=            -97.4046
   XY=             -0.4271   XZ=              0.2655   YZ=              0.4267

  Exact polarizability: 189.768   2.381 146.712  -1.882  -0.416 138.845
 Approx polarizability: 220.096  -0.632 216.196   0.278   0.124 216.963

                      1                      2                      3
                      A                      A                      A
 Frequencies --     23.7748                29.3293                42.4649
 Red. masses --      2.8144                 3.4275                 2.9736
 Frc consts  --      0.0009                 0.0017                 0.0032
 IR Inten    --      0.0001                 0.0009                 0.0001

                      4                      5                      6
                      A                      A                      A
 Frequencies --     56.7881                65.8257                87.0803
 Red. masses --      1.9943                 2.4000                 2.6405
 Frc consts  --      0.0038                 0.0061                 0.0118
 IR Inten    --      0.0027                 0.0076                 0.0003

                      7                      8                      9
                      A                      A                      A
 Frequencies --    118.3345               135.1353               149.5218
 Red. masses --      1.7605                 2.7953                 2.8619
 Frc consts  --      0.0145                 0.0301                 0.0377
 IR Inten    --      0.0136                 0.0038                 0.0029

                     10                     11                     12
                      A                      A                      A
 Frequencies --    185.4882               210.1980               238.7513
 Red. masses --      2.2705                 2.4301                 2.1351
 Frc consts  --      0.0460                 0.0633                 0.0717
 IR Inten    --      0.0143                 0.0006                 0.0031

                     13                     14                     15
                      A                      A                      A
 Frequencies --    252.6936               276.7810               318.0384
 Red. masses --      1.0566                 2.6153                 2.1745
 Frc consts  --      0.0397                 0.1180                 0.1296
 IR Inten    --      0.0020                 0.0679                 0.0244

                     16                     17                     18
                      A                      A                      A
 Frequencies --    359.6927               374.2131               421.0783
 Red. masses --      2.1687                 2.2052                 2.4798
 Frc consts  --      0.1653                 0.1819                 0.2591
 IR Inten    --      0.0499                 0.1860                 0.3694

                     19                     20                     21
                      A                      A                      A
 Frequencies --    455.0191               502.4949               561.7587
 Red. masses --      2.6888                 2.4264                 1.9240
 Frc consts  --      0.3280                 0.3610                 0.3577
 IR Inten    --      0.3949                 0.0919                 0.7457

                     22                     23                     24
                      A                      A                      A
 Frequencies --    623.4692               633.6619               661.8215
 Red. masses --      3.0116                 2.5980                 1.8770
 Frc consts  --      0.6897                 0.6146                 0.4844
 IR Inten    --      0.5657                 0.0916                 2.6251

                     25                     26                     27
                      A                      A                      A
 Frequencies --    733.8104               753.4564               778.3527
 Red. masses --      1.1162                 1.5997                 1.6187
 Frc consts  --      0.3541                 0.5351                 0.5778
 IR Inten    --      2.1945                 0.4152                 0.3890

                     28                     29                     30
                      A                      A                      A
 Frequencies --    805.2522               814.8261               837.1884
 Red. masses --      1.5735                 1.6958                 2.0061
 Frc consts  --      0.6012                 0.6634                 0.8284
 IR Inten    --      0.3645                 0.0298                 0.2611

                     31                     32                     33
                      A                      A                      A
 Frequencies --    850.2189               877.2073               890.0819
 Red. masses --      2.2398                 1.5711                 2.8373
 Frc consts  --      0.9539                 0.7123                 1.3244
 IR Inten    --      0.5153                 0.3103                 0.2316

                     34                     35                     36
                      A                      A                      A
 Frequencies --    895.0314               903.7430               911.9042
 Red. masses --      2.0772                 2.0718                 1.7324
 Frc consts  --      0.9804                 0.9970                 0.8488
 IR Inten    --      0.1759                 0.9958                 1.3238

                     37                     38                     39
                      A                      A                      A
 Frequencies --    928.8070               946.1310               986.0828
 Red. masses --      2.3371                 1.6755                 1.7823
 Frc consts  --      1.1879                 0.8837                 1.0211
 IR Inten    --      1.8546                 0.1320                 0.8622

                     40                     41                     42
                      A                      A                      A
 Frequencies --    988.9202              1003.9436              1014.0686
 Red. masses --      2.0850                 1.9723                 1.6336
 Frc consts  --      1.2014                 1.1712                 0.9898
 IR Inten    --      0.3270                 1.5895                 0.3206

                     43                     44                     45
                      A                      A                      A
 Frequencies --   1024.4812              1028.8528              1035.4940
 Red. masses --      2.1325                 1.7879                 1.9378
 Frc consts  --      1.3187                 1.1150                 1.2242
 IR Inten    --      0.4958                 0.3868                 0.1617

                     46                     47                     48
                      A                      A                      A
 Frequencies --   1045.3260              1056.8387              1064.2314
 Red. masses --      1.5807                 1.8785                 1.8705
 Frc consts  --      1.0176                 1.2362                 1.2482
 IR Inten    --      0.3487                 0.0663                 0.0872

                     49                     50                     51
                      A                      A                      A
 Frequencies --   1068.1931              1079.3264              1099.8984
 Red. masses --      1.9447                 1.8312                 1.7310
 Frc consts  --      1.3074                 1.2569                 1.2339
 IR Inten    --      0.1939                 0.1347                 0.2234

                     52                     53                     54
                      A                      A                      A
 Frequencies --   1114.2640              1141.9563              1168.0057
 Red. masses --      1.5869                 1.7042                 1.9141
 Frc consts  --      1.1609                 1.3094                 1.5386
 IR Inten    --      0.0122                 0.8486                 2.4527

                     55                     56                     57
                      A                      A                      A
 Frequencies --   1183.9560              1195.1159              1206.9825
 Red. masses --      1.5234                 1.5649                 1.6592
 Frc consts  --      1.2581                 1.3169                 1.4241
 IR Inten    --      0.9545                 0.1529                 0.3442

                     58                     59                     60
                      A                      A                      A
 Frequencies --   1222.2591              1232.9451              1240.7570
 Red. masses --      1.5387                 1.3693                 1.4299
 Frc consts  --      1.3544                 1.2264                 1.2969
 IR Inten    --      0.3439                 0.3188                 1.1897

                     61                     62                     63
                      A                      A                      A
 Frequencies --   1257.3623              1258.7035              1275.8046
 Red. masses --      1.3270                 1.2690                 1.3182
 Frc consts  --      1.2360                 1.1846                 1.2642
 IR Inten    --      5.1309                 0.3335                 0.5501

                     64                     65                     66
                      A                      A                      A
 Frequencies --   1289.6766              1298.7014              1305.3390
 Red. masses --      1.3011                 1.2891                 1.2969
 Frc consts  --      1.2751                 1.2810                 1.3020
 IR Inten    --      0.9989                 0.1783                 0.7581

                     67                     68                     69
                      A                      A                      A
 Frequencies --   1315.5265              1317.9961              1325.0344
 Red. masses --      1.3322                 1.2070                 1.2316
 Frc consts  --      1.3584                 1.2353                 1.2740
 IR Inten    --      0.2011                 0.5359                 0.8376

                     70                     71                     72
                      A                      A                      A
 Frequencies --   1328.7639              1332.9924              1338.8152
 Red. masses --      1.2734                 1.0989                 1.2927
 Frc consts  --      1.3247                 1.1505                 1.3652
 IR Inten    --      0.2484                 1.3404                 2.1856

                     73                     74                     75
                      A                      A                      A
 Frequencies --   1343.7095              1348.0833              1352.5322
 Red. masses --      1.2866                 1.2484                 1.4697
 Frc consts  --      1.3687                 1.3367                 1.5840
 IR Inten    --      1.5967                 2.8014                 2.2220

                     76                     77                     78
                      A                      A                      A
 Frequencies --   1358.8395              1365.9849              1380.9406
 Red. masses --      1.4189                 1.4289                 1.4319
 Frc consts  --      1.5436                 1.5709                 1.6088
 IR Inten    --      0.0183                 0.6309                 4.5964

                     79                     80                     81
                      A                      A                      A
 Frequencies --   1387.6152              1399.0194              1402.1164
 Red. masses --      1.4690                 1.6027                 1.5305
 Frc consts  --      1.6665                 1.8482                 1.7728
 IR Inten    --      0.5259                 0.8669                 2.7504

                     82                     83                     84
                      A                      A                      A
 Frequencies --   1410.6531              1479.3567              1480.5164
 Red. masses --      1.2355                 1.0826                 1.0706
 Frc consts  --      1.4486                 1.3959                 1.3827
 IR Inten    --      3.6792                 1.2859                 0.3511

                     85                     86                     87
                      A                      A                      A
 Frequencies --   1485.2914              1487.3601              1490.3560
 Red. masses --      1.0802                 1.0849                 1.0828
 Frc consts  --      1.4041                 1.4141                 1.4170
 IR Inten    --      0.7631                 0.7058                 2.7692

                     88                     89                     90
                      A                      A                      A
 Frequencies --   1492.1247              1496.4882              1497.8675
 Red. masses --      1.0889                 1.0848                 1.0857
 Frc consts  --      1.4284                 1.4313                 1.4351
 IR Inten    --      0.7046                 2.3156                 1.4949

                     91                     92                     93
                      A                      A                      A
 Frequencies --   1498.5529              1501.1979              1508.2619
 Red. masses --      1.0575                 1.0493                 1.1056
 Frc consts  --      1.3992                 1.3933                 1.4818
 IR Inten    --      0.9302                 4.1742                 0.9119

                     94                     95                     96
                      A                      A                      A
 Frequencies --   1510.8631              1519.5684              2990.5121
 Red. masses --      1.0989                 1.1007                 1.0767
 Frc consts  --      1.4779                 1.4974                 5.6733
 IR Inten    --      2.6160                 2.1453                 4.1441

                     97                     98                     99
                      A                      A                      A
 Frequencies --   2994.9417              3002.3599              3003.1683
 Red. masses --      1.0634                 1.0582                 1.0602
 Frc consts  --      5.6196                 5.6203                 5.6336
 IR Inten    --      7.5876                 1.5516                 0.0585

                    100                    101                    102
                      A                      A                      A
 Frequencies --   3011.2842              3014.2467              3017.4554
 Red. masses --      1.0666                 1.0716                 1.0787
 Frc consts  --      5.6987                 5.7367                 5.7865
 IR Inten    --     36.5287                44.4181                19.6818

                    103                    104                    105
                      A                      A                      A
 Frequencies --   3017.7903              3021.7640              3024.5042
 Red. masses --      1.0789                 1.0488                 1.0824
 Frc consts  --      5.7888                 5.6424                 5.8335
 IR Inten    --     27.5102                 9.1579                30.2921

                    106                    107                    108
                      A                      A                      A
 Frequencies --   3026.7160              3029.2648              3030.9186
 Red. masses --      1.0636                 1.0866                 1.0685
 Frc consts  --      5.7411                 5.8749                 5.7831
 IR Inten    --     36.8947                 4.4634                26.1972

                    109                    110                    111
                      A                      A                      A
 Frequencies --   3036.7142              3041.3123              3044.6875
 Red. masses --      1.0677                 1.0823                 1.0633
 Frc consts  --      5.8008                 5.8983                 5.8077
 IR Inten    --     34.5013                56.3967                20.2181

                    112                    113                    114
                      A                      A                      A
 Frequencies --   3046.8982              3057.3615              3063.4354
 Red. masses --      1.0914                 1.0673                 1.1037
 Frc consts  --      5.9694                 5.8781                 6.1028
 IR Inten    --     25.3528                27.5622               101.3349

                    115                    116                    117
                      A                      A                      A
 Frequencies --   3071.1921              3075.1019              3076.7013
 Red. masses --      1.0964                 1.0994                 1.0934
 Frc consts  --      6.0932                 6.1254                 6.0979
 IR Inten    --     48.1395                32.8087                44.9755

                    118                    119                    120
                      A                      A                      A
 Frequencies --   3079.9572              3085.5417              3088.2305
 Red. masses --      1.0980                 1.1021                 1.1009
 Frc consts  --      6.1367                 6.1819                 6.1861
 IR Inten    --      4.6212                48.7642                11.3799

                    121                    122                    123
                      A                      A                      A
 Frequencies --   3088.8217              3096.6214              3102.5796
 Red. masses --      1.1019                 1.1009                 1.1051
 Frc consts  --      6.1941                 6.2200                 6.2677
 IR Inten    --     72.9911                41.1918                95.4065

 - Thermochemistry -
 -------------------
 Temperature   298.150 Kelvin.  Pressure   1.00000 Atm.
 Atom     1 has atomic number  6 and mass  12.00000

 Molecular mass:   208.21910 amu.
 Principal axes and moments of inertia in atomic units:
                           1         2         3
     Eigenvalues --  1195.28208********************
           X            1.00000  -0.00042   0.00071
           Y            0.00044   0.99975  -0.02238
           Z           -0.00070   0.02238   0.99975
 This molecule is an asymmetric top.
 Rotational symmetry number  1.
 Warning -- assumption of classical behavior for rotation
           may cause significant error
 Rotational temperatures (Kelvin)      0.07246     0.00821     0.00795
 Rotational constants (GHZ):           1.50989     0.17101     0.16559
 Zero-point vibrational energy    1058655.8 (Joules/Mol)
                                  253.02480 (Kcal/Mol)
 Warning -- explicit consideration of  21 degrees of freedom as
           vibrations may cause significant error
 Vibrational temperatures:     34.21    42.20    61.10    81.71    94.71
          (Kelvin)            125.29   170.26   194.43   215.13   266.88
                              302.43   343.51   363.57   398.23   457.59
                              517.52   538.41   605.84   654.67   722.98
                              808.25   897.03   911.70   952.21  1055.79
                             1084.06  1119.88  1158.58  1172.35  1204.53
                             1223.28  1262.11  1280.63  1287.75  1300.28
                             1312.03  1336.35  1361.27  1418.75  1422.84
                             1444.45  1459.02  1474.00  1480.29  1489.84
                             1503.99  1520.56  1531.19  1536.89  1552.91
                             1582.51  1603.18  1643.02  1680.50  1703.45
                             1719.51  1736.58  1758.56  1773.93  1785.17
                             1809.06  1810.99  1835.60  1855.56  1868.54
                             1878.09  1892.75  1896.30  1906.43  1911.79
                             1917.88  1926.26  1933.30  1939.59  1945.99
                             1955.07  1965.35  1986.87  1996.47  2012.88
                             2017.33  2029.62  2128.46  2130.13  2137.00
                             2139.98  2144.29  2146.83  2153.11  2155.10
                             2156.08  2159.89  2170.05  2173.80  2186.32
                             4302.68  4309.05  4319.73  4320.89  4332.57
                             4336.83  4341.45  4341.93  4347.64  4351.59
                             4354.77  4358.44  4360.82  4369.15  4375.77
                             4380.63  4383.81  4398.86  4407.60  4418.76
                             4424.39  4426.69  4431.37  4439.41  4443.27
                             4444.13  4455.35  4463.92

 Zero-point correction=                           0.403221 (Hartree/Particle)
 Thermal correction to Energy=                    0.419878
 Thermal correction to Enthalpy=                  0.420822
 Thermal correction to Gibbs Free Energy=         0.356581
 Sum of electronic and zero-point Energies=           -588.121999
 Sum of electronic and thermal Energies=              -588.105342
 Sum of electronic and thermal Enthalpies=            -588.104398
 Sum of electronic and thermal Free Energies=         -588.168639

                     E (Thermal)             CV                S
                      KCal/Mol        Cal/Mol-Kelvin    Cal/Mol-Kelvin
 Total                  263.477             63.491            135.207
 Electronic               0.000              0.000              0.000
 Translational            0.889              2.981             41.904
 Rotational               0.889              2.981             33.286
 Vibrational            261.700             57.529             60.017
 Vibration     1          0.593              1.985              6.291
 Vibration     2          0.593              1.984              5.874
 Vibration     3          0.595              1.980              5.141
 Vibration     4          0.596              1.975              4.566
 Vibration     5          0.597              1.971              4.274
 Vibration     6          0.601              1.958              3.725
 Vibration     7          0.608              1.934              3.127
 Vibration     8          0.613              1.918              2.872
 Vibration     9          0.618              1.903              2.678
 Vibration    10          0.632              1.860              2.272
 Vibration    11          0.642              1.825              2.042
 Vibration    12          0.657              1.781              1.812
 Vibration    13          0.664              1.758              1.712
 Vibration    14          0.678              1.716              1.553
 Vibration    15          0.704              1.639              1.320
 Vibration    16          0.734              1.555              1.123
 Vibration    17          0.745              1.525              1.062
 Vibration    18          0.784              1.424              0.888
 Vibration    19          0.813              1.350              0.781
 Vibration    20          0.858              1.244              0.652
 Vibration    21          0.917              1.114              0.520

                           ! Non-Optimized Parameters !
 Normal termination of Gaussian 16 at Thu May 25 03:05:51 2023.
