 Gaussian 16, Revision A.03,
 Gaussian 16:  ES64L-G16RevA.03 25-Dec-2016

 -----------------------------
 # opt freq b3lyp/6-31g(2df,p)
 -----------------------------

 -------------------
 Title Card Required
 -------------------
 Symbolic Z-matrix:
 Charge =  0 Multiplicity = 1

 SCF Done:  E(RB3LYP) =  -441.112812202     A.U. after   18 cycles
 SCF Done:  E(RB3LYP) =  -441.164316777     A.U. after   15 cycles
 SCF Done:  E(RB3LYP) =  -441.166775839     A.U. after   16 cycles
 SCF Done:  E(RB3LYP) =  -441.216589547     A.U. after   17 cycles
 SCF Done:  E(RB3LYP) =  -441.243397363     A.U. after   15 cycles
 SCF Done:  E(RB3LYP) =  -441.279418672     A.U. after   13 cycles
 SCF Done:  E(RB3LYP) =  -441.309712751     A.U. after   13 cycles
 SCF Done:  E(RB3LYP) =  -441.332857292     A.U. after   12 cycles
 SCF Done:  E(RB3LYP) =  -441.348414961     A.U. after   13 cycles
 SCF Done:  E(RB3LYP) =  -441.356308168     A.U. after   12 cycles
 SCF Done:  E(RB3LYP) =  -441.372386315     A.U. after    9 cycles
 SCF Done:  E(RB3LYP) =  -441.372396013     A.U. after    9 cycles
 SCF Done:  E(RB3LYP) =  -441.372400278     A.U. after    8 cycles
 SCF Done:  E(RB3LYP) =  -441.372401844     A.U. after    8 cycles
 SCF Done:  E(RB3LYP) =  -441.372402448     A.U. after    7 cycles
 SCF Done:  E(RB3LYP) =  -441.372402839     A.U. after    7 cycles
 SCF Done:  E(RB3LYP) =  -441.372403225     A.U. after    7 cycles
 SCF Done:  E(RB3LYP) =  -441.372403437     A.U. after    7 cycles
 SCF Done:  E(RB3LYP) =  -441.372403522     A.U. after    7 cycles
 Optimization completed.
    -- Stationary point found.
 Normal termination of Gaussian 16 at Sun May 28 02:33:05 2023.

 ----------------------------------------------------------------------
 #N Geom=AllCheck Guess=TCheck SCRF=Check GenChk RB3LYP/6-31G(2df,p) Fr
 eq
 ----------------------------------------------------------------------

 Structure from the checkpoint file:  "CC1C2dCCC2C1CqNrdO.chk"
 -------------------
 Title Card Required
 -------------------
 Charge =  0 Multiplicity = 1

                         Standard orientation:
 ---------------------------------------------------------------------
 Center     Atomic      Atomic             Coordinates (Angstroms)
 Number     Number       Type             X           Y           Z
 ---------------------------------------------------------------------
      1          6           0        0.266326    2.408892   -0.427974
      2          6           0       -0.312951    1.410076    0.560294
      3          6           0       -1.455153    0.492474    0.202045
      4          6           0       -2.006748   -0.222421   -0.800637
      5          6           0       -1.664375   -1.562664   -0.120598
      6          6           0       -1.000368   -0.690198    1.001819
      7          6           0        0.427981    0.025336    0.945325
      8          6           0        1.492839   -0.530049    0.007983
      9          7           0        1.180324   -0.605202   -1.319947
     10          8           0        2.574209   -0.888627    0.434755
     11          1           0       -0.438586    3.231310   -0.588965
     12          1           0        0.484838    1.953062   -1.396085
     13          1           0        1.196373    2.838902   -0.042367
     14          1           0       -0.510482    1.911695    1.514722
     15          1           0       -2.321844    0.016674   -1.810943
     16          1           0       -0.957792   -2.170692   -0.694192
     17          1           0       -2.484804   -2.206949    0.214895
     18          1           0       -1.328718   -0.858949    2.028176
     19          1           0        0.904840    0.065277    1.924465
     20          1           0        0.259648   -0.389586   -1.665415
     21          1           0        1.855287   -1.033993   -1.932263
 ---------------------------------------------------------------------

 SCF Done:  E(RB3LYP) =  -441.372403522     A.U. after    1 cycles

 The electronic state is 1-A.
 Alpha  occ. eigenvalues --  -19.09714 -14.34586 -10.27827 -10.21495 -10.20934
 Alpha  occ. eigenvalues --  -10.19821 -10.19758 -10.19430 -10.18738 -10.18361
 Alpha  occ. eigenvalues --   -1.02683  -0.90635  -0.88644  -0.78958  -0.72592
 Alpha  occ. eigenvalues --   -0.66790  -0.63827  -0.59816  -0.57463  -0.53797
 Alpha  occ. eigenvalues --   -0.50425  -0.48941  -0.46095  -0.44777  -0.43579
 Alpha  occ. eigenvalues --   -0.41572  -0.40301  -0.39925  -0.38859  -0.36800
 Alpha  occ. eigenvalues --   -0.34530  -0.32066  -0.31987  -0.29370  -0.26348
 Alpha  occ. eigenvalues --   -0.24987  -0.22494
 Alpha virt. eigenvalues --   -0.00425   0.02544   0.07766   0.09601   0.10199
 Alpha virt. eigenvalues --    0.11080   0.12822   0.14221   0.14884   0.15453
 Alpha virt. eigenvalues --    0.15828   0.16644   0.18834   0.18864   0.19721

 Mulliken charges:
               1
     1  C   -0.420228
     2  C   -0.064028
     3  C    0.201966
     4  C   -0.229261
     5  C   -0.284595
     6  C   -0.064316
     7  C   -0.146576
     8  C    0.378866
     9  N   -0.511162
    10  O   -0.363119
    11  H    0.123424
    12  H    0.120477
    13  H    0.129751
    14  H    0.098864
    15  H    0.092800
    16  H    0.118871
    17  H    0.108728
    18  H    0.085649
    19  H    0.107197
    20  H    0.258835
    21  H    0.257857
 Sum of Mulliken charges =   0.00000

 Dipole moment (field-independent basis, Debye):
    X=             -2.2637    Y=              0.9384    Z=             -1.5810  Tot=              2.9162
 Quadrupole moment (field-independent basis, Debye-Ang):
   XX=            -70.3325   YY=            -58.1084   ZZ=            -53.6068
   XY=              3.3443   XZ=             -3.8297   YZ=              3.0083

  Exact polarizability:  92.997   4.159  88.796   7.260   2.823  86.922
 Approx polarizability: 143.189   1.903 129.135  22.200   9.378 147.386

                      1                      2                      3
                      A                      A                      A
 Frequencies --     45.1139               128.4301               171.2193
 Red. masses --      8.2107                 3.1666                 3.0525
 Frc consts  --      0.0098                 0.0308                 0.0527
 IR Inten    --      0.3271                 2.0675                 3.8635

                      4                      5                      6
                      A                      A                      A
 Frequencies --    191.4425               213.2678               250.6810
 Red. masses --      1.6523                 1.9113                 2.3935
 Frc consts  --      0.0357                 0.0512                 0.0886
 IR Inten    --      3.3959                 2.6539                10.4216

                      7                      8                      9
                      A                      A                      A
 Frequencies --    291.1879               303.5720               415.2420
 Red. masses --      3.0209                 1.1875                 2.4465
 Frc consts  --      0.1509                 0.0645                 0.2485
 IR Inten    --     26.4590               130.4166                11.8256

                     10                     11                     12
                      A                      A                      A
 Frequencies --    443.2781               479.6922               561.7864
 Red. masses --      4.9673                 2.9181                 2.9806
 Frc consts  --      0.5751                 0.3956                 0.5542
 IR Inten    --      3.7908                 2.2172                 6.7169

                     13                     14                     15
                      A                      A                      A
 Frequencies --    599.8873               655.8428               673.3448
 Red. masses --      1.3157                 2.6756                 2.6877
 Frc consts  --      0.2790                 0.6781                 0.7180
 IR Inten    --      0.0172                 1.0784                 4.2946

                     16                     17                     18
                      A                      A                      A
 Frequencies --    707.6243               771.5282               822.3821
 Red. masses --      2.8051                 1.9134                 3.7482
 Frc consts  --      0.8276                 0.6710                 1.4935
 IR Inten    --      0.7904                30.0369                 0.3906

                     19                     20                     21
                      A                      A                      A
 Frequencies --    830.6921               883.0065               888.2665
 Red. masses --      2.3635                 2.2509                 2.5178
 Frc consts  --      0.9609                 1.0341                 1.1705
 IR Inten    --     13.9399                 6.8363                 2.8848

                     22                     23                     24
                      A                      A                      A
 Frequencies --    921.3895               983.6177              1004.2329
 Red. masses --      2.4564                 1.9965                 1.9915
 Frc consts  --      1.2287                 1.1381                 1.1833
 IR Inten    --      2.4413                 2.6183                 1.6268

                     25                     26                     27
                      A                      A                      A
 Frequencies --   1039.9766              1059.0718              1076.8821
 Red. masses --      1.5706                 1.9262                 1.5760
 Frc consts  --      1.0009                 1.2729                 1.0768
 IR Inten    --      3.0144                 4.1003                15.2403

                     28                     29                     30
                      A                      A                      A
 Frequencies --   1080.2697              1113.3337              1137.6867
 Red. masses --      1.4747                 1.6484                 1.5794
 Frc consts  --      1.0140                 1.2038                 1.2044
 IR Inten    --      0.3769                 3.2517                 4.7315

                     31                     32                     33
                      A                      A                      A
 Frequencies --   1170.5171              1190.6150              1212.5564
 Red. masses --      2.1540                 1.6587                 1.5363
 Frc consts  --      1.7388                 1.3853                 1.3309
 IR Inten    --      0.1362                 6.3484                 9.0445

                     34                     35                     36
                      A                      A                      A
 Frequencies --   1227.0608              1269.7337              1279.8323
 Red. masses --      1.3673                 1.5187                 1.6607
 Frc consts  --      1.2129                 1.4426                 1.6027
 IR Inten    --      0.1680                 3.6798                11.4729

                     37                     38                     39
                      A                      A                      A
 Frequencies --   1318.0221              1351.7743              1383.5537
 Red. masses --      1.3862                 2.1416                 1.9504
 Frc consts  --      1.4188                 2.3057                 2.1997
 IR Inten    --      7.4545                35.2887                29.9926

                     40                     41                     42
                      A                      A                      A
 Frequencies --   1413.2708              1467.2883              1494.0246
 Red. masses --      1.2540                 1.1062                 1.0496
 Frc consts  --      1.4757                 1.4032                 1.3804
 IR Inten    --      2.9628                 0.4898                 3.7912

                     43                     44                     45
                      A                      A                      A
 Frequencies --   1495.7607              1607.2983              1644.1427
 Red. masses --      1.0468                 1.2913                 6.4571
 Frc consts  --      1.3798                 1.9655                10.2842
 IR Inten    --      3.4431               100.2561                10.7529

                     46                     47                     48
                      A                      A                      A
 Frequencies --   1787.3138              3034.4059              3034.9137
 Red. masses --      9.1605                 1.0620                 1.0750
 Frc consts  --     17.2413                 5.7615                 5.8339
 IR Inten    --    308.7768                54.8338                19.0592

                     49                     50                     51
                      A                      A                      A
 Frequencies --   3041.1596              3087.1234              3096.4639
 Red. masses --      1.0424                 1.1004                 1.0896
 Frc consts  --      5.6802                 6.1788                 6.1554
 IR Inten    --     22.1178                 6.6146                29.3765

                     52                     53                     54
                      A                      A                      A
 Frequencies --   3102.0083              3115.3460              3128.0330
 Red. masses --      1.1009                 1.0874                 1.0994
 Frc consts  --      6.2414                 6.2182                 6.3378
 IR Inten    --     15.2436                21.0238                20.9498

                     55                     56                     57
                      A                      A                      A
 Frequencies --   3178.4402              3574.4004              3716.9719
 Red. masses --      1.0963                 1.0448                 1.1052
 Frc consts  --      6.5256                 7.8645                 8.9968
 IR Inten    --     15.5034                14.7487                65.6023

 - Thermochemistry -
 -------------------
 Temperature   298.150 Kelvin.  Pressure   1.00000 Atm.
 Atom     1 has atomic number  6 and mass  12.00000

 Molecular mass:   137.08406 amu.
 Principal axes and moments of inertia in atomic units:
                           1         2         3
     Eigenvalues --   991.169961372.287461739.56618
           X            0.99677   0.07989  -0.00857
           Y           -0.07989   0.99680   0.00039
           Z            0.00858   0.00029   0.99996
 This molecule is an asymmetric top.
 Rotational symmetry number  1.
 Warning -- assumption of classical behavior for rotation
           may cause significant error
 Rotational temperatures (Kelvin)      0.08739     0.06312     0.04979
 Rotational constants (GHZ):           1.82082     1.31513     1.03747
 Zero-point vibrational energy     461555.1 (Joules/Mol)
                                  110.31431 (Kcal/Mol)
 Warning -- explicit consideration of  13 degrees of freedom as
           vibrations may cause significant error
 Vibrational temperatures:     64.91   184.78   246.35   275.44   306.84
          (Kelvin)            360.67   418.95   436.77   597.44   637.78
                              690.17   808.29   863.10   943.61   968.79
                             1018.11  1110.06  1183.22  1195.18  1270.45
                             1278.02  1325.67  1415.21  1444.87  1496.29
                             1523.77  1549.39  1554.27  1601.84  1636.88
                             1684.11  1713.03  1744.60  1765.47  1826.86
                             1841.39  1896.34  1944.90  1990.63  2033.38
                             2111.10  2149.57  2152.07  2312.54  2365.55
                             2571.55  4365.83  4366.56  4375.55  4441.68
                             4455.12  4463.10  4482.29  4500.54  4573.07
                             5142.76  5347.89

 Zero-point correction=                           0.175797 (Hartree/Particle)
 Thermal correction to Energy=                    0.185500
 Thermal correction to Enthalpy=                  0.186444
 Thermal correction to Gibbs Free Energy=         0.141054
 Sum of electronic and zero-point Energies=           -441.196606
 Sum of electronic and thermal Energies=              -441.186903
 Sum of electronic and thermal Enthalpies=            -441.185959
 Sum of electronic and thermal Free Energies=         -441.231350

                     E (Thermal)             CV                S
                      KCal/Mol        Cal/Mol-Kelvin    Cal/Mol-Kelvin
 Total                  116.403             37.343             95.532
 Electronic               0.000              0.000              0.000
 Translational            0.889              2.981             40.658
 Rotational               0.889              2.981             29.249
 Vibrational            114.626             31.381             25.625
 Vibration     1          0.595              1.979              5.021
 Vibration     2          0.611              1.925              2.969
 Vibration     3          0.626              1.878              2.422
 Vibration     4          0.634              1.852              2.214
 Vibration     5          0.644              1.821              2.016
 Vibration     6          0.663              1.762              1.726
 Vibration     7          0.687              1.690              1.467
 Vibration     8          0.695              1.667              1.397
 Vibration     9          0.779              1.437              0.908
 Vibration    10          0.803              1.376              0.816
 Vibration    11          0.836              1.295              0.711
 Vibration    12          0.917              1.114              0.520
 Vibration    13          0.958              1.032              0.450

 Optimization completed.
    -- Stationary point found.
 Normal termination of Gaussian 16 at Sun May 28 03:12:48 2023.
