 Gaussian 16, Revision A.03,
 Gaussian 16:  ES64L-G16RevA.03 25-Dec-2016

 -----------------------------
 # opt freq b3lyp/6-31g(2df,p)
 -----------------------------

 -------------------
 Title Card Required
 -------------------
 Symbolic Z-matrix:
 Charge =  0 Multiplicity = 1

 SCF Done:  E(RB3LYP) =  -586.261911241     A.U. after   12 cycles
 SCF Done:  E(RB3LYP) =  -586.272837825     A.U. after   11 cycles
 SCF Done:  E(RB3LYP) =  -586.279429398     A.U. after   10 cycles
 SCF Done:  E(RB3LYP) =  -586.283182156     A.U. after   10 cycles
 SCF Done:  E(RB3LYP) =  -586.284862738     A.U. after   10 cycles
 SCF Done:  E(RB3LYP) =  -586.285720887     A.U. after   10 cycles
 SCF Done:  E(RB3LYP) =  -586.286290706     A.U. after   10 cycles
 SCF Done:  E(RB3LYP) =  -586.286833382     A.U. after   10 cycles
 SCF Done:  E(RB3LYP) =  -586.287130761     A.U. after   10 cycles
 SCF Done:  E(RB3LYP) =  -586.287192003     A.U. after    9 cycles
 SCF Done:  E(RB3LYP) =  -586.287215960     A.U. after    9 cycles
 SCF Done:  E(RB3LYP) =  -586.287218218     A.U. after    8 cycles
 SCF Done:  E(RB3LYP) =  -586.287228469     A.U. after    8 cycles
 SCF Done:  E(RB3LYP) =  -586.287229283     A.U. after    6 cycles
 SCF Done:  E(RB3LYP) =  -586.287229216     A.U. after    6 cycles
 SCF Done:  E(RB3LYP) =  -586.287229513     A.U. after    6 cycles
 SCF Done:  E(RB3LYP) =  -586.287229572     A.U. after    5 cycles
 Optimization completed.
    -- Stationary point found.
 Normal termination of Gaussian 16 at Tue May 23 04:06:21 2023.

 ----------------------------------------------------------------------
 #N Geom=AllCheck Guess=TCheck SCRF=Check GenChk RB3LYP/6-31G(2df,p) Fr
 eq
 ----------------------------------------------------------------------

 Structure from the checkpoint file:  "CC1CCCCCCCqCrqOrCC1C.chk"
 -------------------
 Title Card Required
 -------------------
 Charge =  0 Multiplicity = 1

                         Standard orientation:
 ---------------------------------------------------------------------
 Center     Atomic      Atomic             Coordinates (Angstroms)
 Number     Number       Type             X           Y           Z
 ---------------------------------------------------------------------
      1          6           0       -1.159866   -1.221393    1.902158
      2          6           0       -1.073890   -1.672388    0.438307
      3          6           0       -2.134405   -1.002639   -0.523953
      4          6           0       -3.039052    0.166815   -0.036125
      5          6           0       -2.691553    1.607866   -0.463323
      6          6           0       -1.416416    2.192208    0.158445
      7          6           0       -0.145388    1.607101   -0.473342
      8          6           0        1.090636    1.591158    0.428663
      9          6           0        2.066283    0.441659    0.100474
     10          6           0        3.408381    0.714035    0.805826
     11          8           0        2.296484    0.360214   -1.313147
     12          6           0        1.584822   -0.962001    0.559487
     13          6           0        0.426824   -1.824762   -0.049806
     14          6           0        0.548980   -2.026558   -1.567678
     15          1           0       -2.169374   -1.359395    2.301490
     16          1           0       -0.892115   -0.169661    2.040946
     17          1           0       -0.485992   -1.819400    2.525387
     18          1           0       -1.396382   -2.720408    0.456921
     19          1           0       -2.818321   -1.811020   -0.802773
     20          1           0       -1.665983   -0.715417   -1.468426
     21          1           0       -3.143393    0.142956    1.053989
     22          1           0       -4.045935   -0.032886   -0.421602
     23          1           0       -3.544931    2.242419   -0.192429
     24          1           0       -2.617777    1.655251   -1.559158
     25          1           0       -1.427382    1.990022    1.237965
     26          1           0       -1.418869    3.285150    0.061984
     27          1           0        0.077094    2.137200   -1.406306
     28          1           0       -0.344322    0.584075   -0.777876
     29          1           0        0.793651    1.495190    1.480526
     30          1           0        1.627806    2.547415    0.361556
     31          1           0        3.821166    1.676798    0.481232
     32          1           0        4.135820   -0.066565    0.565944
     33          1           0        3.290198    0.757649    1.893595
     34          1           0        2.702378    1.188336   -1.591640
     35          1           0        1.431773   -0.896257    1.642000
     36          1           0        2.469162   -1.598895    0.433328
     37          1           0        0.685326   -2.801384    0.383575
     38          1           0        0.376717   -1.109308   -2.132761
     39          1           0       -0.161707   -2.786305   -1.912135
     40          1           0        1.557382   -2.363871   -1.824954
 ---------------------------------------------------------------------

 SCF Done:  E(RB3LYP) =  -586.287229572     A.U. after    1 cycles

 The electronic state is 1-A.
 Alpha  occ. eigenvalues --  -19.12746 -10.23129 -10.18117 -10.18102 -10.17155
 Alpha  occ. eigenvalues --  -10.17067 -10.17029 -10.17000 -10.16993 -10.16914
 Alpha  occ. eigenvalues --  -10.16911 -10.16727 -10.16434 -10.15580  -1.01019
 Alpha  occ. eigenvalues --   -0.81417  -0.78917  -0.78307  -0.73542  -0.72775
 Alpha  occ. eigenvalues --   -0.69387  -0.67269  -0.64593  -0.61176  -0.59809
 Alpha  occ. eigenvalues --   -0.56671  -0.54802  -0.51377  -0.48399  -0.47387
 Alpha  occ. eigenvalues --   -0.45119  -0.44472  -0.43770  -0.42808  -0.42531
 Alpha  occ. eigenvalues --   -0.40940  -0.40479  -0.39329  -0.38792  -0.38415
 Alpha  occ. eigenvalues --   -0.37119  -0.36345  -0.35940  -0.35326  -0.35002
 Alpha  occ. eigenvalues --   -0.34191  -0.33542  -0.32698  -0.31622  -0.31314
 Alpha  occ. eigenvalues --   -0.30637  -0.29963  -0.29803  -0.28077  -0.27428
 Alpha  occ. eigenvalues --   -0.25621
 Alpha virt. eigenvalues --    0.05844   0.07853   0.09449   0.10075   0.11431
 Alpha virt. eigenvalues --    0.11966   0.12521   0.13078   0.13686   0.14974
 Alpha virt. eigenvalues --    0.15055   0.15681   0.16212   0.16792   0.17333

 Mulliken charges:
               1
     1  C   -0.420572
     2  C    0.036139
     3  C   -0.218525
     4  C   -0.185372
     5  C   -0.193271
     6  C   -0.195282
     7  C   -0.164014
     8  C   -0.235708
     9  C    0.312133
    10  C   -0.416551
    11  O   -0.451308
    12  C   -0.197198
    13  C   -0.005320
    14  C   -0.392356
    15  H    0.111845
    16  H    0.123884
    17  H    0.108155
    18  H    0.078479
    19  H    0.087274
    20  H    0.103126
    21  H    0.092820
    22  H    0.089458
    23  H    0.084919
    24  H    0.088952
    25  H    0.088448
    26  H    0.085345
    27  H    0.084975
    28  H    0.126566
    29  H    0.093537
    30  H    0.077390
    31  H    0.097657
    32  H    0.117688
    33  H    0.113864
    34  H    0.272397
    35  H    0.091436
    36  H    0.097133
    37  H    0.074758
    38  H    0.133897
    39  H    0.094828
    40  H    0.108373
 Sum of Mulliken charges =   0.00000

 Dipole moment (field-independent basis, Debye):
    X=              0.3487    Y=              0.7659    Z=              0.6325  Tot=              1.0528
 Quadrupole moment (field-independent basis, Debye-Ang):
   XX=            -89.4647   YY=            -88.7238   ZZ=            -92.0151
   XY=              3.5061   XZ=              0.4660   YZ=             -2.5751

  Exact polarizability: 157.248   0.814 142.203   1.686  -0.384 126.484
 Approx polarizability: 202.293   2.156 201.915  -0.865  -1.146 199.453

                      1                      2                      3
                      A                      A                      A
 Frequencies --     51.8464                78.5172                96.6937
 Red. masses --      2.7698                 2.7933                 2.8792
 Frc consts  --      0.0044                 0.0101                 0.0159
 IR Inten    --      0.2061                 0.1378                 0.0337

                      4                      5                      6
                      A                      A                      A
 Frequencies --    134.6278               166.8793               185.9083
 Red. masses --      2.6123                 2.2881                 3.3154
 Frc consts  --      0.0279                 0.0375                 0.0675
 IR Inten    --      0.7200                 0.9041                 0.9617

                      7                      8                      9
                      A                      A                      A
 Frequencies --    209.1870               234.7202               245.6258
 Red. masses --      1.9260                 1.7562                 1.7456
 Frc consts  --      0.0497                 0.0570                 0.0621
 IR Inten    --      0.9747                 0.2937                 0.2048

                     10                     11                     12
                      A                      A                      A
 Frequencies --    255.6565               276.9629               284.9880
 Red. masses --      1.7198                 2.0148                 1.2589
 Frc consts  --      0.0662                 0.0911                 0.0602
 IR Inten    --      0.5907                 0.2900                42.5220

                     13                     14                     15
                      A                      A                      A
 Frequencies --    290.7679               293.2939               307.8025
 Red. masses --      2.1571                 1.2683                 2.3400
 Frc consts  --      0.1074                 0.0643                 0.1306
 IR Inten    --      6.0679                 9.5296                35.9687

                     16                     17                     18
                      A                      A                      A
 Frequencies --    318.8824               335.6295               365.9342
 Red. masses --      2.0792                 1.2712                 2.0579
 Frc consts  --      0.1246                 0.0844                 0.1624
 IR Inten    --      1.3796                 1.0341                11.1135

                     19                     20                     21
                      A                      A                      A
 Frequencies --    389.5466               396.9633               417.9361
 Red. masses --      2.0822                 2.2803                 2.5896
 Frc consts  --      0.1862                 0.2117                 0.2665
 IR Inten    --      0.2875                 0.5490                 1.1084

                     22                     23                     24
                      A                      A                      A
 Frequencies --    453.2438               480.2567               499.0122
 Red. masses --      2.5090                 2.1855                 2.1879
 Frc consts  --      0.3037                 0.2970                 0.3210
 IR Inten    --      0.6588                 1.3489                 6.0509

                     25                     26                     27
                      A                      A                      A
 Frequencies --    540.9878               613.6056               655.7088
 Red. masses --      3.2976                 2.5483                 2.5437
 Frc consts  --      0.5686                 0.5653                 0.6444
 IR Inten    --      6.3615                 0.8331                 0.8916

                     28                     29                     30
                      A                      A                      A
 Frequencies --    719.7617               736.6829               807.8796
 Red. masses --      1.4254                 2.7374                 2.3512
 Frc consts  --      0.4351                 0.8753                 0.9041
 IR Inten    --      6.2143                 0.6225                 2.6383

                     31                     32                     33
                      A                      A                      A
 Frequencies --    831.2033               839.7369               847.1423
 Red. masses --      1.7264                 1.9358                 1.8998
 Frc consts  --      0.7028                 0.8043                 0.8033
 IR Inten    --      2.0373                 1.6618                 2.5503

                     34                     35                     36
                      A                      A                      A
 Frequencies --    869.6291               905.6724               914.7368
 Red. masses --      2.1183                 1.8700                 1.8452
 Frc consts  --      0.9438                 0.9037                 0.9097
 IR Inten    --      3.6315                 2.4220                 4.4471

                     37                     38                     39
                      A                      A                      A
 Frequencies --    942.0289               956.5315               970.2103
 Red. masses --      1.8647                 1.8459                 2.1349
 Frc consts  --      0.9750                 0.9951                 1.1840
 IR Inten    --      0.1545                 3.2979                 0.7534

                     40                     41                     42
                      A                      A                      A
 Frequencies --    981.5797              1007.1840              1039.7949
 Red. masses --      1.5750                 1.5019                 1.9451
 Frc consts  --      0.8941                 0.8977                 1.2390
 IR Inten    --      3.9231                 0.2810                 4.9995

                     43                     44                     45
                      A                      A                      A
 Frequencies --   1051.4117              1056.6549              1074.7993
 Red. masses --      1.8847                 2.0857                 2.3929
 Frc consts  --      1.2276                 1.3720                 1.6286
 IR Inten    --      3.4794                 6.5151                 0.1627

                     46                     47                     48
                      A                      A                      A
 Frequencies --   1084.6367              1089.3367              1102.7886
 Red. masses --      1.7957                 2.1127                 2.1868
 Frc consts  --      1.2447                 1.4771                 1.5669
 IR Inten    --     19.1654                 1.4465                 4.0209

                     49                     50                     51
                      A                      A                      A
 Frequencies --   1117.7006              1123.6632              1159.8794
 Red. masses --      2.2545                 2.1049                 1.9559
 Frc consts  --      1.6594                 1.5659                 1.5503
 IR Inten    --      4.6375                 9.0570                10.6941

                     52                     53                     54
                      A                      A                      A
 Frequencies --   1179.2300              1185.5258              1208.9108
 Red. masses --      1.5796                 2.1428                 1.9620
 Frc consts  --      1.2942                 1.7744                 1.6894
 IR Inten    --     26.7930                10.7572                14.4275

                     55                     56                     57
                      A                      A                      A
 Frequencies --   1230.6511              1264.7503              1283.3179
 Red. masses --      1.6067                 1.2589                 1.2281
 Frc consts  --      1.4337                 1.1864                 1.1917
 IR Inten    --     14.5460                 7.3925                 1.5144

                     58                     59                     60
                      A                      A                      A
 Frequencies --   1311.9728              1315.0451              1320.3849
 Red. masses --      1.2277                 1.2087                 1.2978
 Frc consts  --      1.2450                 1.2315                 1.3331
 IR Inten    --      0.0966                 3.8177                 3.6126

                     61                     62                     63
                      A                      A                      A
 Frequencies --   1335.3603              1351.9904              1365.1021
 Red. masses --      1.1530                 1.2494                 1.4433
 Frc consts  --      1.2113                 1.3455                 1.5847
 IR Inten    --      5.8832                 1.2065                12.2454

                     64                     65                     66
                      A                      A                      A
 Frequencies --   1366.8125              1377.9468              1381.7850
 Red. masses --      1.2669                 1.3058                 1.3673
 Frc consts  --      1.3944                 1.4608                 1.5381
 IR Inten    --      1.2302                 2.9406                 7.7748

                     67                     68                     69
                      A                      A                      A
 Frequencies --   1385.1735              1389.6855              1397.4287
 Red. masses --      1.2870                 1.2823                 1.3346
 Frc consts  --      1.4549                 1.4590                 1.5356
 IR Inten    --      8.4776                 2.4142                 7.6969

                     70                     71                     72
                      A                      A                      A
 Frequencies --   1400.8031              1405.6941              1409.1531
 Red. masses --      1.2903                 1.2139                 1.3504
 Frc consts  --      1.4917                 1.4132                 1.5799
 IR Inten    --      6.2301                 6.8617                 1.6358

                     73                     74                     75
                      A                      A                      A
 Frequencies --   1410.7271              1418.7959              1437.8073
 Red. masses --      1.2347                 1.2280                 1.2573
 Frc consts  --      1.4478                 1.4564                 1.5314
 IR Inten    --      3.0467                 6.7118                 4.8645

                     76                     77                     78
                      A                      A                      A
 Frequencies --   1460.3154              1480.9977              1484.8879
 Red. masses --      1.0923                 1.0722                 1.0835
 Frc consts  --      1.3724                 1.3856                 1.4076
 IR Inten    --      4.7157                 1.9039                 0.3568

                     79                     80                     81
                      A                      A                      A
 Frequencies --   1486.9166              1488.2852              1490.7810
 Red. masses --      1.0737                 1.0789                 1.0578
 Frc consts  --      1.3987                 1.4080                 1.3851
 IR Inten    --      2.3535                 5.4880                 1.9610

                     82                     83                     84
                      A                      A                      A
 Frequencies --   1493.6444              1495.2037              1500.5142
 Red. masses --      1.0569                 1.0731                 1.0601
 Frc consts  --      1.3893                 1.4135                 1.4064
 IR Inten    --      1.8354                 4.7984                 4.3907

                     85                     86                     87
                      A                      A                      A
 Frequencies --   1504.4052              1507.9908              1509.7091
 Red. masses --      1.0663                 1.0751                 1.0622
 Frc consts  --      1.4219                 1.4404                 1.4265
 IR Inten    --      4.2564                 1.4818                 7.6455

                     88                     89                     90
                      A                      A                      A
 Frequencies --   1511.2205              2969.5611              3001.4100
 Red. masses --      1.0680                 1.0834                 1.0794
 Frc consts  --      1.4370                 5.6287                 5.7288
 IR Inten    --      3.6280                 7.9996                21.0275

                     91                     92                     93
                      A                      A                      A
 Frequencies --   3003.8217              3004.2570              3011.2821
 Red. masses --      1.0660                 1.0631                 1.0632
 Frc consts  --      5.6673                 5.6532                 5.6802
 IR Inten    --     15.1494                17.6531                28.6643

                     94                     95                     96
                      A                      A                      A
 Frequencies --   3022.1109              3023.8744              3027.6948
 Red. masses --      1.0522                 1.0649                 1.0558
 Frc consts  --      5.6621                 5.7369                 5.7026
 IR Inten    --     15.0638                10.3539                56.6864

                     97                     98                     99
                      A                      A                      A
 Frequencies --   3032.4979              3034.4729              3035.5155
 Red. masses --      1.0422                 1.0810                 1.0445
 Frc consts  --      5.6467                 5.8644                 5.6706
 IR Inten    --     27.2418                 8.1587                13.2906

                    100                    101                    102
                      A                      A                      A
 Frequencies --   3042.0268              3043.7676              3051.0474
 Red. masses --      1.0901                 1.0958                 1.0752
 Frc consts  --      5.9436                 5.9814                 5.8972
 IR Inten    --     49.4890                30.1292                61.4164

                    103                    104                    105
                      A                      A                      A
 Frequencies --   3059.2324              3070.4360              3072.7046
 Red. masses --      1.0888                 1.0972                 1.0948
 Frc consts  --      6.0040                 6.0945                 6.0904
 IR Inten    --     67.7417                22.3604                53.3279

                    106                    107                    108
                      A                      A                      A
 Frequencies --   3089.3030              3090.4339              3093.6540
 Red. masses --      1.0926                 1.0968                 1.0981
 Frc consts  --      6.1439                 6.1716                 6.1922
 IR Inten    --      6.6906                65.3388                34.8604

                    109                    110                    111
                      A                      A                      A
 Frequencies --   3099.5720              3108.4199              3113.5950
 Red. masses --      1.0992                 1.1003                 1.1017
 Frc consts  --      6.2220                 6.2637                 6.2929
 IR Inten    --     29.0092                37.7380                28.5207

                    112                    113                    114
                      A                      A                      A
 Frequencies --   3133.0535              3185.2209              3799.3480
 Red. masses --      1.0970                 1.0825                 1.0660
 Frc consts  --      6.3442                 6.4706                 9.0661
 IR Inten    --     27.5578                 8.6760                 9.2390

 - Thermochemistry -
 -------------------
 Temperature   298.150 Kelvin.  Pressure   1.00000 Atm.
 Atom     1 has atomic number  6 and mass  12.00000

 Molecular mass:   198.19837 amu.
 Principal axes and moments of inertia in atomic units:
                           1         2         3
     Eigenvalues --  2088.238303362.939774193.09785
           X            0.99995   0.00079   0.00952
           Y           -0.00086   0.99997   0.00751
           Z           -0.00951  -0.00752   0.99993
 This molecule is an asymmetric top.
 Rotational symmetry number  1.
 Warning -- assumption of classical behavior for rotation
           may cause significant error
 Rotational temperatures (Kelvin)      0.04148     0.02576     0.02066
 Rotational constants (GHZ):           0.86424     0.53666     0.43041
 Zero-point vibrational energy     978420.1 (Joules/Mol)
                                  233.84802 (Kcal/Mol)
 Warning -- explicit consideration of  26 degrees of freedom as
           vibrations may cause significant error
 Vibrational temperatures:     74.60   112.97   139.12   193.70   240.10
          (Kelvin)            267.48   300.97   337.71   353.40   367.83
                              398.49   410.03   418.35   421.98   442.86
                              458.80   482.90   526.50   560.47   571.14
                              601.32   652.12   690.98   717.97   778.36
                              882.84   943.42  1035.58  1059.92  1162.36
                             1195.92  1208.19  1218.85  1251.20  1303.06
                             1316.10  1355.37  1376.24  1395.92  1412.27
                             1449.11  1496.03  1512.75  1520.29  1546.40
                             1560.55  1567.31  1586.67  1608.12  1616.70
                             1668.81  1696.65  1705.71  1739.35  1770.63
                             1819.69  1846.41  1887.64  1892.06  1899.74
                             1921.29  1945.21  1964.08  1966.54  1982.56
                             1988.08  1992.96  1999.45  2010.59  2015.44
                             2022.48  2027.46  2029.72  2041.33  2068.68
                             2101.07  2130.83  2136.42  2139.34  2141.31
                             2144.90  2149.02  2151.26  2158.91  2164.50
                             2169.66  2172.13  2174.31  4272.54  4318.36
                             4321.83  4322.46  4332.56  4348.14  4350.68
                             4356.18  4363.09  4365.93  4367.43  4376.80
                             4379.30  4389.78  4401.55  4417.67  4420.94
                             4444.82  4446.45  4451.08  4459.59  4472.32
                             4479.77  4507.77  4582.82  5466.41

 Zero-point correction=                           0.372661 (Hartree/Particle)
 Thermal correction to Energy=                    0.388566
 Thermal correction to Enthalpy=                  0.389510
 Thermal correction to Gibbs Free Energy=         0.331692
 Sum of electronic and zero-point Energies=           -585.914569
 Sum of electronic and thermal Energies=              -585.898664
 Sum of electronic and thermal Enthalpies=            -585.897720
 Sum of electronic and thermal Free Energies=         -585.955537

                     E (Thermal)             CV                S
                      KCal/Mol        Cal/Mol-Kelvin    Cal/Mol-Kelvin
 Total                  243.829             63.907            121.688
 Electronic               0.000              0.000              0.000
 Translational            0.889              2.981             41.757
 Rotational               0.889              2.981             31.755
 Vibrational            242.051             57.946             48.176
 Vibration     1          0.596              1.977              4.746
 Vibration     2          0.600              1.964              3.928
 Vibration     3          0.603              1.952              3.520
 Vibration     4          0.613              1.919              2.879
 Vibration     5          0.624              1.883              2.470
 Vibration     6          0.632              1.859              2.268
 Vibration     7          0.642              1.827              2.051
 Vibration     8          0.655              1.788              1.843
 Vibration     9          0.660              1.770              1.762
 Vibration    10          0.666              1.753              1.691
 Vibration    11          0.678              1.716              1.552
 Vibration    12          0.683              1.702              1.504
 Vibration    13          0.687              1.691              1.469
 Vibration    14          0.688              1.686              1.455
 Vibration    15          0.698              1.659              1.374
 Vibration    16          0.705              1.637              1.316
 Vibration    17          0.717              1.604              1.233
 Vibration    18          0.739              1.542              1.097
 Vibration    19          0.757              1.493              1.002
 Vibration    20          0.763              1.477              0.974
 Vibration    21          0.781              1.431              0.899
 Vibration    22          0.812              1.354              0.786
 Vibration    23          0.837              1.294              0.709
 Vibration    24          0.854              1.252              0.661
 Vibration    25          0.896              1.159              0.563
 Vibration    26          0.973              1.003              0.427

                           ! Non-Optimized Parameters !
 Normal termination of Gaussian 16 at Tue May 23 07:56:57 2023.
