 Gaussian 16, Revision A.03,
 Gaussian 16:  ES64L-G16RevA.03 25-Dec-2016

 -----------------------------
 # opt freq b3lyp/6-31g(2df,p)
 -----------------------------

 -------------------
 Title Card Required
 -------------------
 Symbolic Z-matrix:
 Charge =  0 Multiplicity = 1

 SCF Done:  E(RB3LYP) =  -533.598493235     A.U. after   12 cycles
 SCF Done:  E(RB3LYP) =  -533.601760492     A.U. after   10 cycles
 SCF Done:  E(RB3LYP) =  -533.603869232     A.U. after   10 cycles
 SCF Done:  E(RB3LYP) =  -533.604879784     A.U. after   10 cycles
 SCF Done:  E(RB3LYP) =  -533.605605363     A.U. after   10 cycles
 SCF Done:  E(RB3LYP) =  -533.605740516     A.U. after    9 cycles
 SCF Done:  E(RB3LYP) =  -533.605835997     A.U. after   10 cycles
 SCF Done:  E(RB3LYP) =  -533.605862527     A.U. after    9 cycles
 SCF Done:  E(RB3LYP) =  -533.605891875     A.U. after    9 cycles
 SCF Done:  E(RB3LYP) =  -533.606082925     A.U. after   10 cycles
 SCF Done:  E(RB3LYP) =  -533.606883551     A.U. after   10 cycles
 SCF Done:  E(RB3LYP) =  -533.607156944     A.U. after   10 cycles
 SCF Done:  E(RB3LYP) =  -533.607241834     A.U. after   10 cycles
 SCF Done:  E(RB3LYP) =  -533.607264694     A.U. after    9 cycles
 SCF Done:  E(RB3LYP) =  -533.607268076     A.U. after    8 cycles
 SCF Done:  E(RB3LYP) =  -533.607268843     A.U. after    7 cycles
 SCF Done:  E(RB3LYP) =  -533.607268991     A.U. after    6 cycles
 Optimization completed.
    -- Stationary point found.
 Normal termination of Gaussian 16 at Sat May 27 23:57:11 2023.

 ----------------------------------------------------------------------
 #N Geom=AllCheck Guess=TCheck SCRF=Check GenChk RB3LYP/6-31G(2df,p) Fr
 eq
 ----------------------------------------------------------------------

 Structure from the checkpoint file:  "CC1CCqCqFrqFrFrC1.chk"
 -------------------
 Title Card Required
 -------------------
 Charge =  0 Multiplicity = 1

                         Standard orientation:
 ---------------------------------------------------------------------
 Center     Atomic      Atomic             Coordinates (Angstroms)
 Number     Number       Type             X           Y           Z
 ---------------------------------------------------------------------
      1          6           0       -3.182249   -0.000029   -0.573802
      2          6           0       -2.048800   -0.000002    0.438574
      3          6           0       -0.939565    1.086195    0.326101
      4          6           0        0.105229    0.000061    0.695163
      5          6           0        1.411401    0.000001   -0.055728
      6          9           0        1.226380    0.000223   -1.388919
      7          9           0        2.150200    1.083278    0.240493
      8          9           0        2.149881   -1.083561    0.240159
      9          6           0       -0.939508   -1.086150    0.326151
     10          1           0       -3.818308    0.884590   -0.457912
     11          1           0       -3.818506   -0.884475   -0.457669
     12          1           0       -2.793525   -0.000211   -1.598376
     13          1           0       -2.457583    0.000011    1.455376
     14          1           0       -1.005532    1.961915    0.974257
     15          1           0       -0.810101    1.418031   -0.708149
     16          1           0        0.341784    0.000090    1.761855
     17          1           0       -1.005410   -1.961844    0.974346
     18          1           0       -0.810025   -1.418029   -0.708085
 ---------------------------------------------------------------------

 SCF Done:  E(RB3LYP) =  -533.607268991     A.U. after    1 cycles

 The electronic state is 1-A.
 Alpha  occ. eigenvalues --  -24.71191 -24.70946 -24.70945 -10.40717 -10.20664
 Alpha  occ. eigenvalues --  -10.19724 -10.19140 -10.19140 -10.17921  -1.29638
 Alpha  occ. eigenvalues --   -1.20804  -1.20716  -0.86473  -0.75410  -0.69817
 Alpha  occ. eigenvalues --   -0.67171  -0.63076  -0.57988  -0.57254  -0.55497
 Alpha  occ. eigenvalues --   -0.53134  -0.49428  -0.45221  -0.44927  -0.42799
 Alpha  occ. eigenvalues --   -0.42544  -0.41728  -0.41118  -0.40244  -0.39714
 Alpha  occ. eigenvalues --   -0.38952  -0.36279  -0.34637  -0.32930  -0.31182
 Alpha  occ. eigenvalues --   -0.30901
 Alpha virt. eigenvalues --    0.07726   0.09705   0.11172   0.12219   0.14384
 Alpha virt. eigenvalues --    0.15461   0.16167   0.16421   0.16578   0.18629
 Alpha virt. eigenvalues --    0.19071   0.20632   0.20645   0.23484   0.24526

 Mulliken charges:
               1
     1  C   -0.408342
     2  C    0.050185
     3  C   -0.257330
     4  C   -0.121064
     5  C    0.274632
     6  F   -0.087270
     7  F   -0.084411
     8  F   -0.084392
     9  C   -0.257326
    10  H    0.117408
    11  H    0.117406
    12  H    0.116750
    13  H    0.076128
    14  H    0.107603
    15  H    0.115975
    16  H    0.100470
    17  H    0.107605
    18  H    0.115973
 Sum of Mulliken charges =  -0.00000

 Dipole moment (field-independent basis, Debye):
    X=             -2.1525    Y=              0.0000    Z=              0.9089  Tot=              2.3365
 Quadrupole moment (field-independent basis, Debye-Ang):
   XX=            -54.5900   YY=            -52.2434   ZZ=            -51.0400
   XY=             -0.0002   XZ=             -0.0124   YZ=              0.0000

  Exact polarizability:  73.169   0.000  62.445   1.977   0.000  58.804
 Approx polarizability:  90.037  -0.000  90.890   1.296   0.000  88.941

                      1                      2                      3
                      A                      A                      A
 Frequencies --     61.0567                69.1517               169.8388
 Red. masses --      5.2492                 3.4798                 2.8130
 Frc consts  --      0.0115                 0.0098                 0.0478
 IR Inten    --      0.1274                 0.4661                 0.3308

                      4                      5                      6
                      A                      A                      A
 Frequencies --    234.2739               248.3009               302.4716
 Red. masses --      1.1799                 4.7938                 2.3267
 Frc consts  --      0.0382                 0.1741                 0.1254
 IR Inten    --      0.0714                 0.6436                 0.0009

                      7                      8                      9
                      A                      A                      A
 Frequencies --    340.4618               410.5138               420.7726
 Red. masses --      6.5922                 2.0863                 5.2338
 Frc consts  --      0.4502                 0.2072                 0.5460
 IR Inten    --      4.2265                 0.3611                 2.2218

                     10                     11                     12
                      A                      A                      A
 Frequencies --    499.0966               575.0073               601.9796
 Red. masses --      4.7090                 9.5399                 3.3826
 Frc consts  --      0.6911                 1.8584                 0.7222
 IR Inten    --      0.8431                 0.1264                 0.3325

                     13                     14                     15
                      A                      A                      A
 Frequencies --    672.2377               774.9203               808.3011
 Red. masses --      5.4549                 3.7895                 1.2376
 Frc consts  --      1.4524                 1.3407                 0.4764
 IR Inten    --     15.5084                 0.3602                 0.4270

                     16                     17                     18
                      A                      A                      A
 Frequencies --    885.7711               897.3876               943.6830
 Red. masses --      3.3870                 2.0856                 1.2727
 Frc consts  --      1.5657                 0.9895                 0.6678
 IR Inten    --      5.9963                 0.1990                 4.6951

                     19                     20                     21
                      A                      A                      A
 Frequencies --    978.6379               986.2365              1058.6567
 Red. masses --      1.3646                 2.3406                 2.1540
 Frc consts  --      0.7700                 1.3413                 1.4224
 IR Inten    --      0.1605                13.1341                 9.0126

                     22                     23                     24
                      A                      A                      A
 Frequencies --   1105.6013              1127.0408              1142.2137
 Red. masses --      2.3695                 2.9959                 1.8557
 Frc consts  --      1.7065                 2.2421                 1.4264
 IR Inten    --     70.0341                13.9619                11.8548

                     25                     26                     27
                      A                      A                      A
 Frequencies --   1183.2743              1196.2757              1241.8420
 Red. masses --      3.3173                 7.9119                 1.3831
 Frc consts  --      2.7365                 6.6710                 1.2568
 IR Inten    --    119.1182               188.7969                 2.7360

                     28                     29                     30
                      A                      A                      A
 Frequencies --   1246.7399              1258.9307              1274.4379
 Red. masses --      1.4818                 1.2013                 1.6954
 Frc consts  --      1.3570                 1.1218                 1.6224
 IR Inten    --     12.9822                 5.7933                33.1239

                     31                     32                     33
                      A                      A                      A
 Frequencies --   1293.8191              1297.3340              1375.7544
 Red. masses --      2.6499                 1.3830                 1.4819
 Frc consts  --      2.6135                 1.3714                 1.6526
 IR Inten    --    135.0072                 0.0585                 0.3850

                     34                     35                     36
                      A                      A                      A
 Frequencies --   1405.0107              1416.5800              1475.7137
 Red. masses --      1.6151                 1.5522                 1.0879
 Frc consts  --      1.8785                 1.8352                 1.3958
 IR Inten    --     45.2038                31.6798                 2.1341

                     37                     38                     39
                      A                      A                      A
 Frequencies --   1494.3639              1496.5377              1502.8065
 Red. masses --      1.0629                 1.0500                 1.1239
 Frc consts  --      1.3984                 1.3855                 1.4954
 IR Inten    --      2.2022                 2.1555                 5.5759

                     40                     41                     42
                      A                      A                      A
 Frequencies --   3024.2680              3037.3231              3061.5539
 Red. masses --      1.0351                 1.0845                 1.0574
 Frc consts  --      5.5779                 5.8946                 5.8396
 IR Inten    --     24.7427                13.4389                38.5165

                     43                     44                     45
                      A                      A                      A
 Frequencies --   3066.2357              3085.8975              3092.6015
 Red. masses --      1.0601                 1.0861                 1.1010
 Frc consts  --      5.8725                 6.0938                 6.2040
 IR Inten    --      2.8168                 6.6985                25.6867

                     46                     47                     48
                      A                      A                      A
 Frequencies --   3094.1191              3120.6279              3125.9808
 Red. masses --      1.1014                 1.1077                 1.1060
 Frc consts  --      6.2124                 6.3557                 6.3679
 IR Inten    --     30.3326                16.7510                40.4662

 - Thermochemistry -
 -------------------
 Temperature   298.150 Kelvin.  Pressure   1.00000 Atm.
 Atom     1 has atomic number  6 and mass  12.00000

 Molecular mass:   138.06564 amu.
 Principal axes and moments of inertia in atomic units:
                           1         2         3
     Eigenvalues --   538.863341890.622441968.14913
           X            0.99994  -0.00000   0.01119
           Y            0.00000   1.00000   0.00000
           Z           -0.01119  -0.00000   0.99994
 This molecule is an asymmetric top.
 Rotational symmetry number  1.
 Warning -- assumption of classical behavior for rotation
           may cause significant error
 Rotational temperatures (Kelvin)      0.16073     0.04581     0.04401
 Rotational constants (GHZ):           3.34916     0.95458     0.91697
 Zero-point vibrational energy     377910.1 (Joules/Mol)
                                   90.32269 (Kcal/Mol)
 Warning -- explicit consideration of  12 degrees of freedom as
           vibrations may cause significant error
 Vibrational temperatures:     87.85    99.49   244.36   337.07   357.25
          (Kelvin)            435.19   489.85   590.64   605.40   718.09
                              827.31   866.11   967.20  1114.94  1162.96
                             1274.43  1291.14  1357.75  1408.04  1418.97
                             1523.17  1590.71  1621.56  1643.39  1702.47
                             1721.17  1786.73  1793.78  1811.32  1833.63
                             1861.52  1866.57  1979.40  2021.50  2038.14
                             2123.22  2150.06  2153.18  2162.20  4351.25
                             4370.03  4404.89  4411.63  4439.92  4449.56
                             4451.75  4489.89  4497.59

 Zero-point correction=                           0.143938 (Hartree/Particle)
 Thermal correction to Energy=                    0.152695
 Thermal correction to Enthalpy=                  0.153639
 Thermal correction to Gibbs Free Energy=         0.109730
 Sum of electronic and zero-point Energies=           -533.463331
 Sum of electronic and thermal Energies=              -533.454574
 Sum of electronic and thermal Enthalpies=            -533.453630
 Sum of electronic and thermal Free Energies=         -533.497539

                     E (Thermal)             CV                S
                      KCal/Mol        Cal/Mol-Kelvin    Cal/Mol-Kelvin
 Total                   95.818             32.445             92.416
 Electronic               0.000              0.000              0.000
 Translational            0.889              2.981             40.679
 Rotational               0.889              2.981             29.085
 Vibrational             94.040             26.484             22.651
 Vibration     1          0.597              1.973              4.423
 Vibration     2          0.598              1.969              4.177
 Vibration     3          0.625              1.880              2.437
 Vibration     4          0.654              1.788              1.846
 Vibration     5          0.662              1.766              1.743
 Vibration     6          0.694              1.669              1.403
 Vibration     7          0.720              1.595              1.210
 Vibration     8          0.775              1.447              0.925
 Vibration     9          0.783              1.425              0.889
 Vibration    10          0.855              1.252              0.660
 Vibration    11          0.931              1.085              0.495
 Vibration    12          0.960              1.028              0.446

 Optimization completed.
    -- Stationary point found.
 Normal termination of Gaussian 16 at Sun May 28 00:22:08 2023.
