 Gaussian 16, Revision A.03,
 Gaussian 16:  ES64L-G16RevA.03 25-Dec-2016

 -----------------------------
 # opt freq b3lyp/6-31g(2df,p)
 -----------------------------

 -------------------
 Title Card Required
 -------------------
 Symbolic Z-matrix:
 Charge =  0 Multiplicity = 1

 SCF Done:  E(RB3LYP) =  -659.845342895     A.U. after   12 cycles
 SCF Done:  E(RB3LYP) =  -659.862289712     A.U. after   10 cycles
 SCF Done:  E(RB3LYP) =  -659.866664944     A.U. after   10 cycles
 SCF Done:  E(RB3LYP) =  -659.868483958     A.U. after   10 cycles
 SCF Done:  E(RB3LYP) =  -659.869252542     A.U. after   10 cycles
 SCF Done:  E(RB3LYP) =  -659.870168451     A.U. after   10 cycles
 SCF Done:  E(RB3LYP) =  -659.870370565     A.U. after   10 cycles
 SCF Done:  E(RB3LYP) =  -659.870868840     A.U. after   10 cycles
 SCF Done:  E(RB3LYP) =  -659.870152270     A.U. after   10 cycles
 SCF Done:  E(RB3LYP) =  -659.842749499     A.U. after   11 cycles
 SCF Done:  E(RB3LYP) =  -659.877593194     A.U. after    9 cycles
 SCF Done:  E(RB3LYP) =  -659.877750325     A.U. after    9 cycles
 SCF Done:  E(RB3LYP) =  -659.877807934     A.U. after    9 cycles
 SCF Done:  E(RB3LYP) =  -659.877830619     A.U. after    9 cycles
 SCF Done:  E(RB3LYP) =  -659.877847963     A.U. after    8 cycles
 SCF Done:  E(RB3LYP) =  -659.877855957     A.U. after    8 cycles
 SCF Done:  E(RB3LYP) =  -659.877856035     A.U. after    6 cycles
 SCF Done:  E(RB3LYP) =  -659.877856325     A.U. after    8 cycles
 SCF Done:  E(RB3LYP) =  -659.877856478     A.U. after    7 cycles
 Optimization completed.
    -- Stationary point found.
 Normal termination of Gaussian 16 at Tue May 23 23:02:27 2023.

 ----------------------------------------------------------------------
 #N Geom=AllCheck Guess=TCheck SCRF=Check GenChk RB3LYP/6-31G(2df,p) Fr
 eq
 ----------------------------------------------------------------------

 Structure from the checkpoint file:  "CC1CCCC1CCqNrCCC1NCC1C.chk"
 -------------------
 Title Card Required
 -------------------
 Charge =  0 Multiplicity = 1

                         Standard orientation:
 ---------------------------------------------------------------------
 Center     Atomic      Atomic             Coordinates (Angstroms)
 Number     Number       Type             X           Y           Z
 ---------------------------------------------------------------------
      1          6           0        3.860635   -1.993247    0.075436
      2          6           0        3.516048   -0.590992    0.597552
      3          6           0        4.793450    0.179621    1.023710
      4          6           0        5.160535    1.027135   -0.202882
      5          6           0        3.790236    1.515009   -0.686025
      6          6           0        2.836155    0.305206   -0.499320
      7          6           0        1.395854    0.768515   -0.214214
      8          6           0        0.267921   -0.272053   -0.388518
      9          7           0        0.250084   -1.368837    0.592499
     10          6           0       -1.108511    0.417245   -0.376359
     11          6           0       -2.271332   -0.505302   -0.756622
     12          6           0       -3.635392    0.177848   -0.671598
     13          7           0       -4.801490   -0.681223   -1.011458
     14          6           0       -5.151035   -0.838053    0.420413
     15          6           0       -4.213911    0.350693    0.766894
     16          6           0       -4.918626    1.674776    1.033136
     17          1           0        4.289790   -2.618190    0.865903
     18          1           0        4.591805   -1.939872   -0.739533
     19          1           0        2.981947   -2.514391   -0.322111
     20          1           0        2.847512   -0.699360    1.457321
     21          1           0        5.595854   -0.490083    1.348940
     22          1           0        4.568508    0.844209    1.866500
     23          1           0        5.636215    0.403312   -0.969946
     24          1           0        5.853774    1.841677    0.026602
     25          1           0        3.792446    1.886650   -1.715334
     26          1           0        3.455558    2.344379   -0.048545
     27          1           0        2.821578   -0.264504   -1.438718
     28          1           0        1.181490    1.605542   -0.893026
     29          1           0        1.341558    1.187618    0.802359
     30          1           0        0.396698   -0.744568   -1.373676
     31          1           0        0.248271   -0.983775    1.534315
     32          1           0        1.089831   -1.931566    0.517838
     33          1           0       -1.084481    1.275340   -1.059619
     34          1           0       -1.280227    0.834556    0.627377
     35          1           0       -2.252217   -1.392797   -0.114494
     36          1           0       -2.122990   -0.861475   -1.786901
     37          1           0       -3.617529    1.103653   -1.265553
     38          1           0       -4.559300   -1.543177   -1.489616
     39          1           0       -4.833346   -1.786346    0.874041
     40          1           0       -6.217247   -0.694616    0.635231
     41          1           0       -3.492857    0.137923    1.561641
     42          1           0       -5.646948    1.892431    0.244648
     43          1           0       -4.203844    2.504683    1.068503
     44          1           0       -5.454169    1.654751    1.988943
 ---------------------------------------------------------------------

 SCF Done:  E(RB3LYP) =  -659.877856478     A.U. after    1 cycles

 The electronic state is 1-A.
 Alpha  occ. eigenvalues --  -14.30438 -14.29509 -10.20620 -10.19500 -10.19238
 Alpha  occ. eigenvalues --  -10.18318 -10.18114 -10.17758 -10.17595 -10.17555
 Alpha  occ. eigenvalues --  -10.17465 -10.17424 -10.17400 -10.17358 -10.16706
 Alpha  occ. eigenvalues --  -10.16678  -0.91132  -0.88196  -0.83754  -0.77149
 Alpha  occ. eigenvalues --   -0.74785  -0.74383  -0.74108  -0.69277  -0.66193
 Alpha  occ. eigenvalues --   -0.64814  -0.63437  -0.59624  -0.57342  -0.56528
 Alpha  occ. eigenvalues --   -0.54236  -0.53144  -0.49557  -0.48583  -0.47323
 Alpha  occ. eigenvalues --   -0.46731  -0.45264  -0.44492  -0.42561  -0.41853
 Alpha  occ. eigenvalues --   -0.41289  -0.40809  -0.40526  -0.39533  -0.38765
 Alpha  occ. eigenvalues --   -0.38597  -0.37974  -0.36595  -0.35961  -0.34519
 Alpha  occ. eigenvalues --   -0.33783  -0.33065  -0.32906  -0.32561  -0.32149
 Alpha  occ. eigenvalues --   -0.31632  -0.31245  -0.30834  -0.30366  -0.30312
 Alpha  occ. eigenvalues --   -0.28526  -0.23060  -0.20847
 Alpha virt. eigenvalues --    0.06610   0.08358   0.09142   0.09346   0.10088
 Alpha virt. eigenvalues --    0.10762   0.11610   0.12786   0.13238   0.13537
 Alpha virt. eigenvalues --    0.14006   0.14771   0.15028   0.15289   0.15984

 Mulliken charges:
               1
     1  C   -0.404343
     2  C    0.033682
     3  C   -0.214893
     4  C   -0.207319
     5  C   -0.217422
     6  C    0.025398
     7  C   -0.209367
     8  C    0.001470
     9  N   -0.509565
    10  C   -0.170547
    11  C   -0.220364
    12  C    0.046826
    13  N   -0.326673
    14  C   -0.174403
    15  C    0.023426
    16  C   -0.404949
    17  H    0.112281
    18  H    0.115880
    19  H    0.110074
    20  H    0.053089
    21  H    0.088179
    22  H    0.090981
    23  H    0.096043
    24  H    0.091906
    25  H    0.091014
    26  H    0.092580
    27  H    0.062212
    28  H    0.089682
    29  H    0.080863
    30  H    0.074737
    31  H    0.218487
    32  H    0.234768
    33  H    0.091492
    34  H    0.087446
    35  H    0.112219
    36  H    0.082573
    37  H    0.056150
    38  H    0.207306
    39  H    0.087236
    40  H    0.091046
    41  H    0.064879
    42  H    0.127496
    43  H    0.109505
    44  H    0.108919
 Sum of Mulliken charges =  -0.00000

 Dipole moment (field-independent basis, Debye):
    X=              2.3441    Y=              0.0091    Z=              0.8572  Tot=              2.4959
 Quadrupole moment (field-independent basis, Debye-Ang):
   XX=           -111.7891   YY=           -102.7925   ZZ=           -101.1779
   XY=              0.4371   XZ=             -4.1972   YZ=              0.8241

  Exact polarizability: 197.325   2.030 151.978  -2.056  -0.352 140.381
 Approx polarizability: 227.814   1.521 223.457  -2.720   0.613 224.889

                      1                      2                      3
                      A                      A                      A
 Frequencies --     18.9234                29.3699                39.9722
 Red. masses --      3.0515                 3.6241                 3.4053
 Frc consts  --      0.0006                 0.0018                 0.0032
 IR Inten    --      0.1562                 0.0546                 0.2839

                      4                      5                      6
                      A                      A                      A
 Frequencies --     57.1605                83.8421                96.0681
 Red. masses --      2.8907                 2.9400                 3.0742
 Frc consts  --      0.0056                 0.0122                 0.0167
 IR Inten    --      0.1013                 0.0877                 0.6009

                      7                      8                      9
                      A                      A                      A
 Frequencies --    108.7975               139.5438               175.2963
 Red. masses --      2.8731                 3.0737                 2.2996
 Frc consts  --      0.0200                 0.0353                 0.0416
 IR Inten    --      0.7765                 0.8730                 0.6920

                     10                     11                     12
                      A                      A                      A
 Frequencies --    200.1536               238.2877               240.8422
 Red. masses --      2.9842                 1.2517                 1.5165
 Frc consts  --      0.0704                 0.0419                 0.0518
 IR Inten    --      1.3016                 0.2291                 0.3746

                     13                     14                     15
                      A                      A                      A
 Frequencies --    241.6738               252.1753               260.0932
 Red. masses --      1.7501                 1.4918                 1.2681
 Frc consts  --      0.0602                 0.0559                 0.0505
 IR Inten    --      1.9815                 3.9566                19.4068

                     16                     17                     18
                      A                      A                      A
 Frequencies --    269.5452               286.1542               311.5984
 Red. masses --      2.0044                 2.6439                 2.1146
 Frc consts  --      0.0858                 0.1276                 0.1210
 IR Inten    --      2.5145                 5.7669                 0.2816

                     19                     20                     21
                      A                      A                      A
 Frequencies --    347.7222               380.1048               411.6559
 Red. masses --      2.3659                 2.1620                 2.4725
 Frc consts  --      0.1685                 0.1840                 0.2469
 IR Inten    --      2.2239                 0.2300                 0.1173

                     22                     23                     24
                      A                      A                      A
 Frequencies --    456.4181               468.3322               505.8784
 Red. masses --      1.9859                 2.3974                 2.4022
 Frc consts  --      0.2437                 0.3098                 0.3622
 IR Inten    --      1.1737                 3.6127                 1.8636

                     25                     26                     27
                      A                      A                      A
 Frequencies --    551.8454               566.6006               642.4544
 Red. masses --      2.4643                 1.9211                 2.9583
 Frc consts  --      0.4422                 0.3634                 0.7194
 IR Inten    --      6.4633                 0.2049                 2.0634

                     28                     29                     30
                      A                      A                      A
 Frequencies --    676.9270               762.6868               771.1530
 Red. masses --      2.4369                 1.6214                 1.8380
 Frc consts  --      0.6579                 0.5557                 0.6440
 IR Inten    --     75.5994                 1.3082                 1.8616

                     31                     32                     33
                      A                      A                      A
 Frequencies --    803.9380               836.9914               838.9281
 Red. masses --      1.9376                 2.5418                 2.0439
 Frc consts  --      0.7378                 1.0492                 0.8476
 IR Inten    --     22.3594                12.6228                14.0928

                     34                     35                     36
                      A                      A                      A
 Frequencies --    865.3946               869.0512               879.3882
 Red. masses --      1.4925                 1.8248                 1.7687
 Frc consts  --      0.6586                 0.8120                 0.8059
 IR Inten    --    114.7732                 4.6097                13.2199

                     37                     38                     39
                      A                      A                      A
 Frequencies --    886.2282               901.1933               924.8856
 Red. masses --      1.7373                 1.9685                 1.5461
 Frc consts  --      0.8039                 0.9420                 0.7792
 IR Inten    --     11.6873                 7.2248                 1.1791

                     40                     41                     42
                      A                      A                      A
 Frequencies --    932.9596               951.6651               976.6665
 Red. masses --      2.2403                 1.8481                 1.9021
 Frc consts  --      1.1489                 0.9862                 1.0690
 IR Inten    --      1.9478                 1.8757                 2.9810

                     43                     44                     45
                      A                      A                      A
 Frequencies --    993.3801               997.2451              1014.2716
 Red. masses --      1.4628                 1.7834                 1.9697
 Frc consts  --      0.8505                 1.0450                 1.1939
 IR Inten    --      0.1029                 1.7603                 5.0355

                     46                     47                     48
                      A                      A                      A
 Frequencies --   1018.5710              1022.7232              1039.4548
 Red. masses --      1.7527                 2.0237                 2.5128
 Frc consts  --      1.0714                 1.2471                 1.5996
 IR Inten    --      4.8504                 0.6295                18.6638

                     49                     50                     51
                      A                      A                      A
 Frequencies --   1052.4080              1062.4630              1065.8078
 Red. masses --      1.9341                 1.8142                 1.8878
 Frc consts  --      1.2621                 1.2066                 1.2634
 IR Inten    --      5.2693                 7.3879                 0.5250

                     52                     53                     54
                      A                      A                      A
 Frequencies --   1071.7200              1085.5315              1099.5819
 Red. masses --      1.6394                 2.0459                 2.2050
 Frc consts  --      1.1094                 1.4204                 1.5708
 IR Inten    --      7.8716                 0.8875                 0.5120

                     55                     56                     57
                      A                      A                      A
 Frequencies --   1106.7709              1131.9892              1143.1731
 Red. masses --      2.0787                 1.6195                 1.5877
 Frc consts  --      1.5003                 1.2227                 1.2225
 IR Inten    --      4.5755                 1.7372                 3.8477

                     58                     59                     60
                      A                      A                      A
 Frequencies --   1149.0288              1176.8831              1180.9371
 Red. masses --      2.3145                 1.6507                 1.5011
 Frc consts  --      1.8004                 1.3470                 1.2334
 IR Inten    --     19.2972                 7.0925                 8.4596

                     61                     62                     63
                      A                      A                      A
 Frequencies --   1194.5965              1205.4687              1230.6466
 Red. masses --      1.5850                 1.8365                 1.5466
 Frc consts  --      1.3327                 1.5723                 1.3801
 IR Inten    --      0.3289                 0.5376                 5.4188

                     64                     65                     66
                      A                      A                      A
 Frequencies --   1248.8760              1253.0849              1255.1461
 Red. masses --      1.4428                 1.2789                 1.2691
 Frc consts  --      1.3258                 1.1832                 1.1780
 IR Inten    --      1.3605                 1.0884                 0.6390

                     67                     68                     69
                      A                      A                      A
 Frequencies --   1267.9208              1288.4082              1298.6963
 Red. masses --      1.3744                 1.3730                 1.3420
 Frc consts  --      1.3018                 1.3428                 1.3336
 IR Inten    --      1.6253                 0.4091                 3.9334

                     70                     71                     72
                      A                      A                      A
 Frequencies --   1302.5005              1320.4907              1325.2764
 Red. masses --      1.1848                 1.3115                 1.3011
 Frc consts  --      1.1843                 1.3473                 1.3463
 IR Inten    --      0.7448                 1.4417                 1.4275

                     73                     74                     75
                      A                      A                      A
 Frequencies --   1335.7613              1337.4195              1342.5677
 Red. masses --      1.3242                 1.2773                 1.2690
 Frc consts  --      1.3921                 1.3461                 1.3476
 IR Inten    --      3.4633                 7.3743                 0.2815

                     76                     77                     78
                      A                      A                      A
 Frequencies --   1345.6710              1357.2533              1364.3812
 Red. masses --      1.2631                 1.3073                 1.4071
 Frc consts  --      1.3476                 1.4189                 1.5432
 IR Inten    --      1.3172                 1.3912                 1.3704

                     79                     80                     81
                      A                      A                      A
 Frequencies --   1375.2747              1379.6184              1387.0694
 Red. masses --      1.5297                 1.4556                 1.4685
 Frc consts  --      1.7046                 1.6324                 1.6647
 IR Inten    --      1.9273                 0.6848                 3.1483

                     82                     83                     84
                      A                      A                      A
 Frequencies --   1393.0880              1409.3825              1410.4261
 Red. masses --      1.5316                 1.2794                 1.3821
 Frc consts  --      1.7513                 1.4973                 1.6199
 IR Inten    --      1.7194                 5.1239                34.3377

                     85                     86                     87
                      A                      A                      A
 Frequencies --   1411.0241              1416.1354              1470.7871
 Red. masses --      1.3140                 1.2819                 1.0913
 Frc consts  --      1.5414                 1.5146                 1.3909
 IR Inten    --     12.0271                 2.7436                 0.3748

                     88                     89                     90
                      A                      A                      A
 Frequencies --   1482.5075              1486.3293              1489.2557
 Red. masses --      1.0843                 1.0773                 1.0761
 Frc consts  --      1.4041                 1.4022                 1.4062
 IR Inten    --      0.7872                 0.9844                 1.2893

                     91                     92                     93
                      A                      A                      A
 Frequencies --   1495.2776              1499.0986              1499.2500
 Red. masses --      1.0444                 1.0615                 1.0591
 Frc consts  --      1.3758                 1.4055                 1.4026
 IR Inten    --      3.2456                 6.6350                 1.5463

                     94                     95                     96
                      A                      A                      A
 Frequencies --   1499.9644              1500.7380              1509.0438
 Red. masses --      1.0604                 1.0776                 1.1060
 Frc consts  --      1.4057                 1.4299                 1.4840
 IR Inten    --      2.1116                 3.5239                 1.0116

                     97                     98                     99
                      A                      A                      A
 Frequencies --   1520.6796              1654.9689              2981.6164
 Red. masses --      1.0983                 1.0929                 1.0825
 Frc consts  --      1.4964                 1.7637                 5.6699
 IR Inten    --      2.1311                14.5369                56.3090

                    100                    101                    102
                      A                      A                      A
 Frequencies --   2986.2840              2991.2412              2996.8948
 Red. masses --      1.0638                 1.0747                 1.0732
 Frc consts  --      5.5893                 5.6658                 5.6791
 IR Inten    --      3.2205                 4.6835                10.4300

                    103                    104                    105
                      A                      A                      A
 Frequencies --   2999.6756              3000.7027              3008.8734
 Red. masses --      1.0747                 1.0612                 1.0696
 Frc consts  --      5.6976                 5.6296                 5.7052
 IR Inten    --      9.7073                45.5765                73.4472

                    106                    107                    108
                      A                      A                      A
 Frequencies --   3018.5421              3021.0600              3024.0388
 Red. masses --      1.0678                 1.0388                 1.0362
 Frc consts  --      5.7324                 5.5862                 5.5830
 IR Inten    --     38.4415                24.4629                26.0995

                    109                    110                    111
                      A                      A                      A
 Frequencies --   3026.6014              3030.3616              3031.6024
 Red. masses --      1.0676                 1.0922                 1.0663
 Frc consts  --      5.7618                 5.9094                 5.7739
 IR Inten    --     27.6671                25.0989                17.1601

                    112                    113                    114
                      A                      A                      A
 Frequencies --   3039.8988              3047.6791              3049.8248
 Red. masses --      1.1035                 1.0904                 1.0859
 Frc consts  --      6.0080                 5.9673                 5.9510
 IR Inten    --     44.2794                 4.7798                53.3068

                    115                    116                    117
                      A                      A                      A
 Frequencies --   3056.4683              3075.9043              3076.2785
 Red. masses --      1.0880                 1.0964                 1.0992
 Frc consts  --      5.9886                 6.1115                 6.1289
 IR Inten    --     33.4171                24.0087                36.9815

                    118                    119                    120
                      A                      A                      A
 Frequencies --   3078.9972              3083.1598              3088.4640
 Red. masses --      1.0936                 1.0993                 1.1011
 Frc consts  --      6.1086                 6.1567                 6.1881
 IR Inten    --     36.3924                78.0010                35.2764

                    121                    122                    123
                      A                      A                      A
 Frequencies --   3089.3330              3094.9789              3100.2984
 Red. masses --      1.1033                 1.1011                 1.1011
 Frc consts  --      6.2039                 6.2144                 6.2357
 IR Inten    --     48.7129                46.0008                36.6295

                    124                    125                    126
                      A                      A                      A
 Frequencies --   3484.0035              3513.3010              3583.6368
 Red. masses --      1.0526                 1.0754                 1.0877
 Frc consts  --      7.5277                 7.8210                 8.2300
 IR Inten    --      0.2888                 1.7007                 1.3585

 - Thermochemistry -
 -------------------
 Temperature   298.150 Kelvin.  Pressure   1.00000 Atm.
 Atom     1 has atomic number  6 and mass  12.00000

 Molecular mass:   224.22525 amu.
 Principal axes and moments of inertia in atomic units:
                           1         2         3
     Eigenvalues --  1324.65533********************
           X            0.99998  -0.00438  -0.00367
           Y            0.00441   0.99996   0.00831
           Z            0.00363  -0.00833   0.99996
 This molecule is an asymmetric top.
 Rotational symmetry number  1.
 Warning -- assumption of classical behavior for rotation
           may cause significant error
 Rotational temperatures (Kelvin)      0.06539     0.00774     0.00744
 Rotational constants (GHZ):           1.36242     0.16121     0.15493
 Zero-point vibrational energy    1069547.1 (Joules/Mol)
                                  255.62789 (Kcal/Mol)
 Warning -- explicit consideration of  26 degrees of freedom as
           vibrations may cause significant error
 Vibrational temperatures:     27.23    42.26    57.51    82.24   120.63
          (Kelvin)            138.22   156.54   200.77   252.21   287.98
                              342.84   346.52   347.71   362.82   374.22
                              387.82   411.71   448.32   500.29   546.89
                              592.28   656.68   673.83   727.85   793.98
                              815.21   924.35   973.95  1097.34  1109.52
                             1156.69  1204.24  1207.03  1245.11  1250.37
                             1265.24  1275.08  1296.62  1330.70  1342.32
                             1369.23  1405.21  1429.25  1434.81  1459.31
                             1465.50  1471.47  1495.54  1514.18  1528.65
                             1533.46  1541.97  1561.84  1582.05  1592.40
                             1628.68  1644.77  1653.20  1693.27  1699.11
                             1718.76  1734.40  1770.63  1796.85  1802.91
                             1805.88  1824.26  1853.73  1868.53  1874.01
                             1899.89  1906.78  1921.86  1924.25  1931.66
                             1936.12  1952.78  1963.04  1978.71  1984.96
                             1995.68  2004.34  2027.79  2029.29  2030.15
                             2037.50  2116.13  2133.00  2138.50  2142.71
                             2151.37  2156.87  2157.09  2158.11  2159.23
                             2171.18  2187.92  2381.13  4289.88  4296.60
                             4303.73  4311.86  4315.86  4317.34  4329.10
                             4343.01  4346.63  4350.92  4354.60  4360.01
                             4361.80  4373.74  4384.93  4388.02  4397.58
                             4425.54  4426.08  4429.99  4435.98  4443.61
                             4444.86  4452.98  4460.64  5012.70  5054.86
                             5156.05

 Zero-point correction=                           0.407369 (Hartree/Particle)
 Thermal correction to Energy=                    0.425506
 Thermal correction to Enthalpy=                  0.426451
 Thermal correction to Gibbs Free Energy=         0.359639
 Sum of electronic and zero-point Energies=           -659.470488
 Sum of electronic and thermal Energies=              -659.452350
 Sum of electronic and thermal Enthalpies=            -659.451406
 Sum of electronic and thermal Free Energies=         -659.518218

                     E (Thermal)             CV                S
                      KCal/Mol        Cal/Mol-Kelvin    Cal/Mol-Kelvin
 Total                  267.009             69.376            140.617
 Electronic               0.000              0.000              0.000
 Translational            0.889              2.981             42.125
 Rotational               0.889              2.981             33.512
 Vibrational            265.232             63.414             64.980
 Vibration     1          0.593              1.986              6.744
 Vibration     2          0.593              1.984              5.872
 Vibration     3          0.594              1.981              5.260
 Vibration     4          0.596              1.975              4.553
 Vibration     5          0.601              1.960              3.799
 Vibration     6          0.603              1.952              3.533
 Vibration     7          0.606              1.942              3.290
 Vibration     8          0.615              1.914              2.810
 Vibration     9          0.627              1.873              2.378
 Vibration    10          0.638              1.840              2.132
 Vibration    11          0.656              1.782              1.816
 Vibration    12          0.658              1.778              1.797
 Vibration    13          0.658              1.776              1.791
 Vibration    14          0.664              1.759              1.715
 Vibration    15          0.668              1.746              1.661
 Vibration    16          0.674              1.729              1.599
 Vibration    17          0.684              1.699              1.497
 Vibration    18          0.700              1.652              1.354
 Vibration    19          0.725              1.580              1.176
 Vibration    20          0.750              1.513              1.039
 Vibration    21          0.776              1.445              0.921
 Vibration    22          0.815              1.347              0.777
 Vibration    23          0.826              1.320              0.742
 Vibration    24          0.861              1.237              0.644
 Vibration    25          0.907              1.136              0.540
 Vibration    26          0.923              1.104              0.511

 Optimization completed.
    -- Stationary point found.
 Normal termination of Gaussian 16 at Wed May 24 02:58:01 2023.
