 Gaussian 16, Revision A.03,
 Gaussian 16:  ES64L-G16RevA.03 25-Dec-2016

 -----------------------------
 # opt freq b3lyp/6-31g(2df,p)
 -----------------------------

 -------------------
 Title Card Required
 -------------------
 Symbolic Z-matrix:
 Charge =  0 Multiplicity = 1

 SCF Done:  E(RB3LYP) =  -351.322282766     A.U. after   12 cycles
 SCF Done:  E(RB3LYP) =  -351.338547557     A.U. after   10 cycles
 SCF Done:  E(RB3LYP) =  -351.340448744     A.U. after   10 cycles
 SCF Done:  E(RB3LYP) =  -351.340812811     A.U. after    9 cycles
 SCF Done:  E(RB3LYP) =  -351.340934550     A.U. after    9 cycles
 SCF Done:  E(RB3LYP) =  -351.340965224     A.U. after    8 cycles
 SCF Done:  E(RB3LYP) =  -351.340978972     A.U. after    8 cycles
 SCF Done:  E(RB3LYP) =  -351.340979434     A.U. after    6 cycles
 SCF Done:  E(RB3LYP) =  -351.340979531     A.U. after    6 cycles
 Optimization completed.
    -- Stationary point found.
 Normal termination of Gaussian 16 at Sun May 28 15:05:11 2023.

 ----------------------------------------------------------------------
 #N Geom=AllCheck Guess=TCheck SCRF=Check GenChk RB3LYP/6-31G(2df,p) Fr
 eq
 ----------------------------------------------------------------------

 Structure from the checkpoint file:  "CC1CC2qCrC3CC2C13.chk"
 -------------------
 Title Card Required
 -------------------
 Charge =  0 Multiplicity = 1

                         Standard orientation:
 ---------------------------------------------------------------------
 Center     Atomic      Atomic             Coordinates (Angstroms)
 Number     Number       Type             X           Y           Z
 ---------------------------------------------------------------------
      1          6           0       -2.729435    0.057190   -0.462973
      2          6           0       -1.530489    0.085917    0.487090
      3          6           0       -0.575475    1.295696    0.290525
      4          6           0        0.754958    0.585215    0.004852
      5          6           0        1.952824    1.480027   -0.235506
      6          6           0        0.834332   -0.684405    0.933943
      7          6           0        1.564185   -1.462410   -0.186353
      8          6           0        0.451478   -0.662970   -0.905109
      9          6           0       -0.525170   -1.043161    0.256843
     10          1           0       -3.390123    0.914387   -0.294796
     11          1           0       -3.324188   -0.852999   -0.327239
     12          1           0       -2.404512    0.088943   -1.509248
     13          1           0       -1.900094    0.050374    1.519538
     14          1           0       -0.510997    1.938080    1.175980
     15          1           0       -0.880328    1.932832   -0.548685
     16          1           0        2.135830    2.122648    0.633708
     17          1           0        1.777165    2.138959   -1.093986
     18          1           0        2.870895    0.919345   -0.431368
     19          1           0        1.048300   -0.692424    2.006002
     20          1           0        1.447315   -2.549959   -0.174394
     21          1           0        2.601034   -1.193139   -0.399805
     22          1           0        0.225858   -0.648479   -1.974293
     23          1           0       -0.879400   -2.075161    0.318713
 ---------------------------------------------------------------------

 SCF Done:  E(RB3LYP) =  -351.340979531     A.U. after    1 cycles

 The electronic state is 1-A.
 Alpha  occ. eigenvalues --  -10.19014 -10.18784 -10.18754 -10.18125 -10.17693
 Alpha  occ. eigenvalues --  -10.17687 -10.16934 -10.16805 -10.16792  -0.91624
 Alpha  occ. eigenvalues --   -0.78044  -0.74005  -0.68531  -0.64125  -0.62048
 Alpha  occ. eigenvalues --   -0.60687  -0.54608  -0.49325  -0.48675  -0.46307
 Alpha  occ. eigenvalues --   -0.43896  -0.42515  -0.40747  -0.39769  -0.37844
 Alpha  occ. eigenvalues --   -0.37437  -0.34664  -0.32315  -0.31455  -0.31404
 Alpha  occ. eigenvalues --   -0.29435  -0.29140  -0.28775  -0.27669
 Alpha virt. eigenvalues --    0.09571   0.10144   0.12480   0.12936   0.13408
 Alpha virt. eigenvalues --    0.14040   0.15395   0.15563   0.15733   0.16871
 Alpha virt. eigenvalues --    0.17159   0.18696   0.18863   0.19069   0.20001

 Mulliken charges:
               1
     1  C   -0.404051
     2  C    0.003433
     3  C   -0.301212
     4  C    0.382949
     5  C   -0.500805
     6  C   -0.101144
     7  C   -0.256808
     8  C   -0.090876
     9  C    0.007514
    10  H    0.110984
    11  H    0.108923
    12  H    0.112026
    13  H    0.062818
    14  H    0.089826
    15  H    0.088640
    16  H    0.113987
    17  H    0.114132
    18  H    0.115769
    19  H    0.057334
    20  H    0.085323
    21  H    0.088303
    22  H    0.058948
    23  H    0.053986
 Sum of Mulliken charges =  -0.00000

 Dipole moment (field-independent basis, Debye):
    X=             -0.0550    Y=              0.1360    Z=              0.0747  Tot=              0.1646
 Quadrupole moment (field-independent basis, Debye-Ang):
   XX=            -57.1005   YY=            -56.5784   ZZ=            -56.1250
   XY=              0.3476   XZ=             -0.1830   YZ=             -0.0421

  Exact polarizability:  98.718  -0.368  90.645  -0.371   0.294  78.787
 Approx polarizability: 130.057  -0.282 131.227  -0.447   0.102 127.283

                      1                      2                      3
                      A                      A                      A
 Frequencies --    121.9244               202.5867               220.9455
 Red. masses --      2.4949                 1.0523                 1.8014
 Frc consts  --      0.0219                 0.0254                 0.0518
 IR Inten    --      0.0094                 0.0044                 0.0200

                      4                      5                      6
                      A                      A                      A
 Frequencies --    234.3368               301.7562               340.3804
 Red. masses --      1.2113                 2.3300                 2.3387
 Frc consts  --      0.0392                 0.1250                 0.1596
 IR Inten    --      0.0188                 0.1594                 0.1281

                      7                      8                      9
                      A                      A                      A
 Frequencies --    370.8232               455.3494               467.4131
 Red. masses --      1.9731                 3.0362                 2.1068
 Frc consts  --      0.1599                 0.3709                 0.2712
 IR Inten    --      0.2566                 0.3726                 0.3557

                     10                     11                     12
                      A                      A                      A
 Frequencies --    612.6234               654.5073               695.6759
 Red. masses --      3.3218                 3.4528                 3.2800
 Frc consts  --      0.7345                 0.8715                 0.9353
 IR Inten    --      1.5758                 0.0753                 0.3103

                     13                     14                     15
                      A                      A                      A
 Frequencies --    738.2799               822.7281               863.1964
 Red. masses --      2.8302                 2.3867                 2.6718
 Frc consts  --      0.9089                 0.9518                 1.1729
 IR Inten    --      0.0484                 0.0270                 0.4426

                     16                     17                     18
                      A                      A                      A
 Frequencies --    876.9692               901.1681               910.2211
 Red. masses --      2.0462                 2.5529                 2.0831
 Frc consts  --      0.9272                 1.2215                 1.0168
 IR Inten    --      1.4375                 1.0552                 0.0361

                     19                     20                     21
                      A                      A                      A
 Frequencies --    928.8544               934.1666               963.5091
 Red. masses --      1.5386                 1.6076                 1.7986
 Frc consts  --      0.7821                 0.8266                 0.9838
 IR Inten    --      0.3350                 0.2901                 0.8125

                     22                     23                     24
                      A                      A                      A
 Frequencies --   1006.6128              1029.9778              1048.8682
 Red. masses --      1.0921                 1.1607                 1.3665
 Frc consts  --      0.6520                 0.7255                 0.8857
 IR Inten    --      1.4174                 0.2958                 1.6912

                     25                     26                     27
                      A                      A                      A
 Frequencies --   1060.6048              1065.3213              1085.2326
 Red. masses --      1.6921                 2.5343                 1.3773
 Frc consts  --      1.1215                 1.6946                 0.9557
 IR Inten    --      0.1330                 0.2443                 1.1209

                     28                     29                     30
                      A                      A                      A
 Frequencies --   1117.7691              1137.5298              1164.5250
 Red. masses --      1.5793                 1.8618                 2.1574
 Frc consts  --      1.1625                 1.4194                 1.7237
 IR Inten    --      1.1959                 1.0214                 0.0487

                     31                     32                     33
                      A                      A                      A
 Frequencies --   1180.3562              1189.4550              1219.6585
 Red. masses --      1.7452                 1.6329                 1.7198
 Frc consts  --      1.4326                 1.3612                 1.5073
 IR Inten    --      0.1675                 0.1898                 3.5813

                     34                     35                     36
                      A                      A                      A
 Frequencies --   1220.2791              1240.0817              1253.7884
 Red. masses --      1.6027                 1.9318                 1.6184
 Frc consts  --      1.4061                 1.7503                 1.4990
 IR Inten    --      1.9849                 4.1234                 6.0773

                     37                     38                     39
                      A                      A                      A
 Frequencies --   1271.0579              1293.6741              1329.5931
 Red. masses --      1.8695                 2.0496                 1.7039
 Frc consts  --      1.7795                 2.0210                 1.7747
 IR Inten    --      1.2918                 4.7792                 8.8350

                     40                     41                     42
                      A                      A                      A
 Frequencies --   1347.2303              1378.5508              1410.1224
 Red. masses --      1.6498                 1.6992                 1.2390
 Frc consts  --      1.7643                 1.9025                 1.4515
 IR Inten    --      4.4386                 4.2370                 2.5565

                     43                     44                     45
                      A                      A                      A
 Frequencies --   1414.7233              1490.2054              1492.5909
 Red. masses --      1.3092                 1.0797                 1.0476
 Frc consts  --      1.5438                 1.4127                 1.3751
 IR Inten    --      3.7792                 1.5906                 4.9741

                     46                     47                     48
                      A                      A                      A
 Frequencies --   1497.0085              1498.8350              1499.5636
 Red. masses --      1.0668                 1.0502                 1.0641
 Frc consts  --      1.4086                 1.3901                 1.4099
 IR Inten    --      2.5050                 3.5705                 0.8777

                     49                     50                     51
                      A                      A                      A
 Frequencies --   1527.1800              3017.6638              3023.0580
 Red. masses --      1.1124                 1.0797                 1.0421
 Frc consts  --      1.5286                 5.7926                 5.6109
 IR Inten    --      0.7431                19.2197                13.3967

                     52                     53                     54
                      A                      A                      A
 Frequencies --   3024.5340              3029.2077              3050.6024
 Red. masses --      1.0397                 1.0549                 1.0563
 Frc consts  --      5.6039                 5.7034                 5.7918
 IR Inten    --     34.7322                58.4223                48.0262

                     55                     56                     57
                      A                      A                      A
 Frequencies --   3065.6540              3071.6293              3074.9419
 Red. masses --      1.1036                 1.0889                 1.0869
 Frc consts  --      6.1109                 6.0528                 6.0549
 IR Inten    --     18.0433               112.2222                15.4753

                     58                     59                     60
                      A                      A                      A
 Frequencies --   3080.3920              3089.1414              3091.8125
 Red. masses --      1.1000                 1.0935                 1.0992
 Frc consts  --      6.1498                 6.1481                 6.1907
 IR Inten    --     28.1132                15.0193                63.4061

                     61                     62                     63
                      A                      A                      A
 Frequencies --   3093.5176              3103.1399              3111.3662
 Red. masses --      1.1011                 1.1028                 1.1035
 Frc consts  --      6.2086                 6.2565                 6.2938
 IR Inten    --     41.7715                35.0467                42.5911

 - Thermochemistry -
 -------------------
 Temperature   298.150 Kelvin.  Pressure   1.00000 Atm.
 Atom     1 has atomic number  6 and mass  12.00000

 Molecular mass:   122.10955 amu.
 Principal axes and moments of inertia in atomic units:
                           1         2         3
     Eigenvalues --   634.883781153.215631465.40473
           X            0.99991   0.01263   0.00416
           Y           -0.01263   0.99992  -0.00091
           Z           -0.00417   0.00086   0.99999
 This molecule is an asymmetric top.
 Rotational symmetry number  1.
 Warning -- assumption of classical behavior for rotation
           may cause significant error
 Rotational temperatures (Kelvin)      0.13642     0.07511     0.05911
 Rotational constants (GHZ):           2.84263     1.56496     1.23157
 Zero-point vibrational energy     544387.4 (Joules/Mol)
                                  130.11172 (Kcal/Mol)
 Warning -- explicit consideration of  10 degrees of freedom as
           vibrations may cause significant error
 Vibrational temperatures:    175.42   291.48   317.89   337.16   434.16
          (Kelvin)            489.73   533.53   655.15   672.50   881.43
                              941.69  1000.92  1062.22  1183.72  1241.95
                             1261.76  1296.58  1309.61  1336.41  1344.06
                             1386.27  1448.29  1481.91  1509.09  1525.97
                             1532.76  1561.41  1608.22  1636.65  1675.49
                             1698.27  1711.36  1754.82  1755.71  1784.20
                             1803.92  1828.77  1861.31  1912.99  1938.36
                             1983.43  2028.85  2035.47  2144.07  2147.51
                             2153.86  2156.49  2157.54  2197.27  4341.75
                             4349.51  4351.63  4358.35  4389.14  4410.79
                             4419.39  4424.16  4432.00  4444.59  4448.43
                             4450.88  4464.73  4476.56

 Zero-point correction=                           0.207346 (Hartree/Particle)
 Thermal correction to Energy=                    0.215476
 Thermal correction to Enthalpy=                  0.216420
 Thermal correction to Gibbs Free Energy=         0.175295
 Sum of electronic and zero-point Energies=           -351.133633
 Sum of electronic and thermal Energies=              -351.125504
 Sum of electronic and thermal Enthalpies=            -351.124560
 Sum of electronic and thermal Free Energies=         -351.165685

                     E (Thermal)             CV                S
                      KCal/Mol        Cal/Mol-Kelvin    Cal/Mol-Kelvin
 Total                  135.213             33.547             86.555
 Electronic               0.000              0.000              0.000
 Translational            0.889              2.981             40.313
 Rotational               0.889              2.981             28.463
 Vibrational            133.436             27.585             17.778
 Vibration     1          0.609              1.931              3.070
 Vibration     2          0.639              1.836              2.109
 Vibration     3          0.648              1.809              1.951
 Vibration     4          0.654              1.788              1.845
 Vibration     5          0.694              1.670              1.407
 Vibration     6          0.720              1.595              1.210
 Vibration     7          0.743              1.532              1.076
 Vibration     8          0.814              1.349              0.780
 Vibration     9          0.825              1.322              0.745
 Vibration    10          0.972              1.005              0.428

 Optimization completed.
    -- Stationary point found.
 Normal termination of Gaussian 16 at Sun May 28 15:47:20 2023.
