 Gaussian 16, Revision A.03,
 Gaussian 16:  ES64L-G16RevA.03 25-Dec-2016

 -----------------------------
 # opt freq b3lyp/6-31g(2df,p)
 -----------------------------

 -------------------
 Title Card Required
 -------------------
 Symbolic Z-matrix:
 Charge =  0 Multiplicity = 1

 SCF Done:  E(RB3LYP) =  -273.843090683     A.U. after   12 cycles
 SCF Done:  E(RB3LYP) =  -273.876559054     A.U. after   11 cycles
 SCF Done:  E(RB3LYP) =  -273.895702082     A.U. after   11 cycles
 SCF Done:  E(RB3LYP) =  -273.900139984     A.U. after   10 cycles
 SCF Done:  E(RB3LYP) =  -273.900839695     A.U. after   10 cycles
 SCF Done:  E(RB3LYP) =  -273.900857094     A.U. after    9 cycles
 SCF Done:  E(RB3LYP) =  -273.900953596     A.U. after    8 cycles
 SCF Done:  E(RB3LYP) =  -273.901004195     A.U. after    9 cycles
 SCF Done:  E(RB3LYP) =  -273.901063314     A.U. after    9 cycles
 SCF Done:  E(RB3LYP) =  -273.901081201     A.U. after    7 cycles
 SCF Done:  E(RB3LYP) =  -273.901086842     A.U. after    8 cycles
 SCF Done:  E(RB3LYP) =  -273.901087351     A.U. after    6 cycles
 SCF Done:  E(RB3LYP) =  -273.901087396     A.U. after    5 cycles
 SCF Done:  E(RB3LYP) =  -273.901087437     A.U. after    5 cycles
 SCF Done:  E(RB3LYP) =  -273.901087484     A.U. after    6 cycles
 SCF Done:  E(RB3LYP) =  -273.901087508     A.U. after    6 cycles
 Optimization completed.
    -- Stationary point found.
 Normal termination of Gaussian 16 at Sat May 27 23:30:56 2023.

 ----------------------------------------------------------------------
 #N Geom=AllCheck Guess=TCheck SCRF=Check GenChk RB3LYP/6-31G(2df,p) Fr
 eq
 ----------------------------------------------------------------------

 Structure from the checkpoint file:  "CC1C2CC1C2C.chk"
 -------------------
 Title Card Required
 -------------------
 Charge =  0 Multiplicity = 1

                         Standard orientation:
 ---------------------------------------------------------------------
 Center     Atomic      Atomic             Coordinates (Angstroms)
 Number     Number       Type             X           Y           Z
 ---------------------------------------------------------------------
      1          6           0        1.392609    1.585476    0.003604
      2          6           0       -0.059772    1.112203   -0.033640
      3          6           0       -0.637470   -0.034545   -0.939591
      4          6           0       -1.879920   -0.000296    0.000017
      5          6           0       -0.637449    0.034375    0.939590
      6          6           0       -0.059383   -1.112181    0.033617
      7          6           0        1.393110   -1.585087   -0.003611
      8          1           0        1.760099    1.821065   -1.002132
      9          1           0        2.083729    0.875996    0.456846
     10          1           0        1.455764    2.508390    0.590529
     11          1           0       -0.697649    2.002853   -0.086678
     12          1           0       -0.644686   -0.068959   -2.031805
     13          1           0       -2.493430   -0.904116    0.029962
     14          1           0       -2.493722    0.903327   -0.029911
     15          1           0       -0.644613    0.068846    2.031802
     16          1           0       -0.696999   -2.003021    0.086684
     17          1           0        2.084200   -0.875216   -0.456273
     18          1           0        1.456586   -2.507663   -0.591034
     19          1           0        1.760372   -1.821173    1.002092
 ---------------------------------------------------------------------

 SCF Done:  E(RB3LYP) =  -273.901087508     A.U. after    1 cycles

 The electronic state is 1-A.
 Alpha  occ. eigenvalues --  -10.19154 -10.19151 -10.18611 -10.18610 -10.17943
 Alpha  occ. eigenvalues --  -10.16847 -10.16847  -0.90166  -0.73203  -0.72485
 Alpha  occ. eigenvalues --   -0.61840  -0.61578  -0.60709  -0.51058  -0.48704
 Alpha  occ. eigenvalues --   -0.44495  -0.42525  -0.40538  -0.40374  -0.38580
 Alpha  occ. eigenvalues --   -0.37597  -0.32937  -0.30819  -0.30420  -0.29927
 Alpha  occ. eigenvalues --   -0.29067  -0.28188
 Alpha virt. eigenvalues --    0.10077   0.11579   0.12046   0.13158   0.14097
 Alpha virt. eigenvalues --    0.14344   0.15102   0.16447   0.16962   0.17661
 Alpha virt. eigenvalues --    0.18585   0.18813   0.20883   0.21415   0.22785

 Mulliken charges:
               1
     1  C   -0.449861
     2  C    0.083136
     3  C   -0.078795
     4  C   -0.219174
     5  C   -0.078795
     6  C    0.083146
     7  C   -0.449870
     8  H    0.114233
     9  H    0.122767
    10  H    0.111534
    11  H    0.060937
    12  H    0.060220
    13  H    0.085414
    14  H    0.085414
    15  H    0.060221
    16  H    0.060938
    17  H    0.122762
    18  H    0.111539
    19  H    0.114232
 Sum of Mulliken charges =  -0.00000

 Dipole moment (field-independent basis, Debye):
    X=              0.1405    Y=              0.0000    Z=              0.0000  Tot=              0.1405
 Quadrupole moment (field-independent basis, Debye-Ang):
   XX=            -45.3591   YY=            -44.4535   ZZ=            -44.7250
   XY=             -0.0002   XZ=              0.0001   YZ=             -0.0095

  Exact polarizability:  76.340  -0.001  75.493  -0.000   0.212  63.897
 Approx polarizability: 103.005  -0.001 105.093  -0.000   0.244  99.801

                      1                      2                      3
                      A                      A                      A
 Frequencies --     66.2754               108.8456               226.0578
 Red. masses --      1.0133                 1.3147                 2.1544
 Frc consts  --      0.0026                 0.0092                 0.0649
 IR Inten    --      0.0909                 0.0266                 0.0003

                      4                      5                      6
                      A                      A                      A
 Frequencies --    338.1555               339.6408               349.4086
 Red. masses --      2.5842                 2.5075                 1.9086
 Frc consts  --      0.1741                 0.1704                 0.1373
 IR Inten    --      0.6451                 0.5015                 0.0748

                      7                      8                      9
                      A                      A                      A
 Frequencies --    531.0026               629.3983               743.7603
 Red. masses --      2.4833                 3.6630                 3.0087
 Frc consts  --      0.4125                 0.8550                 0.9806
 IR Inten    --      0.0698                 0.1382                 0.0268

                     10                     11                     12
                      A                      A                      A
 Frequencies --    777.1937               780.8311               802.7232
 Red. masses --      2.1594                 2.5315                 2.0097
 Frc consts  --      0.7685                 0.9094                 0.7630
 IR Inten    --      0.3906                 0.0156                 0.3712

                     13                     14                     15
                      A                      A                      A
 Frequencies --    866.0132               890.2940              1008.9114
 Red. masses --      2.1990                 2.2349                 1.1041
 Frc consts  --      0.9717                 1.0437                 0.6622
 IR Inten    --      0.2539                 0.0027                 0.0433

                     16                     17                     18
                      A                      A                      A
 Frequencies --   1014.6423              1027.8828              1029.8240
 Red. masses --      1.1768                 1.4428                 1.0497
 Frc consts  --      0.7138                 0.8982                 0.6559
 IR Inten    --      5.1077                 0.0760                 0.0783

                     19                     20                     21
                      A                      A                      A
 Frequencies --   1054.3313              1055.3285              1108.3008
 Red. masses --      1.3074                 3.3974                 1.4696
 Frc consts  --      0.8562                 2.2293                 1.0636
 IR Inten    --      6.5299                 1.0240                 0.1476

                     22                     23                     24
                      A                      A                      A
 Frequencies --   1129.8980              1135.5208              1152.2833
 Red. masses --      1.6934                 1.9996                 2.5046
 Frc consts  --      1.2738                 1.5191                 1.9593
 IR Inten    --      0.1766                 2.3104                 0.0011

                     25                     26                     27
                      A                      A                      A
 Frequencies --   1178.6125              1188.3340              1226.5169
 Red. masses --      1.3768                 2.9866                 1.4571
 Frc consts  --      1.1268                 2.4849                 1.2914
 IR Inten    --      1.1922                 1.4717                 0.0215

                     28                     29                     30
                      A                      A                      A
 Frequencies --   1233.2329              1256.4281              1289.6138
 Red. masses --      1.7670                 1.6828                 2.0021
 Frc consts  --      1.5833                 1.5651                 1.9618
 IR Inten    --      2.2715                 7.7710                 2.0862

                     31                     32                     33
                      A                      A                      A
 Frequencies --   1402.5999              1416.1162              1424.9006
 Red. masses --      1.2146                 1.2087                 1.2349
 Frc consts  --      1.4079                 1.4282                 1.4772
 IR Inten    --      0.6160                 0.9637                 5.8864

                     34                     35                     36
                      A                      A                      A
 Frequencies --   1456.5956              1493.1543              1495.6934
 Red. masses --      1.2118                 1.0507                 1.0475
 Frc consts  --      1.5148                 1.3802                 1.3807
 IR Inten    --      8.2693                 1.8223                 9.3731

                     37                     38                     39
                      A                      A                      A
 Frequencies --   1498.9771              1527.4840              1529.0085
 Red. masses --      1.0469                 1.1411                 1.0484
 Frc consts  --      1.3859                 1.5687                 1.4440
 IR Inten    --      4.7065                 2.7239                 0.4564

                     40                     41                     42
                      A                      A                      A
 Frequencies --   3014.0771              3018.1189              3034.2822
 Red. masses --      1.0812                 1.0792                 1.0434
 Frc consts  --      5.7872                 5.7920                 5.6601
 IR Inten    --     44.4162                32.1054                52.2916

                     43                     44                     45
                      A                      A                      A
 Frequencies --   3035.6064              3051.9524              3076.0060
 Red. masses --      1.0473                 1.0548                 1.0892
 Frc consts  --      5.6862                 5.7886                 6.0723
 IR Inten    --     23.1201                46.9873               130.5166

                     46                     47                     48
                      A                      A                      A
 Frequencies --   3083.0715              3084.0783              3085.2265
 Red. masses --      1.0970                 1.0998                 1.0945
 Frc consts  --      6.1434                 6.1632                 6.1383
 IR Inten    --      1.1706                52.7176                10.3446

                     49                     50                     51
                      A                      A                      A
 Frequencies --   3118.5904              3138.2420              3159.5881
 Red. masses --      1.1109                 1.0960                 1.0918
 Frc consts  --      6.3657                 6.3594                 6.4218
 IR Inten    --     44.2380                39.5655                13.8852

 - Thermochemistry -
 -------------------
 Temperature   298.150 Kelvin.  Pressure   1.00000 Atm.
 Atom     1 has atomic number  6 and mass  12.00000

 Molecular mass:    96.09390 amu.
 Principal axes and moments of inertia in atomic units:
                           1         2         3
     Eigenvalues --   547.74066 589.38902 903.57316
           X            1.00000   0.00001   0.00000
           Y           -0.00001   1.00000  -0.00009
           Z           -0.00000   0.00009   1.00000
 This molecule is an asymmetric top.
 Rotational symmetry number  1.
 Warning -- assumption of classical behavior for rotation
           may cause significant error
 Rotational temperatures (Kelvin)      0.15813     0.14696     0.09586
 Rotational constants (GHZ):           3.29488     3.06205     1.99734
 Zero-point vibrational energy     452682.7 (Joules/Mol)
                                  108.19375 (Kcal/Mol)
 Warning -- explicit consideration of   7 degrees of freedom as
           vibrations may cause significant error
 Vibrational temperatures:     95.36   156.60   325.25   486.53   488.67
          (Kelvin)            502.72   763.99   905.56  1070.11  1118.21
                             1123.44  1154.94  1246.00  1280.93  1451.60
                             1459.84  1478.89  1481.69  1516.95  1518.38
                             1594.60  1625.67  1633.76  1657.88  1695.76
                             1709.75  1764.68  1774.35  1807.72  1855.47
                             2018.03  2037.48  2050.11  2095.72  2148.32
                             2151.97  2156.69  2197.71  2199.90  4336.58
                             4342.40  4365.66  4367.56  4391.08  4425.69
                             4435.85  4437.30  4438.95  4486.96  4515.23
                             4545.94

 Zero-point correction=                           0.172418 (Hartree/Particle)
 Thermal correction to Energy=                    0.179632
 Thermal correction to Enthalpy=                  0.180577
 Thermal correction to Gibbs Free Energy=         0.141094
 Sum of electronic and zero-point Energies=           -273.728670
 Sum of electronic and thermal Energies=              -273.721455
 Sum of electronic and thermal Enthalpies=            -273.720511
 Sum of electronic and thermal Free Energies=         -273.759993

                     E (Thermal)             CV                S
                      KCal/Mol        Cal/Mol-Kelvin    Cal/Mol-Kelvin
 Total                  112.721             27.391             83.097
 Electronic               0.000              0.000              0.000
 Translational            0.889              2.981             39.599
 Rotational               0.889              2.981             27.169
 Vibrational            110.944             21.430             16.328
 Vibration     1          0.598              1.970              4.261
 Vibration     2          0.606              1.942              3.289
 Vibration     3          0.650              1.801              1.910
 Vibration     4          0.718              1.599              1.221
 Vibration     5          0.720              1.596              1.214
 Vibration     6          0.727              1.576              1.169
 Vibration     7          0.886              1.181              0.585

 Optimization completed.
    -- Stationary point found.
 Normal termination of Gaussian 16 at Sat May 27 23:50:54 2023.
