 Gaussian 16, Revision A.03,
 Gaussian 16:  ES64L-G16RevA.03 25-Dec-2016

 -----------------------------
 # opt freq b3lyp/6-31g(2df,p)
 -----------------------------

 -------------------
 Title Card Required
 -------------------
 Symbolic Z-matrix:
 Charge =  0 Multiplicity = 1

 SCF Done:  E(RB3LYP) =  -625.564598373     A.U. after   12 cycles
 SCF Done:  E(RB3LYP) =  -625.576519028     A.U. after   11 cycles
 SCF Done:  E(RB3LYP) =  -625.578442447     A.U. after    9 cycles
 SCF Done:  E(RB3LYP) =  -625.579849975     A.U. after   10 cycles
 SCF Done:  E(RB3LYP) =  -625.582210267     A.U. after   10 cycles
 SCF Done:  E(RB3LYP) =  -625.584243052     A.U. after   11 cycles
 SCF Done:  E(RB3LYP) =  -625.587379185     A.U. after   10 cycles
 SCF Done:  E(RB3LYP) =  -625.589580747     A.U. after   10 cycles
 SCF Done:  E(RB3LYP) =  -625.593764796     A.U. after   10 cycles
 SCF Done:  E(RB3LYP) =  -625.597720285     A.U. after   11 cycles
 SCF Done:  E(RB3LYP) =  -625.617212660     A.U. after    8 cycles
 SCF Done:  E(RB3LYP) =  -625.617218327     A.U. after    7 cycles
 SCF Done:  E(RB3LYP) =  -625.617223629     A.U. after    8 cycles
 SCF Done:  E(RB3LYP) =  -625.617234237     A.U. after    8 cycles
 SCF Done:  E(RB3LYP) =  -625.617251536     A.U. after    9 cycles
 SCF Done:  E(RB3LYP) =  -625.617260089     A.U. after    9 cycles
 SCF Done:  E(RB3LYP) =  -625.617264609     A.U. after    9 cycles
 SCF Done:  E(RB3LYP) =  -625.617264861     A.U. after    7 cycles
 SCF Done:  E(RB3LYP) =  -625.617264940     A.U. after    6 cycles
 Optimization completed.
    -- Stationary point found.
 Normal termination of Gaussian 16 at Tue May 23 12:17:21 2023.

 ----------------------------------------------------------------------
 #N Geom=AllCheck Guess=TCheck SCRF=Check GenChk RB3LYP/6-31G(2df,p) Fr
 eq
 ----------------------------------------------------------------------

 Structure from the checkpoint file:  "CC1CCqCrCqCrCCCCCCCO1.chk"
 -------------------
 Title Card Required
 -------------------
 Charge =  0 Multiplicity = 1

                         Standard orientation:
 ---------------------------------------------------------------------
 Center     Atomic      Atomic             Coordinates (Angstroms)
 Number     Number       Type             X           Y           Z
 ---------------------------------------------------------------------
      1          6           0       -0.967650   -3.284579   -0.625784
      2          6           0       -0.565217   -1.911269   -0.082710
      3          6           0        0.744977   -1.381057   -0.711513
      4          6           0        1.945315   -0.972175    0.206655
      5          6           0        1.633781   -0.802276    1.703147
      6          6           0        2.719403    0.243532   -0.397381
      7          6           0        4.206501    0.177553   -0.003329
      8          6           0        2.186126    1.666668   -0.079793
      9          6           0        0.829109    2.111228   -0.674598
     10          6           0       -0.392608    1.862393    0.219773
     11          6           0       -1.733859    2.179777   -0.453854
     12          6           0       -2.969406    1.762499    0.374854
     13          6           0       -3.527494    0.345734    0.131541
     14          6           0       -2.647611   -0.838935    0.527192
     15          8           0       -1.573481   -0.939513   -0.384770
     16          1           0       -0.204286   -4.031802   -0.383525
     17          1           0       -1.077293   -3.243948   -1.714269
     18          1           0       -1.916311   -3.622807   -0.197406
     19          1           0       -0.471682   -1.981792    1.008623
     20          1           0        0.440589   -0.525709   -1.316664
     21          1           0        1.120948   -2.121632   -1.426287
     22          1           0        2.654691   -1.808431    0.159264
     23          1           0        0.838625   -0.079580    1.900383
     24          1           0        2.525188   -0.461903    2.239792
     25          1           0        1.338544   -1.753263    2.157040
     26          1           0        2.677671    0.123358   -1.489879
     27          1           0        4.346860    0.312099    1.075358
     28          1           0        4.782094    0.962531   -0.504643
     29          1           0        4.647809   -0.786613   -0.276911
     30          1           0        2.952305    2.356811   -0.453456
     31          1           0        2.172734    1.818183    1.007897
     32          1           0        0.679200    1.630047   -1.650020
     33          1           0        0.882265    3.186762   -0.889314
     34          1           0       -0.294009    2.466590    1.132993
     35          1           0       -0.410274    0.820854    0.534873
     36          1           0       -1.773588    1.686219   -1.432411
     37          1           0       -1.783658    3.258323   -0.653063
     38          1           0       -3.787882    2.460841    0.162073
     39          1           0       -2.748301    1.885578    1.444554
     40          1           0       -3.785076    0.230618   -0.929048
     41          1           0       -4.467688    0.249637    0.689628
     42          1           0       -3.253219   -1.760005    0.522016
     43          1           0       -2.266606   -0.709418    1.555353
 ---------------------------------------------------------------------

 SCF Done:  E(RB3LYP) =  -625.617264940     A.U. after    1 cycles

 The electronic state is 1-A.
 Alpha  occ. eigenvalues --  -19.12907 -10.22572 -10.22054 -10.18172 -10.17907
 Alpha  occ. eigenvalues --  -10.17541 -10.17204 -10.17039 -10.16917 -10.16859
 Alpha  occ. eigenvalues --  -10.16771 -10.16738 -10.16576 -10.16472 -10.16024
 Alpha  occ. eigenvalues --   -1.02139  -0.81642  -0.79911  -0.76737  -0.76070
 Alpha  occ. eigenvalues --   -0.72339  -0.70587  -0.68034  -0.66186  -0.63082
 Alpha  occ. eigenvalues --   -0.59829  -0.58033  -0.56465  -0.55731  -0.53138
 Alpha  occ. eigenvalues --   -0.49488  -0.47244  -0.45972  -0.45476  -0.44041
 Alpha  occ. eigenvalues --   -0.43236  -0.42500  -0.41760  -0.40827  -0.40451
 Alpha  occ. eigenvalues --   -0.39292  -0.39068  -0.38212  -0.37709  -0.36973
 Alpha  occ. eigenvalues --   -0.36529  -0.35841  -0.35253  -0.34618  -0.33187
 Alpha  occ. eigenvalues --   -0.32650  -0.31935  -0.31600  -0.30943  -0.30533
 Alpha  occ. eigenvalues --   -0.29968  -0.29397  -0.28996  -0.28372  -0.24349
 Alpha virt. eigenvalues --    0.07738   0.08620   0.09431   0.10831   0.10891
 Alpha virt. eigenvalues --    0.12088   0.12409   0.13116   0.13577   0.13942
 Alpha virt. eigenvalues --    0.14689   0.15256   0.15419   0.16140   0.16466

 Mulliken charges:
               1
     1  C   -0.406353
     2  C    0.152622
     3  C   -0.264297
     4  C    0.054157
     5  C   -0.419907
     6  C    0.018891
     7  C   -0.404453
     8  C   -0.189180
     9  C   -0.208734
    10  C   -0.159048
    11  C   -0.175084
    12  C   -0.198135
    13  C   -0.197001
    14  C   -0.061255
    15  O   -0.256659
    16  H    0.111521
    17  H    0.122007
    18  H    0.112680
    19  H    0.065923
    20  H    0.127259
    21  H    0.090018
    22  H    0.066428
    23  H    0.124740
    24  H    0.110626
    25  H    0.111233
    26  H    0.067989
    27  H    0.113815
    28  H    0.108335
    29  H    0.106341
    30  H    0.087170
    31  H    0.089601
    32  H    0.093495
    33  H    0.085064
    34  H    0.077677
    35  H    0.124746
    36  H    0.098048
    37  H    0.082302
    38  H    0.089445
    39  H    0.087074
    40  H    0.104904
    41  H    0.090766
    42  H    0.083706
    43  H    0.081521
 Sum of Mulliken charges =  -0.00000

 Dipole moment (field-independent basis, Debye):
    X=             -0.0731    Y=             -0.6534    Z=              0.5897  Tot=              0.8832
 Quadrupole moment (field-independent basis, Debye-Ang):
   XX=            -96.5227   YY=            -96.1846   ZZ=            -97.8413
   XY=             -0.0221   XZ=             -1.7487   YZ=             -0.5471

  Exact polarizability: 177.270  -0.561 158.321  -1.804  -0.349 129.344
 Approx polarizability: 218.535  -1.403 215.286  -1.299  -0.419 212.001

                      1                      2                      3
                      A                      A                      A
 Frequencies --     16.5576                75.1446                83.7921
 Red. masses --      3.0532                 2.4484                 3.1124
 Frc consts  --      0.0005                 0.0081                 0.0129
 IR Inten    --      0.5608                 0.5324                 1.2389

                      4                      5                      6
                      A                      A                      A
 Frequencies --    102.9007               112.8881               152.7218
 Red. masses --      2.7363                 2.7295                 2.6254
 Frc consts  --      0.0171                 0.0205                 0.0361
 IR Inten    --      0.0744                 1.1836                 0.2686

                      7                      8                      9
                      A                      A                      A
 Frequencies --    180.0639               183.0859               194.1039
 Red. masses --      2.1933                 2.8710                 2.4299
 Frc consts  --      0.0419                 0.0567                 0.0539
 IR Inten    --      0.6296                 0.0869                 0.2657

                     10                     11                     12
                      A                      A                      A
 Frequencies --    212.6091               233.5307               250.0930
 Red. masses --      1.5263                 1.4850                 2.0550
 Frc consts  --      0.0406                 0.0477                 0.0757
 IR Inten    --      0.7659                 0.3458                 0.2297

                     13                     14                     15
                      A                      A                      A
 Frequencies --    260.5485               264.9976               280.8893
 Red. masses --      1.1267                 1.8317                 2.0331
 Frc consts  --      0.0451                 0.0758                 0.0945
 IR Inten    --      0.0444                 0.0707                 0.3841

                     16                     17                     18
                      A                      A                      A
 Frequencies --    290.4191               310.8427               320.3741
 Red. masses --      1.9036                 2.0868                 2.0812
 Frc consts  --      0.0946                 0.1188                 0.1259
 IR Inten    --      1.8327                 0.0467                 0.2450

                     19                     20                     21
                      A                      A                      A
 Frequencies --    343.6447               364.4108               413.0288
 Red. masses --      2.5592                 2.3482                 2.5843
 Frc consts  --      0.1781                 0.1837                 0.2598
 IR Inten    --      0.1958                 0.2115                 0.9952

                     22                     23                     24
                      A                      A                      A
 Frequencies --    441.9478               463.1444               504.2708
 Red. masses --      2.4905                 2.1262                 2.4019
 Frc consts  --      0.2866                 0.2687                 0.3599
 IR Inten    --      4.0822                 1.2964                 0.1789

                     25                     26                     27
                      A                      A                      A
 Frequencies --    517.1683               525.1901               567.8176
 Red. masses --      2.3052                 2.8144                 2.4813
 Frc consts  --      0.3633                 0.4574                 0.4714
 IR Inten    --      2.0492                 1.4460                 0.5587

                     28                     29                     30
                      A                      A                      A
 Frequencies --    704.7952               729.5926               782.0205
 Red. masses --      1.6031                 1.5187                 2.0515
 Frc consts  --      0.4692                 0.4763                 0.7392
 IR Inten    --      2.8613                 6.3388                 0.3771

                     31                     32                     33
                      A                      A                      A
 Frequencies --    805.9887               820.7811               857.5932
 Red. masses --      1.7819                 1.9497                 1.8344
 Frc consts  --      0.6820                 0.7739                 0.7949
 IR Inten    --      2.3516                 0.8952                 0.4720

                     34                     35                     36
                      A                      A                      A
 Frequencies --    862.2109               879.7771               894.2942
 Red. masses --      1.8506                 1.7590                 1.5975
 Frc consts  --      0.8106                 0.8022                 0.7527
 IR Inten    --      1.9305                 0.8812                 1.9391

                     37                     38                     39
                      A                      A                      A
 Frequencies --    901.2947               935.8075               954.5772
 Red. masses --      1.7050                 1.8690                 2.1726
 Frc consts  --      0.8161                 0.9643                 1.1664
 IR Inten    --      1.1456                 3.5421                 5.9241

                     40                     41                     42
                      A                      A                      A
 Frequencies --    972.5854               989.2968              1012.9170
 Red. masses --      2.2967                 1.7871                 1.7691
 Frc consts  --      1.2800                 1.0305                 1.0694
 IR Inten    --      5.5782                 0.3922                 1.2191

                     43                     44                     45
                      A                      A                      A
 Frequencies --   1026.9400              1035.6068              1050.9881
 Red. masses --      2.3371                 1.7832                 1.8304
 Frc consts  --      1.4522                 1.1268                 1.1912
 IR Inten    --      2.6424                 3.2644                 7.9760

                     46                     47                     48
                      A                      A                      A
 Frequencies --   1052.3699              1074.4585              1088.2876
 Red. masses --      2.3716                 2.1093                 1.7793
 Frc consts  --      1.5475                 1.4347                 1.2416
 IR Inten    --      6.8951                 3.5535                19.0697

                     49                     50                     51
                      A                      A                      A
 Frequencies --   1093.9262              1108.5840              1121.2500
 Red. masses --      1.9583                 1.9482                 2.3427
 Frc consts  --      1.3807                 1.4107                 1.7353
 IR Inten    --     11.1530                 2.5358                10.6117

                     52                     53                     54
                      A                      A                      A
 Frequencies --   1128.7131              1137.1688              1150.2900
 Red. masses --      2.7548                 2.5881                 2.2073
 Frc consts  --      2.0678                 1.9719                 1.7207
 IR Inten    --     41.1265                56.1836                51.7966

                     55                     56                     57
                      A                      A                      A
 Frequencies --   1165.1353              1175.2157              1202.4754
 Red. masses --      1.9792                 2.5871                 1.7443
 Frc consts  --      1.5830                 2.1052                 1.4860
 IR Inten    --     15.1937                 3.4114                 3.3681

                     58                     59                     60
                      A                      A                      A
 Frequencies --   1226.6280              1238.3012              1272.8047
 Red. masses --      1.2043                 1.3158                 1.1687
 Frc consts  --      1.0676                 1.1887                 1.1156
 IR Inten    --      0.7208                 1.2470                 7.0801

                     61                     62                     63
                      A                      A                      A
 Frequencies --   1282.2961              1285.7577              1315.3292
 Red. masses --      1.1873                 1.2122                 1.2171
 Frc consts  --      1.1502                 1.1807                 1.2406
 IR Inten    --      1.3360                 0.7165                 0.5901

                     64                     65                     66
                      A                      A                      A
 Frequencies --   1316.8585              1318.8730              1335.1457
 Red. masses --      1.1766                 1.2233                 1.2204
 Frc consts  --      1.2021                 1.2537                 1.2817
 IR Inten    --      1.0318                 5.2212                 2.1164

                     67                     68                     69
                      A                      A                      A
 Frequencies --   1341.1300              1349.8106              1363.5566
 Red. masses --      1.1098                 1.2738                 1.2302
 Frc consts  --      1.1761                 1.3674                 1.3476
 IR Inten    --      1.4296                 3.3755                 4.8458

                     70                     71                     72
                      A                      A                      A
 Frequencies --   1369.6583              1377.6508              1384.9083
 Red. masses --      1.2179                 1.3125                 1.3331
 Frc consts  --      1.3462                 1.4677                 1.5064
 IR Inten    --     29.7292                 4.2627                 1.5927

                     73                     74                     75
                      A                      A                      A
 Frequencies --   1385.0885              1392.3688              1393.7540
 Red. masses --      1.3931                 1.4212                 1.4028
 Frc consts  --      1.5746                 1.6233                 1.6055
 IR Inten    --      3.8423                 3.1477                 0.8745

                     76                     77                     78
                      A                      A                      A
 Frequencies --   1396.6822              1402.3899              1403.7896
 Red. masses --      1.3392                 1.3732                 1.2827
 Frc consts  --      1.5392                 1.5912                 1.4893
 IR Inten    --      1.1159                10.2380                 5.7894

                     79                     80                     81
                      A                      A                      A
 Frequencies --   1415.9815              1419.6756              1432.7763
 Red. masses --      1.2995                 1.2410                 1.3741
 Frc consts  --      1.5351                 1.4736                 1.6620
 IR Inten    --      4.3917                 8.8020                 3.1945

                     82                     83                     84
                      A                      A                      A
 Frequencies --   1468.7907              1478.9413              1481.1671
 Red. masses --      1.0899                 1.0721                 1.0752
 Frc consts  --      1.3853                 1.3816                 1.3898
 IR Inten    --      3.2861                 3.8282                 2.4601

                     85                     86                     87
                      A                      A                      A
 Frequencies --   1486.2851              1487.2178              1488.9407
 Red. masses --      1.0795                 1.0901                 1.0600
 Frc consts  --      1.4050                 1.4206                 1.3845
 IR Inten    --      2.6837                 3.5963                 1.9973

                     88                     89                     90
                      A                      A                      A
 Frequencies --   1495.4301              1496.8614              1497.1246
 Red. masses --      1.0678                 1.0483                 1.0560
 Frc consts  --      1.4069                 1.3839                 1.3946
 IR Inten    --      4.0960                 3.6922                 2.0047

                     91                     92                     93
                      A                      A                      A
 Frequencies --   1502.3344              1503.7082              1505.8092
 Red. masses --      1.0840                 1.0565                 1.0653
 Frc consts  --      1.4415                 1.4074                 1.4232
 IR Inten    --      2.0394                 2.4151                 4.0961

                     94                     95                     96
                      A                      A                      A
 Frequencies --   1511.0771              1521.1268              2948.0919
 Red. masses --      1.0508                 1.0874                 1.0567
 Frc consts  --      1.4136                 1.4824                 5.4111
 IR Inten    --      4.2156                 4.1686                38.4819

                     97                     98                     99
                      A                      A                      A
 Frequencies --   2977.3154              2990.5427              2999.9072
 Red. masses --      1.1005                 1.0823                 1.0832
 Frc consts  --      5.7478                 5.7028                 5.7433
 IR Inten    --     49.8558                16.0716                18.2012

                    100                    101                    102
                      A                      A                      A
 Frequencies --   3004.5447              3006.1895              3007.9117
 Red. masses --      1.0703                 1.0640                 1.0671
 Frc consts  --      5.6926                 5.6655                 5.6883
 IR Inten    --      1.5851                12.3700                41.7287

                    103                    104                    105
                      A                      A                      A
 Frequencies --   3014.0812              3016.4310              3018.3203
 Red. masses --      1.0629                 1.0624                 1.0799
 Frc consts  --      5.6895                 5.6952                 5.7966
 IR Inten    --     11.2004                26.4224                15.8069

                    106                    107                    108
                      A                      A                      A
 Frequencies --   3021.9361              3026.7155              3031.4406
 Red. masses --      1.0645                 1.0377                 1.0363
 Frc consts  --      5.7273                 5.6009                 5.6107
 IR Inten    --     34.4134                35.3546                20.3470

                    109                    110                    111
                      A                      A                      A
 Frequencies --   3041.6739              3043.5149              3044.6472
 Red. masses --      1.0581                 1.0831                 1.0649
 Frc consts  --      5.7675                 5.9108                 5.8160
 IR Inten    --     20.5304                61.6515                17.2736

                    112                    113                    114
                      A                      A                      A
 Frequencies --   3049.1228              3049.9514              3057.5309
 Red. masses --      1.0975                 1.0954                 1.0989
 Frc consts  --      6.0117                 6.0037                 6.0528
 IR Inten    --     57.4580                57.2022                33.9304

                    115                    116                    117
                      A                      A                      A
 Frequencies --   3064.2295              3090.5401              3096.3866
 Red. masses --      1.1000                 1.1003                 1.1013
 Frc consts  --      6.0855                 6.1919                 6.2209
 IR Inten    --     73.7899                44.6140                27.9245

                    118                    119                    120
                      A                      A                      A
 Frequencies --   3097.9766              3101.8712              3109.3444
 Red. masses --      1.0997                 1.1006                 1.1021
 Frc consts  --      6.2186                 6.2394                 6.2779
 IR Inten    --     40.9939                26.3188                29.1677

                    121                    122                    123
                      A                      A                      A
 Frequencies --   3114.4446              3122.2600              3156.1816
 Red. masses --      1.0911                 1.0991                 1.0850
 Frc consts  --      6.2356                 6.3128                 6.3678
 IR Inten    --     10.4743                40.2109                14.7458

 - Thermochemistry -
 -------------------
 Temperature   298.150 Kelvin.  Pressure   1.00000 Atm.
 Atom     1 has atomic number  6 and mass  12.00000

 Molecular mass:   212.21402 amu.
 Principal axes and moments of inertia in atomic units:
                           1         2         3
     Eigenvalues --  2429.736214194.477315878.61235
           X            1.00000  -0.00068  -0.00004
           Y            0.00068   1.00000  -0.00175
           Z            0.00004   0.00175   1.00000
 This molecule is an asymmetric top.
 Rotational symmetry number  1.
 Warning -- assumption of classical behavior for rotation
           may cause significant error
 Rotational temperatures (Kelvin)      0.03565     0.02065     0.01473
 Rotational constants (GHZ):           0.74277     0.43027     0.30700
 Zero-point vibrational energy    1052894.8 (Joules/Mol)
                                  251.64789 (Kcal/Mol)
 Warning -- explicit consideration of  27 degrees of freedom as
           vibrations may cause significant error
 Vibrational temperatures:     23.82   108.12   120.56   148.05   162.42
          (Kelvin)            219.73   259.07   263.42   279.27   305.90
                              336.00   359.83   374.87   381.27   404.14
                              417.85   447.23   460.95   494.43   524.31
                              594.26   635.86   666.36   725.53   744.09
                              755.63   816.96  1014.04  1049.72  1125.15
                             1159.64  1180.92  1233.89  1240.53  1265.80
                             1286.69  1296.76  1346.42  1373.42  1399.33
                             1423.38  1457.36  1477.54  1490.01  1512.14
                             1514.13  1545.91  1565.80  1573.92  1595.01
                             1613.23  1623.97  1636.13  1655.01  1676.37
                             1690.87  1730.09  1764.84  1781.64  1831.28
                             1844.94  1849.92  1892.47  1894.67  1897.56
                             1920.98  1929.59  1942.08  1961.85  1970.63
                             1982.13  1992.57  1992.83  2003.31  2005.30
                             2009.51  2017.73  2019.74  2037.28  2042.60
                             2061.45  2113.26  2127.87  2131.07  2138.43
                             2139.77  2142.25  2151.59  2153.65  2154.03
                             2161.52  2163.50  2166.52  2174.10  2188.56
                             4241.65  4283.69  4302.72  4316.20  4322.87
                             4325.24  4327.71  4336.59  4339.97  4342.69
                             4347.89  4354.77  4361.57  4376.29  4378.94
                             4380.57  4387.01  4388.20  4399.10  4408.74
                             4446.60  4455.01  4457.30  4462.90  4473.65
                             4480.99  4492.24  4541.04

 Zero-point correction=                           0.401026 (Hartree/Particle)
 Thermal correction to Energy=                    0.418258
 Thermal correction to Enthalpy=                  0.419202
 Thermal correction to Gibbs Free Energy=         0.356891
 Sum of electronic and zero-point Energies=           -625.216238
 Sum of electronic and thermal Energies=              -625.199007
 Sum of electronic and thermal Enthalpies=            -625.198063
 Sum of electronic and thermal Free Energies=         -625.260374

                     E (Thermal)             CV                S
                      KCal/Mol        Cal/Mol-Kelvin    Cal/Mol-Kelvin
 Total                  262.461             67.312            131.145
 Electronic               0.000              0.000              0.000
 Translational            0.889              2.981             41.961
 Rotational               0.889              2.981             32.460
 Vibrational            260.684             61.350             56.724
 Vibration     1          0.593              1.986              7.009
 Vibration     2          0.599              1.966              4.014
 Vibration     3          0.601              1.960              3.800
 Vibration     4          0.605              1.947              3.399
 Vibration     5          0.607              1.939              3.219
 Vibration     6          0.619              1.900              2.638
 Vibration     7          0.629              1.867              2.328
 Vibration     8          0.631              1.863              2.297
 Vibration     9          0.635              1.848              2.188
 Vibration    10          0.644              1.822              2.021
 Vibration    11          0.654              1.790              1.852
 Vibration    12          0.663              1.763              1.730
 Vibration    13          0.669              1.745              1.658
 Vibration    14          0.671              1.737              1.629
 Vibration    15          0.681              1.709              1.528
 Vibration    16          0.686              1.692              1.472
 Vibration    17          0.700              1.653              1.358
 Vibration    18          0.706              1.635              1.308
 Vibration    19          0.722              1.588              1.195
 Vibration    20          0.738              1.546              1.103
 Vibration    21          0.777              1.442              0.916
 Vibration    22          0.802              1.379              0.821
 Vibration    23          0.821              1.332              0.757
 Vibration    24          0.860              1.241              0.648
 Vibration    25          0.872              1.212              0.617
 Vibration    26          0.880              1.194              0.598
 Vibration    27          0.924              1.101              0.508

                           ! Non-Optimized Parameters !
 Normal termination of Gaussian 16 at Tue May 23 16:53:09 2023.
