 Gaussian 16, Revision A.03,
 Gaussian 16:  ES64L-G16RevA.03 25-Dec-2016

 -----------------------------
 # opt freq b3lyp/6-31g(2df,p)
 -----------------------------

 -------------------
 Title Card Required
 -------------------
 Symbolic Z-matrix:
 Charge =  0 Multiplicity = 1

 SCF Done:  E(RB3LYP) =  -312.885383809     A.U. after   14 cycles
 SCF Done:  E(RB3LYP) =  -312.969991387     A.U. after   13 cycles
 SCF Done:  E(RB3LYP) =  -313.060462711     A.U. after   13 cycles
 SCF Done:  E(RB3LYP) =  -313.137411135     A.U. after   12 cycles
 SCF Done:  E(RB3LYP) =  -313.230346868     A.U. after   12 cycles
 SCF Done:  E(RB3LYP) =  -313.257047690     A.U. after   11 cycles
 SCF Done:  E(RB3LYP) =  -313.271812337     A.U. after   11 cycles
 SCF Done:  E(RB3LYP) =  -313.275925620     A.U. after   10 cycles
 SCF Done:  E(RB3LYP) =  -313.277609405     A.U. after   10 cycles
 SCF Done:  E(RB3LYP) =  -313.277917205     A.U. after    9 cycles
 SCF Done:  E(RB3LYP) =  -313.277971163     A.U. after    8 cycles
 SCF Done:  E(RB3LYP) =  -313.277984258     A.U. after    8 cycles
 SCF Done:  E(RB3LYP) =  -313.277990674     A.U. after    8 cycles
 SCF Done:  E(RB3LYP) =  -313.277992535     A.U. after    6 cycles
 SCF Done:  E(RB3LYP) =  -313.277992883     A.U. after    6 cycles
 Optimization completed.
    -- Stationary point found.
 Normal termination of Gaussian 16 at Sun May 28 13:59:29 2023.

 ----------------------------------------------------------------------
 #N Geom=AllCheck Guess=TCheck SCRF=Check GenChk RB3LYP/6-31G(2df,p) Fr
 eq
 ----------------------------------------------------------------------

 Structure from the checkpoint file:  "CC1CC2CC1C2C.chk"
 -------------------
 Title Card Required
 -------------------
 Charge =  0 Multiplicity = 1

                         Standard orientation:
 ---------------------------------------------------------------------
 Center     Atomic      Atomic             Coordinates (Angstroms)
 Number     Number       Type             X           Y           Z
 ---------------------------------------------------------------------
      1          6           0        2.525202   -0.505532   -0.305378
      2          6           0        1.297163   -0.095816    0.505748
      3          6           0        0.097847   -1.103373    0.455450
      4          6           0       -1.031198   -0.162598   -0.024981
      5          6           0       -2.414075   -0.750338   -0.186938
      6          6           0       -0.754382    1.109067    0.839541
      7          6           0        0.551188    1.160970   -0.001395
      8          6           0       -0.309904    0.609846   -1.173169
      9          1           0        2.956057   -1.436626    0.078930
     10          1           0        3.304199    0.263841   -0.259739
     11          1           0        2.280585   -0.668813   -1.360372
     12          1           0        1.610541    0.065228    1.544220
     13          1           0       -0.123695   -1.550160    1.430286
     14          1           0        0.273705   -1.921492   -0.252424
     15          1           0       -2.413386   -1.567973   -0.917612
     16          1           0       -2.785005   -1.157559    0.761172
     17          1           0       -3.131732    0.002744   -0.529943
     18          1           0       -1.443354    1.926111    0.608778
     19          1           0       -0.664516    0.986842    1.924424
     20          1           0        1.135861    2.077114   -0.099269
     21          1           0        0.176941    0.029190   -1.962616
     22          1           0       -0.947250    1.378193   -1.619107
 ---------------------------------------------------------------------

 SCF Done:  E(RB3LYP) =  -313.277992883     A.U. after    1 cycles

 The electronic state is 1-A.
 Alpha  occ. eigenvalues --  -10.18830 -10.18052 -10.17901 -10.17225 -10.17201
 Alpha  occ. eigenvalues --  -10.16975 -10.16842 -10.16725  -0.88232  -0.75345
 Alpha  occ. eigenvalues --   -0.72274  -0.67571  -0.65163  -0.61816  -0.53058
 Alpha  occ. eigenvalues --   -0.52583  -0.46903  -0.46228  -0.44273  -0.41575
 Alpha  occ. eigenvalues --   -0.39693  -0.39420  -0.37920  -0.35819  -0.35096
 Alpha  occ. eigenvalues --   -0.33848  -0.31767  -0.29915  -0.29414  -0.28852
 Alpha  occ. eigenvalues --   -0.28555
 Alpha virt. eigenvalues --    0.08768   0.10351   0.12536   0.13109   0.13980
 Alpha virt. eigenvalues --    0.14687   0.15978   0.16426   0.16560   0.17432
 Alpha virt. eigenvalues --    0.18051   0.18989   0.19319   0.20808   0.20953

 Mulliken charges:
               1
     1  C   -0.416117
     2  C    0.056035
     3  C   -0.261589
     4  C    0.359988
     5  C   -0.497197
     6  C   -0.262096
     7  C   -0.019376
     8  C   -0.259074
     9  H    0.111365
    10  H    0.108938
    11  H    0.113501
    12  H    0.062869
    13  H    0.087909
    14  H    0.087814
    15  H    0.112342
    16  H    0.112197
    17  H    0.109544
    18  H    0.087870
    19  H    0.080676
    20  H    0.051135
    21  H    0.084131
    22  H    0.089136
 Sum of Mulliken charges =  -0.00000

 Dipole moment (field-independent basis, Debye):
    X=             -0.0618    Y=             -0.0052    Z=              0.0443  Tot=              0.0762
 Quadrupole moment (field-independent basis, Debye-Ang):
   XX=            -51.9725   YY=            -51.3973   ZZ=            -51.2922
   XY=             -0.2352   XZ=              0.2785   YZ=             -0.1267

  Exact polarizability:  90.642  -0.526  78.687  -0.130  -0.248  75.630
 Approx polarizability: 116.487  -0.790 115.668   0.015   0.103 116.548

                      1                      2                      3
                      A                      A                      A
 Frequencies --    166.0400               217.7906               223.0877
 Red. masses --      2.3922                 1.0432                 1.0994
 Frc consts  --      0.0389                 0.0292                 0.0322
 IR Inten    --      0.0192                 0.0096                 0.0063

                      4                      5                      6
                      A                      A                      A
 Frequencies --    244.2183               308.4794               345.8767
 Red. masses --      2.1493                 2.2640                 2.2603
 Frc consts  --      0.0755                 0.1269                 0.1593
 IR Inten    --      0.0568                 0.0079                 0.0757

                      7                      8                      9
                      A                      A                      A
 Frequencies --    421.4974               470.3722               512.8488
 Red. masses --      1.7768                 2.6734                 1.7873
 Frc consts  --      0.1860                 0.3485                 0.2770
 IR Inten    --      0.0924                 0.2490                 0.0165

                     10                     11                     12
                      A                      A                      A
 Frequencies --    581.2964               663.2828               795.6645
 Red. masses --      2.9701                 3.0866                 2.5701
 Frc consts  --      0.5913                 0.8001                 0.9586
 IR Inten    --      0.8335                 0.0510                 0.1072

                     13                     14                     15
                      A                      A                      A
 Frequencies --    821.5412               833.8944               868.6617
 Red. masses --      2.5989                 3.2986                 1.9665
 Frc consts  --      1.0335                 1.3515                 0.8743
 IR Inten    --      0.1847                 1.2538                 0.0938

                     16                     17                     18
                      A                      A                      A
 Frequencies --    897.8064               918.6541               929.4277
 Red. masses --      2.0934                 1.4106                 1.9568
 Frc consts  --      0.9942                 0.7014                 0.9959
 IR Inten    --      0.2329                 0.4727                 0.0965

                     19                     20                     21
                      A                      A                      A
 Frequencies --    967.0166               984.2665              1010.7726
 Red. masses --      1.7598                 1.5276                 1.1358
 Frc consts  --      0.9696                 0.8720                 0.6837
 IR Inten    --      0.6139                 0.1008                 0.4820

                     22                     23                     24
                      A                      A                      A
 Frequencies --   1038.7153              1050.2402              1062.9948
 Red. masses --      1.5506                 1.5670                 1.1783
 Frc consts  --      0.9857                 1.0183                 0.7845
 IR Inten    --      1.3854                 2.1798                 0.6780

                     25                     26                     27
                      A                      A                      A
 Frequencies --   1088.9362              1128.1475              1161.7228
 Red. masses --      1.5223                 1.4605                 1.8078
 Frc consts  --      1.0636                 1.0952                 1.4375
 IR Inten    --      3.2389                 0.1913                 0.5356

                     28                     29                     30
                      A                      A                      A
 Frequencies --   1172.0492              1196.4844              1226.1622
 Red. masses --      2.0072                 1.7082                 1.4434
 Frc consts  --      1.6245                 1.4408                 1.2786
 IR Inten    --      0.1051                 0.0913                 0.2212

                     31                     32                     33
                      A                      A                      A
 Frequencies --   1242.8622              1257.2369              1261.0133
 Red. masses --      1.5249                 1.9131                 1.7552
 Frc consts  --      1.3878                 1.7816                 1.6445
 IR Inten    --      2.0247                 1.2600                 0.5220

                     34                     35                     36
                      A                      A                      A
 Frequencies --   1286.2886              1322.2133              1347.4470
 Red. masses --      1.9514                 1.5238                 1.9855
 Frc consts  --      1.9023                 1.5695                 2.1239
 IR Inten    --      4.7690                 1.4989                 8.2060

                     37                     38                     39
                      A                      A                      A
 Frequencies --   1380.4279              1411.1394              1413.6139
 Red. masses --      1.4838                 1.2466                 1.3468
 Frc consts  --      1.6659                 1.4626                 1.5857
 IR Inten    --      8.5560                 2.6846                 1.8569

                     40                     41                     42
                      A                      A                      A
 Frequencies --   1484.6082              1489.8744              1493.9415
 Red. masses --      1.0879                 1.0726                 1.0491
 Frc consts  --      1.4127                 1.4028                 1.3796
 IR Inten    --      0.2338                 0.3467                 3.8944

                     43                     44                     45
                      A                      A                      A
 Frequencies --   1495.6996              1499.4449              1500.3203
 Red. masses --      1.0588                 1.0550                 1.0593
 Frc consts  --      1.3955                 1.3975                 1.4048
 IR Inten    --      5.0192                 3.2496                 2.4796

                     46                     47                     48
                      A                      A                      A
 Frequencies --   1527.2259              3018.6697              3021.9647
 Red. masses --      1.1408                 1.0368                 1.0814
 Frc consts  --      1.5677                 5.5667                 5.8184
 IR Inten    --      1.0775                25.4376                23.1937

                     49                     50                     51
                      A                      A                      A
 Frequencies --   3025.4219              3032.7590              3037.5527
 Red. masses --      1.0370                 1.0589                 1.0581
 Frc consts  --      5.5923                 5.7384                 5.7522
 IR Inten    --     26.4975                48.3163                63.6313

                     52                     53                     54
                      A                      A                      A
 Frequencies --   3049.0596              3075.2186              3081.2509
 Red. masses --      1.0578                 1.1047                 1.1003
 Frc consts  --      5.7942                 6.1553                 6.1551
 IR Inten    --     15.7435                17.4278                35.1708

                     55                     56                     57
                      A                      A                      A
 Frequencies --   3088.9710              3089.8269              3095.0682
 Red. masses --      1.1011                 1.1009                 1.1017
 Frc consts  --      6.1901                 6.1925                 6.2180
 IR Inten    --     11.6187                24.1975                18.1701

                     58                     59                     60
                      A                      A                      A
 Frequencies --   3098.1761              3101.3595              3106.9299
 Red. masses --      1.0943                 1.1049                 1.1032
 Frc consts  --      6.1889                 6.2613                 6.2746
 IR Inten    --     65.1974                45.4781                65.6678

 - Thermochemistry -
 -------------------
 Temperature   298.150 Kelvin.  Pressure   1.00000 Atm.
 Atom     1 has atomic number  6 and mass  12.00000

 Molecular mass:   110.10955 amu.
 Principal axes and moments of inertia in atomic units:
                           1         2         3
     Eigenvalues --   480.981441064.726491182.22021
           X            0.99999  -0.00306  -0.00415
           Y            0.00309   0.99997   0.00726
           Z            0.00413  -0.00728   0.99997
 This molecule is an asymmetric top.
 Rotational symmetry number  1.
 Warning -- assumption of classical behavior for rotation
           may cause significant error
 Rotational temperatures (Kelvin)      0.18008     0.08135     0.07326
 Rotational constants (GHZ):           3.75221     1.69503     1.52657
 Zero-point vibrational energy     530206.1 (Joules/Mol)
                                  126.72229 (Kcal/Mol)
 Warning -- explicit consideration of  10 degrees of freedom as
           vibrations may cause significant error
 Vibrational temperatures:    238.89   313.35   320.97   351.38   443.83
          (Kelvin)            497.64   606.44   676.76   737.87   836.36
                              954.32  1144.78  1182.01  1199.79  1249.81
                             1291.74  1321.74  1337.24  1391.32  1416.14
                             1454.28  1494.48  1511.06  1529.41  1566.74
                             1623.15  1671.46  1686.32  1721.47  1764.17
                             1788.20  1808.88  1814.32  1850.68  1902.37
                             1938.68  1986.13  2030.31  2033.88  2136.02
                             2143.60  2149.45  2151.98  2157.37  2158.63
                             2197.34  4343.19  4347.93  4352.91  4363.46
                             4370.36  4386.92  4424.55  4433.23  4444.34
                             4445.57  4453.11  4457.58  4462.16  4470.18

 Zero-point correction=                           0.201945 (Hartree/Particle)
 Thermal correction to Energy=                    0.209661
 Thermal correction to Enthalpy=                  0.210606
 Thermal correction to Gibbs Free Energy=         0.170708
 Sum of electronic and zero-point Energies=           -313.076048
 Sum of electronic and thermal Energies=              -313.068331
 Sum of electronic and thermal Enthalpies=            -313.067387
 Sum of electronic and thermal Free Energies=         -313.107285

                     E (Thermal)             CV                S
                      KCal/Mol        Cal/Mol-Kelvin    Cal/Mol-Kelvin
 Total                  131.565             31.595             83.972
 Electronic               0.000              0.000              0.000
 Translational            0.889              2.981             40.005
 Rotational               0.889              2.981             27.895
 Vibrational            129.787             25.634             16.072
 Vibration     1          0.624              1.884              2.480
 Vibration     2          0.646              1.814              1.977
 Vibration     3          0.649              1.806              1.934
 Vibration     4          0.660              1.772              1.772
 Vibration     5          0.698              1.658              1.370
 Vibration     6          0.724              1.584              1.185
 Vibration     7          0.784              1.424              0.887
 Vibration     8          0.827              1.316              0.737
 Vibration     9          0.868              1.222              0.627
 Vibration    10          0.938              1.072              0.483

 Optimization completed.
    -- Stationary point found.
 Normal termination of Gaussian 16 at Sun May 28 14:30:36 2023.
