 Gaussian 16, Revision A.03,
 Gaussian 16:  ES64L-G16RevA.03 25-Dec-2016

 -----------------------------
 # opt freq b3lyp/6-31g(2df,p)
 -----------------------------

 -------------------
 Title Card Required
 -------------------
 Symbolic Z-matrix:
 Charge =  0 Multiplicity = 1

 SCF Done:  E(RB3LYP) =  -702.767811720     A.U. after   13 cycles
 SCF Done:  E(RB3LYP) =  -702.827139224     A.U. after   11 cycles
 SCF Done:  E(RB3LYP) =  -702.889937522     A.U. after   11 cycles
 SCF Done:  E(RB3LYP) =  -702.933475793     A.U. after   11 cycles
 SCF Done:  E(RB3LYP) =  -702.957640740     A.U. after   11 cycles
 SCF Done:  E(RB3LYP) =  -702.968573743     A.U. after   10 cycles
 SCF Done:  E(RB3LYP) =  -702.975190170     A.U. after   10 cycles
 SCF Done:  E(RB3LYP) =  -702.977224848     A.U. after   10 cycles
 SCF Done:  E(RB3LYP) =  -702.978179938     A.U. after   10 cycles
 SCF Done:  E(RB3LYP) =  -702.979000087     A.U. after   10 cycles
 SCF Done:  E(RB3LYP) =  -702.980523807     A.U. after    8 cycles
 SCF Done:  E(RB3LYP) =  -702.980528675     A.U. after    8 cycles
 SCF Done:  E(RB3LYP) =  -702.980519104     A.U. after    8 cycles
 SCF Done:  E(RB3LYP) =  -702.980534165     A.U. after    8 cycles
 SCF Done:  E(RB3LYP) =  -702.980534715     A.U. after    8 cycles
 SCF Done:  E(RB3LYP) =  -702.980535147     A.U. after    8 cycles
 SCF Done:  E(RB3LYP) =  -702.980537515     A.U. after    7 cycles
 SCF Done:  E(RB3LYP) =  -702.980537924     A.U. after    6 cycles
 SCF Done:  E(RB3LYP) =  -702.980537957     A.U. after    5 cycles
 Optimization completed.
    -- Stationary point found.
 Normal termination of Gaussian 16 at Tue May 23 13:51:42 2023.

 ----------------------------------------------------------------------
 #N Geom=AllCheck Guess=TCheck SCRF=Check GenChk RB3LYP/6-31G(2df,p) Fr
 eq
 ----------------------------------------------------------------------

 Structure from the checkpoint file:  "CC1CCC2CCqCCCC1CCCCOrC2.chk"
 -------------------
 Title Card Required
 -------------------
 Charge =  0 Multiplicity = 1

                         Standard orientation:
 ---------------------------------------------------------------------
 Center     Atomic      Atomic             Coordinates (Angstroms)
 Number     Number       Type             X           Y           Z
 ---------------------------------------------------------------------
      1          6           0        1.455941    0.493330    2.535552
      2          6           0        0.310636    0.535883    1.513142
      3          6           0        0.475098    1.648576    0.403790
      4          6           0        1.829828    2.332851    0.035834
      5          6           0        2.793824    1.719771   -1.021087
      6          6           0        3.754766    0.626417   -0.466561
      7          6           0        2.609244   -0.366362   -0.760979
      8          6           0        2.689198   -1.871455   -0.901576
      9          6           0        1.306177   -2.463129   -0.572231
     10          6           0        0.785188   -2.109508    0.852139
     11          6           0       -0.200063   -0.914984    1.124101
     12          6           0       -1.344580   -0.904781    0.091526
     13          6           0       -2.584995   -0.094349    0.492978
     14          6           0       -3.743237   -0.248188   -0.499678
     15          6           0       -4.975744    0.570399   -0.114632
     16          8           0       -6.068825    0.382693   -1.000352
     17          6           0        2.156179    0.595251   -1.886032
     18          1           0        1.621812    1.482861    2.974077
     19          1           0        2.406337    0.163651    2.107271
     20          1           0        1.210678   -0.190322    3.355875
     21          1           0       -0.546162    0.904225    2.088848
     22          1           0       -0.150247    2.480191    0.749216
     23          1           0       -0.006500    1.317109   -0.519764
     24          1           0        2.398612    2.548127    0.948728
     25          1           0        1.538040    3.315273   -0.353925
     26          1           0        3.276456    2.536912   -1.563931
     27          1           0        4.108843    0.719426    0.565194
     28          1           0        4.615844    0.485526   -1.129225
     29          1           0        1.917400   -0.197849    0.054593
     30          1           0        3.425780   -2.272202   -0.191288
     31          1           0        3.019767   -2.178370   -1.901666
     32          1           0        1.356496   -3.555121   -0.651072
     33          1           0        0.583390   -2.145653   -1.332841
     34          1           0        1.642553   -2.031921    1.532143
     35          1           0        0.230898   -2.989503    1.199487
     36          1           0       -0.667959   -1.227689    2.069715
     37          1           0       -1.655176   -1.944859   -0.076813
     38          1           0       -0.984035   -0.548730   -0.881651
     39          1           0       -2.331693    0.968969    0.583671
     40          1           0       -2.918624   -0.414254    1.490286
     41          1           0       -4.036312   -1.302107   -0.582266
     42          1           0       -3.409052    0.060262   -1.501737
     43          1           0       -4.706771    1.636797   -0.032447
     44          1           0       -5.340124    0.257770    0.870574
     45          1           0       -5.788668    0.671755   -1.874609
     46          1           0        1.097525    0.656667   -2.150357
     47          1           0        2.736733    0.433174   -2.800997
 ---------------------------------------------------------------------

 SCF Done:  E(RB3LYP) =  -702.980537957     A.U. after    1 cycles

 The electronic state is 1-A.
 Alpha  occ. eigenvalues --  -19.12909 -10.22160 -10.18637 -10.18567 -10.18158
 Alpha  occ. eigenvalues --  -10.18020 -10.17797 -10.17760 -10.17732 -10.17640
 Alpha  occ. eigenvalues --  -10.17556 -10.17311 -10.17124 -10.17058 -10.17041
 Alpha  occ. eigenvalues --  -10.16950 -10.16909  -1.00992  -0.85263  -0.81808
 Alpha  occ. eigenvalues --   -0.78369  -0.78293  -0.73654  -0.72383  -0.69863
 Alpha  occ. eigenvalues --   -0.66442  -0.64846  -0.63292  -0.61312  -0.60561
 Alpha  occ. eigenvalues --   -0.58579  -0.55421  -0.53308  -0.51119  -0.49947
 Alpha  occ. eigenvalues --   -0.48640  -0.46610  -0.46556  -0.45208  -0.44287
 Alpha  occ. eigenvalues --   -0.43596  -0.43291  -0.41641  -0.41177  -0.40736
 Alpha  occ. eigenvalues --   -0.39679  -0.38815  -0.38200  -0.36944  -0.36715
 Alpha  occ. eigenvalues --   -0.36243  -0.35601  -0.34570  -0.34219  -0.34077
 Alpha  occ. eigenvalues --   -0.33501  -0.33163  -0.32155  -0.31776  -0.30345
 Alpha  occ. eigenvalues --   -0.30147  -0.30016  -0.29620  -0.28777  -0.28289
 Alpha  occ. eigenvalues --   -0.27047  -0.25991
 Alpha virt. eigenvalues --    0.06281   0.07758   0.08463   0.09065   0.09367
 Alpha virt. eigenvalues --    0.10790   0.11352   0.11630   0.13166   0.13506
 Alpha virt. eigenvalues --    0.13997   0.14216   0.14276   0.14821   0.15213

 Mulliken charges:
               1
     1  C   -0.419265
     2  C    0.031982
     3  C   -0.216427
     4  C   -0.220559
     5  C    0.007668
     6  C   -0.278815
     7  C    0.152503
     8  C   -0.283444
     9  C   -0.192558
    10  C   -0.234997
    11  C    0.008553
    12  C   -0.195717
    13  C   -0.198152
    14  C   -0.200154
    15  C   -0.057808
    16  O   -0.418998
    17  C   -0.262708
    18  H    0.110073
    19  H    0.128476
    20  H    0.108502
    21  H    0.072861
    22  H    0.092212
    23  H    0.100903
    24  H    0.097058
    25  H    0.095449
    26  H    0.056147
    27  H    0.084973
    28  H    0.087998
    29  H    0.101223
    30  H    0.090530
    31  H    0.083803
    32  H    0.087036
    33  H    0.097433
    34  H    0.095699
    35  H    0.092450
    36  H    0.073646
    37  H    0.090133
    38  H    0.102266
    39  H    0.101418
    40  H    0.094966
    41  H    0.104754
    42  H    0.082481
    43  H    0.082943
    44  H    0.109506
    45  H    0.278724
    46  H    0.087064
    47  H    0.088168
 Sum of Mulliken charges =  -0.00000

 Dipole moment (field-independent basis, Debye):
    X=              1.1408    Y=              0.4607    Z=             -0.1751  Tot=              1.2427
 Quadrupole moment (field-independent basis, Debye-Ang):
   XX=           -127.5154   YY=           -108.5366   ZZ=           -105.8443
   XY=             -1.9031   XZ=              1.3234   YZ=             -1.6038

  Exact polarizability: 190.296   0.702 167.655  -3.715   0.596 158.978
 Approx polarizability: 244.779   1.586 242.257  -1.145  -0.585 245.132

                      1                      2                      3
                      A                      A                      A
 Frequencies --     23.6847                44.4112                60.7136
 Red. masses --      3.7078                 3.5334                 1.9055
 Frc consts  --      0.0012                 0.0041                 0.0041
 IR Inten    --      0.2751                 0.4819                 2.8523

                      4                      5                      6
                      A                      A                      A
 Frequencies --     62.4132                95.7294               109.1716
 Red. masses --      2.8088                 3.2598                 3.0408
 Frc consts  --      0.0064                 0.0176                 0.0214
 IR Inten    --      0.4348                 0.8291                 0.1317

                      7                      8                      9
                      A                      A                      A
 Frequencies --    142.3488               155.2756               171.2630
 Red. masses --      2.8701                 2.0256                 3.0919
 Frc consts  --      0.0343                 0.0288                 0.0534
 IR Inten    --      0.6093                 1.2145                 0.0640

                     10                     11                     12
                      A                      A                      A
 Frequencies --    198.6975               219.0995               231.3753
 Red. masses --      2.7009                 2.8112                 2.8721
 Frc consts  --      0.0628                 0.0795                 0.0906
 IR Inten    --      0.5630                 0.0771                 0.5756

                     13                     14                     15
                      A                      A                      A
 Frequencies --    245.3154               267.2503               278.1898
 Red. masses --      2.3302                 1.6411                 1.4138
 Frc consts  --      0.0826                 0.0691                 0.0645
 IR Inten    --      1.4626                 0.2940                 0.8257

                     16                     17                     18
                      A                      A                      A
 Frequencies --    296.5729               305.6167               318.5314
 Red. masses --      2.1019                 1.2052                 2.2600
 Frc consts  --      0.1089                 0.0663                 0.1351
 IR Inten    --      0.1904                92.3936                 4.2494

                     19                     20                     21
                      A                      A                      A
 Frequencies --    330.1725               367.6957               394.3193
 Red. masses --      2.4497                 1.9047                 2.7266
 Frc consts  --      0.1573                 0.1517                 0.2498
 IR Inten    --      9.9685                 0.0537                 1.6223

                     22                     23                     24
                      A                      A                      A
 Frequencies --    416.0280               437.7685               446.4198
 Red. masses --      3.3518                 2.1114                 2.6142
 Frc consts  --      0.3418                 0.2384                 0.3070
 IR Inten    --      3.5488                 0.2949                 1.0672

                     25                     26                     27
                      A                      A                      A
 Frequencies --    508.6820               509.4752               520.1048
 Red. masses --      2.2712                 2.5884                 2.3841
 Frc consts  --      0.3463                 0.3958                 0.3800
 IR Inten    --      1.9317                 1.1879                 4.8328

                     28                     29                     30
                      A                      A                      A
 Frequencies --    602.8174               622.6879               648.6749
 Red. masses --      2.7547                 2.5363                 2.6875
 Frc consts  --      0.5898                 0.5794                 0.6663
 IR Inten    --      0.3135                 1.4065                 0.3893

                     31                     32                     33
                      A                      A                      A
 Frequencies --    719.4386               741.2219               783.2671
 Red. masses --      2.6744                 1.1065                 1.3553
 Frc consts  --      0.8156                 0.3582                 0.4899
 IR Inten    --      1.1818                 2.2926                 1.0582

                     34                     35                     36
                      A                      A                      A
 Frequencies --    799.8724               818.5936               838.0996
 Red. masses --      1.7806                 1.8803                 1.4551
 Frc consts  --      0.6712                 0.7424                 0.6022
 IR Inten    --      1.0245                 0.6030                 0.6451

                     37                     38                     39
                      A                      A                      A
 Frequencies --    854.1769               871.8894               887.7559
 Red. masses --      1.7649                 2.1017                 1.9524
 Frc consts  --      0.7587                 0.9413                 0.9066
 IR Inten    --      1.2962                 0.4330                 0.9887

                     40                     41                     42
                      A                      A                      A
 Frequencies --    903.7543               921.7554               938.2594
 Red. masses --      2.3930                 1.5721                 2.2069
 Frc consts  --      1.1516                 0.7870                 1.1447
 IR Inten    --      1.9315                 3.5652                 0.7064

                     43                     44                     45
                      A                      A                      A
 Frequencies --    942.2239               960.2151               982.9308
 Red. masses --      1.4868                 2.1156                 2.7029
 Frc consts  --      0.7777                 1.1493                 1.5386
 IR Inten    --      4.3043                 0.7265                 7.6982

                     46                     47                     48
                      A                      A                      A
 Frequencies --    991.0309              1001.5278              1016.5524
 Red. masses --      1.7782                 2.1049                 1.9702
 Frc consts  --      1.0290                 1.2439                 1.1995
 IR Inten    --      5.0223                 4.1195                 0.1496

                     49                     50                     51
                      A                      A                      A
 Frequencies --   1025.6736              1040.2365              1048.1630
 Red. masses --      2.7664                 2.4753                 2.4329
 Frc consts  --      1.7147                 1.5781                 1.5748
 IR Inten    --      6.0767                 5.3463                 2.4852

                     52                     53                     54
                      A                      A                      A
 Frequencies --   1057.2835              1065.4953              1079.6866
 Red. masses --      1.5675                 1.9819                 2.8097
 Frc consts  --      1.0324                 1.3257                 1.9298
 IR Inten    --      6.2160                 1.5424                67.8827

                     55                     56                     57
                      A                      A                      A
 Frequencies --   1083.3849              1093.8369              1105.3031
 Red. masses --      2.0146                 2.0950                 2.5514
 Frc consts  --      1.3932                 1.4769                 1.8365
 IR Inten    --     45.3749                 0.1152                 2.5110

                     58                     59                     60
                      A                      A                      A
 Frequencies --   1123.3259              1135.5510              1141.2065
 Red. masses --      1.4607                 1.4829                 1.8989
 Frc consts  --      1.0860                 1.1266                 1.4571
 IR Inten    --      1.2129                 5.6500                 2.6335

                     61                     62                     63
                      A                      A                      A
 Frequencies --   1173.3457              1180.1160              1190.4175
 Red. masses --      1.7407                 1.5265                 1.7438
 Frc consts  --      1.4120                 1.2525                 1.4560
 IR Inten    --      0.3062                 1.3790                 0.7044

                     64                     65                     66
                      A                      A                      A
 Frequencies --   1194.9265              1217.6531              1234.4106
 Red. masses --      2.1629                 1.3890                 1.2742
 Frc consts  --      1.8195                 1.2134                 1.1440
 IR Inten    --      1.7244                 0.5968                 1.3698

                     67                     68                     69
                      A                      A                      A
 Frequencies --   1250.3317              1263.2062              1271.2487
 Red. masses --      1.2487                 1.3626                 1.4445
 Frc consts  --      1.1502                 1.2811                 1.3754
 IR Inten    --      0.4678                 1.9212                 7.1319

                     70                     71                     72
                      A                      A                      A
 Frequencies --   1272.7487              1283.0124              1288.6142
 Red. masses --      1.4169                 1.5825                 1.2982
 Frc consts  --      1.3523                 1.5348                 1.2701
 IR Inten    --      1.7765                 4.7110                 1.8035

                     73                     74                     75
                      A                      A                      A
 Frequencies --   1306.1465              1319.7983              1323.1779
 Red. masses --      1.2896                 1.1744                 1.1586
 Frc consts  --      1.2962                 1.2053                 1.1952
 IR Inten    --      2.7859                 3.4152                 0.4041

                     76                     77                     78
                      A                      A                      A
 Frequencies --   1327.9503              1336.4164              1346.0751
 Red. masses --      1.1692                 1.2009                 1.2367
 Frc consts  --      1.2148                 1.2637                 1.3203
 IR Inten    --      1.7609                 1.4154                 0.9811

                     79                     80                     81
                      A                      A                      A
 Frequencies --   1353.1359              1361.3826              1366.2281
 Red. masses --      1.2474                 1.3531                 1.3041
 Frc consts  --      1.3457                 1.4775                 1.4342
 IR Inten    --      0.4147                 1.0586                 1.7907

                     82                     83                     84
                      A                      A                      A
 Frequencies --   1371.4427              1379.0348              1384.5652
 Red. masses --      1.2400                 1.3353                 1.3223
 Frc consts  --      1.3741                 1.4962                 1.4935
 IR Inten    --      4.0030                 3.8705                 2.2020

                     85                     86                     87
                      A                      A                      A
 Frequencies --   1392.5909              1395.6846              1399.7338
 Red. masses --      1.3286                 1.2567                 1.2247
 Frc consts  --      1.5181                 1.4423                 1.4138
 IR Inten    --      4.1402                 1.8530                 4.5536

                     88                     89                     90
                      A                      A                      A
 Frequencies --   1401.6392              1410.6342              1420.6905
 Red. masses --      1.4330                 1.2413                 1.2399
 Frc consts  --      1.6587                 1.4553                 1.4745
 IR Inten    --      3.1868                 8.5938                11.2768

                     91                     92                     93
                      A                      A                      A
 Frequencies --   1424.7024              1469.9437              1475.1559
 Red. masses --      1.2918                 1.1523                 1.1246
 Frc consts  --      1.5449                 1.4670                 1.4418
 IR Inten    --     53.2101                 4.3732                 0.1336

                     94                     95                     96
                      A                      A                      A
 Frequencies --   1477.2806              1481.1362              1484.7552
 Red. masses --      1.0782                 1.1010                 1.0796
 Frc consts  --      1.3864                 1.4231                 1.4022
 IR Inten    --      6.1479                 0.6647                 0.8643

                     97                     98                     99
                      A                      A                      A
 Frequencies --   1485.2530              1489.2265              1492.0593
 Red. masses --      1.0814                 1.0862                 1.0817
 Frc consts  --      1.4055                 1.4193                 1.4189
 IR Inten    --      0.2354                 2.7028                 6.0074

                    100                    101                    102
                      A                      A                      A
 Frequencies --   1494.6228              1500.1206              1503.9215
 Red. masses --      1.0928                 1.0582                 1.0880
 Frc consts  --      1.4383                 1.4030                 1.4498
 IR Inten    --      3.7272                 3.5212                 2.2816

                    103                    104                    105
                      A                      A                      A
 Frequencies --   1510.0827              1517.4470              1520.5624
 Red. masses --      1.0637                 1.0989                 1.1278
 Frc consts  --      1.4291                 1.4909                 1.5363
 IR Inten    --      1.9725                 0.3357                 3.0641

                    106                    107                    108
                      A                      A                      A
 Frequencies --   2964.6637              2968.1258              2996.0940
 Red. masses --      1.0710                 1.0824                 1.0655
 Frc consts  --      5.5461                 5.6185                 5.6351
 IR Inten    --     51.5584                11.1603                 8.1975

                    109                    110                    111
                      A                      A                      A
 Frequencies --   3002.4464              3007.6441              3007.7784
 Red. masses --      1.0781                 1.0624                 1.0609
 Frc consts  --      5.7262                 5.6621                 5.6549
 IR Inten    --      2.4565                26.4430                 5.4163

                    112                    113                    114
                      A                      A                      A
 Frequencies --   3014.8864              3018.3962              3020.4796
 Red. masses --      1.0666                 1.0671                 1.0672
 Frc consts  --      5.7119                 5.7283                 5.7365
 IR Inten    --     55.0302                 7.4115                19.2966

                    115                    116                    117
                      A                      A                      A
 Frequencies --   3030.9040              3031.7688              3032.6481
 Red. masses --      1.0509                 1.0602                 1.0586
 Frc consts  --      5.6880                 5.7413                 5.7361
 IR Inten    --     15.3513                21.7480                61.5468

                    118                    119                    120
                      A                      A                      A
 Frequencies --   3037.2736              3039.8406              3040.8770
 Red. masses --      1.0740                 1.0703                 1.0711
 Frc consts  --      5.8377                 5.8273                 5.8354
 IR Inten    --     13.9210                53.7489                19.3693

                    121                    122                    123
                      A                      A                      A
 Frequencies --   3047.2446              3048.2025              3052.5655
 Red. masses --      1.0938                 1.0959                 1.0949
 Frc consts  --      5.9841                 5.9993                 6.0111
 IR Inten    --      4.1999                48.1290                30.3899

                    124                    125                    126
                      A                      A                      A
 Frequencies --   3057.2287              3061.2289              3066.2046
 Red. masses --      1.0965                 1.0958                 1.0883
 Frc consts  --      6.0381                 6.0501                 6.0284
 IR Inten    --     45.8928                35.2692                73.1306

                    127                    128                    129
                      A                      A                      A
 Frequencies --   3069.3343              3074.8345              3083.7044
 Red. masses --      1.1000                 1.1012                 1.1057
 Frc consts  --      6.1058                 6.1343                 6.1946
 IR Inten    --     38.9612               108.1865                21.5618

                    130                    131                    132
                      A                      A                      A
 Frequencies --   3087.3916              3091.6802              3097.5084
 Red. masses --      1.0964                 1.1006                 1.0963
 Frc consts  --      6.1576                 6.1982                 6.1975
 IR Inten    --     60.2621                24.8005                48.1738

                    133                    134                    135
                      A                      A                      A
 Frequencies --   3113.2391              3207.6780              3814.3732
 Red. masses --      1.0985                 1.0777                 1.0661
 Frc consts  --      6.2732                 6.5332                 9.1386
 IR Inten    --     35.0332                10.2238                13.9271

 - Thermochemistry -
 -------------------
 Temperature   298.150 Kelvin.  Pressure   1.00000 Atm.
 Atom     1 has atomic number  6 and mass  12.00000

 Molecular mass:   238.22967 amu.
 Principal axes and moments of inertia in atomic units:
                           1         2         3
     Eigenvalues --  2633.198058147.463848616.69747
           X            1.00000  -0.00059  -0.00057
           Y            0.00060   0.99984   0.01770
           Z            0.00056  -0.01770   0.99984
 This molecule is an asymmetric top.
 Rotational symmetry number  1.
 Warning -- assumption of classical behavior for rotation
           may cause significant error
 Rotational temperatures (Kelvin)      0.03289     0.01063     0.01005
 Rotational constants (GHZ):           0.68538     0.22151     0.20945
 Zero-point vibrational energy    1148002.9 (Joules/Mol)
                                  274.37927 (Kcal/Mol)
 Warning -- explicit consideration of  28 degrees of freedom as
           vibrations may cause significant error
 Vibrational temperatures:     34.08    63.90    87.35    89.80   137.73
          (Kelvin)            157.07   204.81   223.41   246.41   285.88
                              315.24   332.90   352.95   384.51   400.25
                              426.70   439.71   458.30   475.04   529.03
                              567.34   598.57   629.85   642.30   731.88
                              733.02   748.31   867.32   895.91   933.30
                             1035.11  1066.45  1126.95  1150.84  1177.77
                             1205.84  1228.97  1254.45  1277.28  1300.30
                             1326.20  1349.95  1355.65  1381.54  1414.22
                             1425.87  1440.98  1462.59  1475.72  1496.67
                             1508.07  1521.20  1533.01  1553.43  1558.75
                             1573.79  1590.28  1616.22  1633.80  1641.94
                             1688.18  1697.92  1712.75  1719.23  1751.93
                             1776.04  1798.95  1817.47  1829.04  1831.20
                             1845.97  1854.03  1879.25  1898.90  1903.76
                             1910.62  1922.81  1936.70  1946.86  1958.73
                             1965.70  1973.20  1984.12  1992.08  2003.63
                             2008.08  2013.90  2016.65  2029.59  2044.06
                             2049.83  2114.92  2122.42  2125.48  2131.02
                             2136.23  2136.95  2142.66  2146.74  2150.43
                             2158.34  2163.81  2172.67  2183.27  2187.75
                             4265.49  4270.47  4310.71  4319.85  4327.33
                             4327.52  4337.75  4342.80  4345.80  4360.79
                             4362.04  4363.30  4369.96  4373.65  4375.14
                             4384.31  4385.68  4391.96  4398.67  4404.43
                             4411.58  4416.09  4424.00  4436.76  4442.07
                             4448.24  4456.62  4479.26  4615.13  5488.03

 Zero-point correction=                           0.437251 (Hartree/Particle)
 Thermal correction to Energy=                    0.455816
 Thermal correction to Enthalpy=                  0.456760
 Thermal correction to Gibbs Free Energy=         0.390566
 Sum of electronic and zero-point Energies=           -702.543287
 Sum of electronic and thermal Energies=              -702.524722
 Sum of electronic and thermal Enthalpies=            -702.523778
 Sum of electronic and thermal Free Energies=         -702.589972

                     E (Thermal)             CV                S
                      KCal/Mol        Cal/Mol-Kelvin    Cal/Mol-Kelvin
 Total                  286.029             73.132            139.317
 Electronic               0.000              0.000              0.000
 Translational            0.889              2.981             42.306
 Rotational               0.889              2.981             33.580
 Vibrational            284.251             67.170             63.432
 Vibration     1          0.593              1.985              6.298
 Vibration     2          0.595              1.980              5.052
 Vibration     3          0.597              1.973              4.434
 Vibration     4          0.597              1.972              4.379
 Vibration     5          0.603              1.952              3.539
 Vibration     6          0.606              1.942              3.284
 Vibration     7          0.616              1.911              2.772
 Vibration     8          0.620              1.897              2.607
 Vibration     9          0.626              1.878              2.422
 Vibration    10          0.637              1.842              2.145
 Vibration    11          0.647              1.812              1.967
 Vibration    12          0.653              1.793              1.868
 Vibration    13          0.660              1.771              1.764
 Vibration    14          0.672              1.733              1.614
 Vibration    15          0.679              1.714              1.545
 Vibration    16          0.690              1.680              1.436
 Vibration    17          0.696              1.663              1.386
 Vibration    18          0.705              1.638              1.318
 Vibration    19          0.713              1.615              1.259
 Vibration    20          0.740              1.539              1.089
 Vibration    21          0.761              1.482              0.984
 Vibration    22          0.779              1.435              0.906
 Vibration    23          0.798              1.388              0.834
 Vibration    24          0.806              1.369              0.807
 Vibration    25          0.864              1.231              0.637
 Vibration    26          0.865              1.229              0.635
 Vibration    27          0.875              1.205              0.610
 Vibration    28          0.961              1.026              0.445

 Optimization completed.
    -- Stationary point found.
 Normal termination of Gaussian 16 at Tue May 23 20:15:53 2023.
