 Gaussian 16, Revision A.03,
 Gaussian 16:  ES64L-G16RevA.03 25-Dec-2016

 -----------------------------
 # opt freq b3lyp/6-31g(2df,p)
 -----------------------------

 -------------------
 Title Card Required
 -------------------
 Symbolic Z-matrix:
 Charge =  0 Multiplicity = 1

 SCF Done:  E(RB3LYP) =  -311.951793712     A.U. after   12 cycles
 SCF Done:  E(RB3LYP) =  -311.988690769     A.U. after   11 cycles
 SCF Done:  E(RB3LYP) =  -312.014305378     A.U. after   12 cycles
 SCF Done:  E(RB3LYP) =  -312.017475030     A.U. after   10 cycles
 SCF Done:  E(RB3LYP) =  -312.018597079     A.U. after   10 cycles
 SCF Done:  E(RB3LYP) =  -312.019697157     A.U. after   10 cycles
 SCF Done:  E(RB3LYP) =  -312.020343063     A.U. after   10 cycles
 SCF Done:  E(RB3LYP) =  -312.020425278     A.U. after    9 cycles
 SCF Done:  E(RB3LYP) =  -312.020422194     A.U. after    8 cycles
 SCF Done:  E(RB3LYP) =  -312.020432912     A.U. after    7 cycles
 SCF Done:  E(RB3LYP) =  -312.020433306     A.U. after    6 cycles
 SCF Done:  E(RB3LYP) =  -312.020433523     A.U. after    6 cycles
 Optimization completed.
    -- Stationary point found.
 Normal termination of Gaussian 16 at Sun May 28 01:24:13 2023.

 ----------------------------------------------------------------------
 #N Geom=AllCheck Guess=TCheck SCRF=Check GenChk RB3LYP/6-31G(2df,p) Fr
 eq
 ----------------------------------------------------------------------

 Structure from the checkpoint file:  "CC1C2C3CCC2C13.chk"
 -------------------
 Title Card Required
 -------------------
 Charge =  0 Multiplicity = 1

                         Standard orientation:
 ---------------------------------------------------------------------
 Center     Atomic      Atomic             Coordinates (Angstroms)
 Number     Number       Type             X           Y           Z
 ---------------------------------------------------------------------
      1          6           0        2.673497    0.352049    0.000001
      2          6           0        1.425985   -0.519550   -0.000003
      3          6           0        0.226784   -0.213873   -0.938935
      4          6           0       -0.687892   -1.067401   -0.000198
      5          6           0       -2.099919   -0.484557   -0.000000
      6          6           0       -1.754978    1.031689   -0.000027
      7          6           0       -0.227394    0.953405    0.000221
      8          6           0        0.226728   -0.214158    0.938975
      9          1           0        3.289299    0.145480   -0.882799
     10          1           0        3.290049    0.144321    0.881978
     11          1           0        2.445723    1.421422    0.000771
     12          1           0        1.714607   -1.578365   -0.000181
     13          1           0        0.215488   -0.213398   -2.032164
     14          1           0       -0.567138   -2.153047   -0.000334
     15          1           0       -2.672240   -0.788769    0.882441
     16          1           0       -2.672825   -0.788786   -0.882048
     17          1           0       -2.140807    1.553778    0.881777
     18          1           0       -2.140309    1.553532   -0.882209
     19          1           0        0.325963    1.892397    0.000362
     20          1           0        0.215325   -0.214191    2.032205
 ---------------------------------------------------------------------

 SCF Done:  E(RB3LYP) =  -312.020433523     A.U. after    1 cycles

 The electronic state is 1-A.
 Alpha  occ. eigenvalues --  -10.18706 -10.18702 -10.18379 -10.18361 -10.18309
 Alpha  occ. eigenvalues --  -10.17190 -10.17166 -10.16752  -0.91551  -0.77135
 Alpha  occ. eigenvalues --   -0.70886  -0.68328  -0.61897  -0.59244  -0.55758
 Alpha  occ. eigenvalues --   -0.50471  -0.48927  -0.46786  -0.44362  -0.40767
 Alpha  occ. eigenvalues --   -0.40031  -0.37252  -0.36802  -0.32976  -0.32781
 Alpha  occ. eigenvalues --   -0.30263  -0.30070  -0.29246  -0.28787  -0.28207
 Alpha virt. eigenvalues --    0.10431   0.10842   0.13221   0.13410   0.14363
 Alpha virt. eigenvalues --    0.14697   0.14839   0.15207   0.15627   0.17130
 Alpha virt. eigenvalues --    0.18619   0.19036   0.19782   0.20102   0.21733

 Mulliken charges:
               1
     1  C   -0.435185
     2  C    0.045122
     3  C   -0.067238
     4  C    0.008456
     5  C   -0.245969
     6  C   -0.239719
     7  C    0.001465
     8  C   -0.067287
     9  H    0.113099
    10  H    0.113092
    11  H    0.114677
    12  H    0.055682
    13  H    0.056581
    14  H    0.055127
    15  H    0.094474
    16  H    0.094467
    17  H    0.094148
    18  H    0.094157
    19  H    0.058261
    20  H    0.056589
 Sum of Mulliken charges =   0.00000

 Dipole moment (field-independent basis, Debye):
    X=             -0.0268    Y=              0.0175    Z=             -0.0001  Tot=              0.0320
 Quadrupole moment (field-independent basis, Debye-Ang):
   XX=            -50.3424   YY=            -49.7099   ZZ=            -49.2814
   XY=             -0.0682   XZ=             -0.0001   YZ=             -0.0002

  Exact polarizability:  91.944  -0.549  73.851  -0.000  -0.001  70.437
 Approx polarizability: 116.785  -0.852 112.224  -0.000  -0.001 112.237

                      1                      2                      3
                      A                      A                      A
 Frequencies --    191.9933               216.2254               244.2477
 Red. masses --      1.0338                 1.9775                 2.8954
 Frc consts  --      0.0225                 0.0545                 0.1018
 IR Inten    --      0.0148                 0.1609                 0.1304

                      4                      5                      6
                      A                      A                      A
 Frequencies --    260.2086               394.6739               499.7862
 Red. masses --      1.9767                 2.1782                 3.4401
 Frc consts  --      0.0789                 0.1999                 0.5063
 IR Inten    --      0.2622                 0.0893                 0.5547

                      7                      8                      9
                      A                      A                      A
 Frequencies --    651.6585               718.5083               746.3850
 Red. masses --      3.3428                 4.2414                 3.0778
 Frc consts  --      0.8364                 1.2901                 1.0102
 IR Inten    --      1.9917                 0.6789                 0.0204

                     10                     11                     12
                      A                      A                      A
 Frequencies --    795.1097               808.1083               821.5733
 Red. masses --      2.4027                 2.2394                 1.3548
 Frc consts  --      0.8950                 0.8616                 0.5388
 IR Inten    --      0.5469                 0.0630                 0.1259

                     13                     14                     15
                      A                      A                      A
 Frequencies --    882.6238               890.7288               930.6305
 Red. masses --      1.8036                 2.3761                 3.6919
 Frc consts  --      0.8278                 1.1107                 1.8839
 IR Inten    --      0.1446                 0.1600                 1.0940

                     16                     17                     18
                      A                      A                      A
 Frequencies --    955.3167               973.5201               991.8387
 Red. masses --      3.4704                 1.5571                 1.0678
 Frc consts  --      1.8661                 0.8695                 0.6189
 IR Inten    --      0.2494                 0.6226                 0.0001

                     19                     20                     21
                      A                      A                      A
 Frequencies --   1019.6332              1022.3311              1059.3392
 Red. masses --      1.1945                 1.8262                 2.2560
 Frc consts  --      0.7317                 1.1246                 1.4916
 IR Inten    --      1.0363                 4.9052                 0.7778

                     22                     23                     24
                      A                      A                      A
 Frequencies --   1082.7325              1091.1554              1114.3173
 Red. masses --      1.0846                 1.8015                 2.1972
 Frc consts  --      0.7491                 1.2637                 1.6074
 IR Inten    --      2.5439                 0.6597                 0.8207

                     25                     26                     27
                      A                      A                      A
 Frequencies --   1126.2229              1140.1843              1175.8981
 Red. masses --      2.1397                 1.5950                 1.5054
 Frc consts  --      1.5990                 1.2217                 1.2264
 IR Inten    --      1.3750                 0.7447                 0.0002

                     28                     29                     30
                      A                      A                      A
 Frequencies --   1214.3420              1221.5206              1247.8583
 Red. masses --      1.4180                 1.6176                 1.7717
 Frc consts  --      1.2320                 1.4220                 1.6254
 IR Inten    --      0.0435                 2.4916                 1.1105

                     31                     32                     33
                      A                      A                      A
 Frequencies --   1251.8426              1266.7930              1275.7883
 Red. masses --      1.1380                 1.7148                 1.7122
 Frc consts  --      1.0507                 1.6213                 1.6419
 IR Inten    --      0.0007                 6.6492                 0.4556

                     34                     35                     36
                      A                      A                      A
 Frequencies --   1285.6448              1318.1305              1373.5447
 Red. masses --      1.8618                 1.5490                 1.5782
 Frc consts  --      1.8131                 1.5857                 1.7543
 IR Inten    --      0.6854                 2.2915                 8.8091

                     37                     38                     39
                      A                      A                      A
 Frequencies --   1411.1487              1423.4624              1488.2885
 Red. masses --      1.2383                 1.4868                 1.0806
 Frc consts  --      1.4528                 1.7750                 1.4103
 IR Inten    --      0.6106                11.0721                 0.1067

                     40                     41                     42
                      A                      A                      A
 Frequencies --   1496.1152              1500.6056              1509.1830
 Red. masses --      1.0474                 1.0535                 1.1063
 Frc consts  --      1.3813                 1.3977                 1.4845
 IR Inten    --      2.7883                 4.0711                 0.4891

                     43                     44                     45
                      A                      A                      A
 Frequencies --   3017.6791              3029.8649              3037.3324
 Red. masses --      1.0808                 1.0395                 1.0582
 Frc consts  --      5.7990                 5.6222                 5.7516
 IR Inten    --     40.5646                36.4665                30.9569

                     46                     47                     48
                      A                      A                      A
 Frequencies --   3047.3697              3069.4614              3069.5401
 Red. masses --      1.0601                 1.0929                 1.1021
 Frc consts  --      5.8005                 6.0665                 6.1182
 IR Inten    --     66.3520                94.7412                29.0724

                     49                     50                     51
                      A                      A                      A
 Frequencies --   3072.2441              3084.8810              3089.7192
 Red. masses --      1.0876                 1.1004                 1.1055
 Frc consts  --      6.0484                 6.1701                 6.2177
 IR Inten    --      0.8091                25.8342                53.8495

                     52                     53                     54
                      A                      A                      A
 Frequencies --   3092.6272              3106.2595              3120.1905
 Red. masses --      1.0892                 1.0974                 1.0908
 Frc consts  --      6.1377                 6.2385                 6.2567
 IR Inten    --     57.6044                22.4022                51.4840

 - Thermochemistry -
 -------------------
 Temperature   298.150 Kelvin.  Pressure   1.00000 Atm.
 Atom     1 has atomic number  6 and mass  12.00000

 Molecular mass:   108.09390 amu.
 Principal axes and moments of inertia in atomic units:
                           1         2         3
     Eigenvalues --   354.440601059.612581169.86547
           X            0.99999   0.00525  -0.00000
           Y           -0.00525   0.99999  -0.00002
           Z            0.00000   0.00002   1.00000
 This molecule is an asymmetric top.
 Rotational symmetry number  1.
 Rotational temperatures (Kelvin)      0.24437     0.08174     0.07404
 Rotational constants (GHZ):           5.09180     1.70321     1.54269
 Zero-point vibrational energy     472084.6 (Joules/Mol)
                                  112.83094 (Kcal/Mol)
 Warning -- explicit consideration of   6 degrees of freedom as
           vibrations may cause significant error
 Vibrational temperatures:    276.24   311.10   351.42   374.38   567.85
          (Kelvin)            719.08   937.59  1033.77  1073.88  1143.99
                             1162.69  1182.06  1269.90  1281.56  1338.97
                             1374.49  1400.68  1427.03  1467.02  1470.91
                             1524.15  1557.81  1569.93  1603.25  1620.38
                             1640.47  1691.86  1747.17  1757.50  1795.39
                             1801.12  1822.63  1835.57  1849.76  1896.50
                             1976.22  2030.33  2048.04  2141.32  2152.58
                             2159.04  2171.38  4341.77  4359.30  4370.04
                             4384.49  4416.27  4416.38  4420.27  4438.46
                             4445.42  4449.60  4469.21  4489.26

 Zero-point correction=                           0.179808 (Hartree/Particle)
 Thermal correction to Energy=                    0.186485
 Thermal correction to Enthalpy=                  0.187430
 Thermal correction to Gibbs Free Energy=         0.149423
 Sum of electronic and zero-point Energies=           -311.840626
 Sum of electronic and thermal Energies=              -311.833948
 Sum of electronic and thermal Enthalpies=            -311.833004
 Sum of electronic and thermal Free Energies=         -311.871011

                     E (Thermal)             CV                S
                      KCal/Mol        Cal/Mol-Kelvin    Cal/Mol-Kelvin
 Total                  117.021             27.549             79.993
 Electronic               0.000              0.000              0.000
 Translational            0.889              2.981             39.950
 Rotational               0.889              2.981             27.576
 Vibrational            115.244             21.588             12.466
 Vibration     1          0.634              1.851              2.208
 Vibration     2          0.645              1.816              1.990
 Vibration     3          0.660              1.772              1.772
 Vibration     4          0.668              1.745              1.660
 Vibration     5          0.762              1.482              0.982
 Vibration     6          0.855              1.250              0.659

 Optimization completed.
    -- Stationary point found.
 Normal termination of Gaussian 16 at Sun May 28 01:53:44 2023.
