 Gaussian 16, Revision A.03,
 Gaussian 16:  ES64L-G16RevA.03 25-Dec-2016

 -----------------------------
 # opt freq b3lyp/6-31g(2df,p)
 -----------------------------

 -------------------
 Title Card Required
 -------------------
 Symbolic Z-matrix:
 Charge =  0 Multiplicity = 1

 SCF Done:  E(RB3LYP) =  -621.678797423     A.U. after   12 cycles
 SCF Done:  E(RB3LYP) =  -621.715371222     A.U. after   11 cycles
 SCF Done:  E(RB3LYP) =  -621.735816540     A.U. after   11 cycles
 SCF Done:  E(RB3LYP) =  -621.743635901     A.U. after   10 cycles
 SCF Done:  E(RB3LYP) =  -621.748952674     A.U. after   10 cycles
 SCF Done:  E(RB3LYP) =  -621.753118368     A.U. after   10 cycles
 SCF Done:  E(RB3LYP) =  -621.753935290     A.U. after   10 cycles
 SCF Done:  E(RB3LYP) =  -621.754608333     A.U. after   10 cycles
 SCF Done:  E(RB3LYP) =  -621.754947055     A.U. after   10 cycles
 SCF Done:  E(RB3LYP) =  -621.755476151     A.U. after    9 cycles
 SCF Done:  E(RB3LYP) =  -621.758503759     A.U. after    8 cycles
 SCF Done:  E(RB3LYP) =  -621.758509354     A.U. after    7 cycles
 SCF Done:  E(RB3LYP) =  -621.758510853     A.U. after    6 cycles
 SCF Done:  E(RB3LYP) =  -621.758511311     A.U. after    6 cycles
 SCF Done:  E(RB3LYP) =  -621.758511480     A.U. after    6 cycles
 SCF Done:  E(RB3LYP) =  -621.758511569     A.U. after    6 cycles
 SCF Done:  E(RB3LYP) =  -621.758511578     A.U. after    5 cycles
 SCF Done:  E(RB3LYP) =  -621.758511585     A.U. after    5 cycles
 SCF Done:  E(RB3LYP) =  -621.758511585     A.U. after    5 cycles
 Optimization completed.
    -- Stationary point found.
 Normal termination of Gaussian 16 at Wed May 24 07:02:13 2023.

 ----------------------------------------------------------------------
 #N Geom=AllCheck Guess=TCheck SCRF=Check GenChk RB3LYP/6-31G(2df,p) Fr
 eq
 ----------------------------------------------------------------------

 Structure from the checkpoint file:  "CC1CCCqCrCCqNrCCqCNrCC1.chk"
 -------------------
 Title Card Required
 -------------------
 Charge =  0 Multiplicity = 1

                         Standard orientation:
 ---------------------------------------------------------------------
 Center     Atomic      Atomic             Coordinates (Angstroms)
 Number     Number       Type             X           Y           Z
 ---------------------------------------------------------------------
      1          6           0        0.319091    3.346643    0.584688
      2          6           0        0.275057    2.311704   -0.549729
      3          6           0        1.614106    1.543208   -0.727588
      4          6           0        2.282250    0.898990    0.519516
      5          6           0        2.590798   -0.623457    0.545435
      6          6           0        3.407681   -1.106881   -0.662339
      7          6           0        1.422992   -1.564562    0.954089
      8          6           0        0.311340   -2.100418   -0.020677
      9          7           0        0.391961   -1.599100   -1.398626
     10          6           0       -1.099112   -2.056171    0.634999
     11          6           0       -1.972460   -0.755793    0.675976
     12          6           0       -3.042079   -0.767829   -0.432486
     13          7           0       -3.991458    0.337066   -0.260675
     14          6           0       -1.223739    0.607885    0.801069
     15          6           0       -0.988689    1.424577   -0.492519
     16          1           0        1.183355    4.011323    0.477677
     17          1           0        0.382912    2.881991    1.573334
     18          1           0       -0.583598    3.967188    0.575653
     19          1           0        0.165320    2.884539   -1.481867
     20          1           0        2.325587    2.264595   -1.146567
     21          1           0        1.483743    0.795060   -1.515272
     22          1           0        1.713356    1.137083    1.424226
     23          1           0        3.248850    1.396362    0.664800
     24          1           0        3.263940   -0.713437    1.411308
     25          1           0        2.824230   -1.097186   -1.582972
     26          1           0        3.747332   -2.137138   -0.504751
     27          1           0        4.298773   -0.482504   -0.795767
     28          1           0        0.937126   -1.103392    1.820188
     29          1           0        1.904195   -2.462266    1.361886
     30          1           0        0.521554   -3.171940   -0.121063
     31          1           0        0.051651   -0.648596   -1.454959
     32          1           0       -0.219399   -2.154665   -1.990437
     33          1           0       -0.967665   -2.410364    1.665612
     34          1           0       -1.706354   -2.830925    0.146781
     35          1           0       -2.544825   -0.854994    1.609621
     36          1           0       -3.523528   -1.760945   -0.428009
     37          1           0       -2.577927   -0.660121   -1.419503
     38          1           0       -4.525405    0.196405    0.592891
     39          1           0       -4.667079    0.336402   -1.018566
     40          1           0       -0.279305    0.432105    1.315112
     41          1           0       -1.805382    1.240584    1.477746
     42          1           0       -1.869158    2.055590   -0.649614
     43          1           0       -0.969234    0.776104   -1.374978
 ---------------------------------------------------------------------

 SCF Done:  E(RB3LYP) =  -621.758511585     A.U. after    1 cycles

 The electronic state is 1-A.
 Alpha  occ. eigenvalues --  -14.30742 -14.29912 -10.20426 -10.20027 -10.18314
 Alpha  occ. eigenvalues --  -10.17569 -10.17532 -10.17178 -10.16783 -10.16712
 Alpha  occ. eigenvalues --  -10.16485 -10.16484 -10.16406 -10.16227 -10.15007
 Alpha  occ. eigenvalues --   -0.88021  -0.87362  -0.80565  -0.78324  -0.77446
 Alpha  occ. eigenvalues --   -0.71870  -0.71141  -0.68286  -0.65578  -0.64567
 Alpha  occ. eigenvalues --   -0.61840  -0.59561  -0.54414  -0.53181  -0.51480
 Alpha  occ. eigenvalues --   -0.49355  -0.47706  -0.46480  -0.45451  -0.44453
 Alpha  occ. eigenvalues --   -0.43601  -0.43240  -0.41803  -0.41631  -0.40758
 Alpha  occ. eigenvalues --   -0.40106  -0.38951  -0.37952  -0.37146  -0.36496
 Alpha  occ. eigenvalues --   -0.35626  -0.35278  -0.35031  -0.34444  -0.33139
 Alpha  occ. eigenvalues --   -0.32107  -0.31275  -0.30586  -0.30300  -0.29921
 Alpha  occ. eigenvalues --   -0.28633  -0.28121  -0.27847  -0.23438  -0.22304
 Alpha virt. eigenvalues --    0.05850   0.08292   0.08505   0.09253   0.10299
 Alpha virt. eigenvalues --    0.10972   0.12639   0.12844   0.14078   0.14537
 Alpha virt. eigenvalues --    0.15282   0.15432   0.15760   0.16279   0.16581

 Mulliken charges:
               1
     1  C   -0.387602
     2  C    0.002438
     3  C   -0.207335
     4  C   -0.200131
     5  C    0.026383
     6  C   -0.390329
     7  C   -0.217794
     8  C    0.026691
     9  N   -0.507220
    10  C   -0.250974
    11  C    0.023529
    12  C   -0.158720
    13  N   -0.506581
    14  C   -0.202169
    15  C   -0.184601
    16  H    0.105328
    17  H    0.117366
    18  H    0.107737
    19  H    0.067133
    20  H    0.089028
    21  H    0.102959
    22  H    0.090564
    23  H    0.087718
    24  H    0.069862
    25  H    0.145240
    26  H    0.096553
    27  H    0.093734
    28  H    0.094944
    29  H    0.091796
    30  H    0.078641
    31  H    0.231129
    32  H    0.219311
    33  H    0.092438
    34  H    0.078333
    35  H    0.068041
    36  H    0.074432
    37  H    0.096442
    38  H    0.222171
    39  H    0.225459
    40  H    0.099727
    41  H    0.099312
    42  H    0.105450
    43  H    0.083568
 Sum of Mulliken charges =  -0.00000

 Dipole moment (field-independent basis, Debye):
    X=             -2.2349    Y=             -0.7801    Z=              0.2534  Tot=              2.3807
 Quadrupole moment (field-independent basis, Debye-Ang):
   XX=            -92.1303   YY=            -98.2476   ZZ=            -96.4165
   XY=              4.4271   XZ=              2.8610   YZ=             -0.6476

  Exact polarizability: 169.851  -0.989 158.999   0.362  -1.084 130.194
 Approx polarizability: 218.221  -1.551 218.330   0.628  -0.481 212.910

                      1                      2                      3
                      A                      A                      A
 Frequencies --     36.7351                88.2331               109.9840
 Red. masses --      3.3375                 2.9588                 2.6126
 Frc consts  --      0.0027                 0.0136                 0.0186
 IR Inten    --      0.0282                 2.0182                 1.4032

                      4                      5                      6
                      A                      A                      A
 Frequencies --    123.3888               147.5321               161.7772
 Red. masses --      3.0521                 2.5347                 2.8300
 Frc consts  --      0.0274                 0.0325                 0.0436
 IR Inten    --      2.0264                 2.6615                 0.4609

                      7                      8                      9
                      A                      A                      A
 Frequencies --    164.6987               184.9635               205.2231
 Red. masses --      2.4278                 1.9858                 3.1780
 Frc consts  --      0.0388                 0.0400                 0.0789
 IR Inten    --      0.7468                 5.5349                 3.3159

                     10                     11                     12
                      A                      A                      A
 Frequencies --    214.0991               220.5353               225.5869
 Red. masses --      2.3136                 1.5370                 1.7601
 Frc consts  --      0.0625                 0.0440                 0.0528
 IR Inten    --      2.4487                 4.0780                 1.9444

                     13                     14                     15
                      A                      A                      A
 Frequencies --    237.3698               242.8398               247.9300
 Red. masses --      1.1807                 1.3930                 1.4804
 Frc consts  --      0.0392                 0.0484                 0.0536
 IR Inten    --      6.4602                17.9613                 9.0526

                     16                     17                     18
                      A                      A                      A
 Frequencies --    277.6425               297.0320               330.4133
 Red. masses --      2.6210                 1.6173                 2.1582
 Frc consts  --      0.1190                 0.0841                 0.1388
 IR Inten    --      5.4698                21.1200                 1.2075

                     19                     20                     21
                      A                      A                      A
 Frequencies --    348.5805               357.2934               382.4439
 Red. masses --      1.8908                 1.9109                 1.8947
 Frc consts  --      0.1354                 0.1437                 0.1633
 IR Inten    --      2.1349                 4.7987                 1.3238

                     22                     23                     24
                      A                      A                      A
 Frequencies --    404.7099               438.0794               476.1121
 Red. masses --      2.1527                 2.8968                 2.7727
 Frc consts  --      0.2077                 0.3276                 0.3703
 IR Inten    --      0.7635                 4.0454                 3.1242

                     25                     26                     27
                      A                      A                      A
 Frequencies --    518.8089               587.8523               615.3881
 Red. masses --      2.7170                 2.7857                 2.2825
 Frc consts  --      0.4309                 0.5672                 0.5093
 IR Inten    --      2.9861                 1.4384                 5.1089

                     28                     29                     30
                      A                      A                      A
 Frequencies --    671.3191               708.4780               725.0918
 Red. masses --      2.0811                 2.7086                 3.5300
 Frc consts  --      0.5526                 0.8010                 1.0935
 IR Inten    --      3.4832                 2.7902                 2.4154

                     31                     32                     33
                      A                      A                      A
 Frequencies --    727.8582               810.7736               814.7209
 Red. masses --      2.1663                 1.7557                 2.2625
 Frc consts  --      0.6762                 0.6800                 0.8848
 IR Inten    --      4.0496                15.2128                12.7274

                     34                     35                     36
                      A                      A                      A
 Frequencies --    842.7107               847.6747               874.1250
 Red. masses --      1.4306                 1.8258                 1.5628
 Frc consts  --      0.5986                 0.7730                 0.7036
 IR Inten    --     72.2244                19.1630                32.3218

                     37                     38                     39
                      A                      A                      A
 Frequencies --    890.1770               915.7205               919.2840
 Red. masses --      2.0239                 2.0085                 2.2294
 Frc consts  --      0.9449                 0.9923                 1.1100
 IR Inten    --     36.5887                 2.3053                42.2406

                     40                     41                     42
                      A                      A                      A
 Frequencies --    926.5759               953.2813               965.2268
 Red. masses --      1.9790                 1.7398                 1.8431
 Frc consts  --      1.0010                 0.9315                 1.0117
 IR Inten    --      4.7638                 6.0152                 3.0189

                     43                     44                     45
                      A                      A                      A
 Frequencies --    978.6601               986.0662               995.1655
 Red. masses --      2.0226                 1.9773                 1.8029
 Frc consts  --      1.1413                 1.1328                 1.0520
 IR Inten    --      6.1218                 5.8147                 1.5397

                     46                     47                     48
                      A                      A                      A
 Frequencies --   1018.6043              1052.1261              1068.8126
 Red. masses --      1.6582                 1.6418                 1.8252
 Frc consts  --      1.0137                 1.0708                 1.2284
 IR Inten    --      6.6370                 1.7053                 3.0449

                     49                     50                     51
                      A                      A                      A
 Frequencies --   1075.4212              1093.9065              1109.0608
 Red. masses --      2.3144                 2.2427                 1.8464
 Frc consts  --      1.5771                 1.5811                 1.3381
 IR Inten    --     16.9318                 3.2904                 2.9864

                     52                     53                     54
                      A                      A                      A
 Frequencies --   1116.4900              1125.9373              1144.5739
 Red. masses --      1.8664                 2.0134                 2.0847
 Frc consts  --      1.3708                 1.5039                 1.6091
 IR Inten    --      3.7118                 5.3999                 5.9796

                     55                     56                     57
                      A                      A                      A
 Frequencies --   1151.1258              1159.6948              1195.8875
 Red. masses --      1.6466                 1.9430                 2.0314
 Frc consts  --      1.2855                 1.5396                 1.7117
 IR Inten    --      0.3000                 1.6748                 3.2196

                     58                     59                     60
                      A                      A                      A
 Frequencies --   1210.8861              1244.6066              1263.0309
 Red. masses --      1.3656                 1.2707                 1.1714
 Frc consts  --      1.1797                 1.1597                 1.1010
 IR Inten    --      1.5625                 3.3197                 1.8003

                     61                     62                     63
                      A                      A                      A
 Frequencies --   1268.6757              1285.9859              1288.7868
 Red. masses --      1.3361                 1.2023                 1.1473
 Frc consts  --      1.2670                 1.1714                 1.1228
 IR Inten    --      0.0510                 0.5865                 3.1834

                     64                     65                     66
                      A                      A                      A
 Frequencies --   1306.0510              1314.2902              1321.3287
 Red. masses --      1.1600                 1.1403                 1.2841
 Frc consts  --      1.1658                 1.1605                 1.3209
 IR Inten    --      0.4227                 3.9051                 1.1208

                     67                     68                     69
                      A                      A                      A
 Frequencies --   1334.2900              1340.2194              1355.5502
 Red. masses --      1.3208                 1.3822                 1.2965
 Frc consts  --      1.3854                 1.4628                 1.4037
 IR Inten    --      5.8119                 0.9992                 3.4879

                     70                     71                     72
                      A                      A                      A
 Frequencies --   1363.7407              1371.7582              1376.8359
 Red. masses --      1.3630                 1.2860                 1.3455
 Frc consts  --      1.4935                 1.4258                 1.5028
 IR Inten    --      4.1198                 1.8894                13.0306

                     73                     74                     75
                      A                      A                      A
 Frequencies --   1377.6521              1381.5079              1391.6030
 Red. masses --      1.2772                 1.3198                 1.3085
 Frc consts  --      1.4283                 1.4841                 1.4930
 IR Inten    --      5.1752                 6.9868                 0.4766

                     76                     77                     78
                      A                      A                      A
 Frequencies --   1401.9832              1405.4700              1410.2438
 Red. masses --      1.2433                 1.2882                 1.2518
 Frc consts  --      1.4399                 1.4993                 1.4668
 IR Inten    --      4.9236                 2.7018                 7.3068

                     79                     80                     81
                      A                      A                      A
 Frequencies --   1415.7081              1419.2949              1423.1022
 Red. masses --      1.3258                 1.3433                 1.3916
 Frc consts  --      1.5655                 1.5943                 1.6605
 IR Inten    --      4.4957                 1.1510                 7.7032

                     82                     83                     84
                      A                      A                      A
 Frequencies --   1445.1459              1484.1067              1486.9503
 Red. masses --      1.2422                 1.0688                 1.0807
 Frc consts  --      1.5285                 1.3870                 1.4078
 IR Inten    --      1.2752                 0.6956                 0.5281

                     85                     86                     87
                      A                      A                      A
 Frequencies --   1488.5622              1490.0221              1497.0380
 Red. masses --      1.0759                 1.0632                 1.0640
 Frc consts  --      1.4046                 1.3907                 1.4049
 IR Inten    --      8.4544                 0.8346                 2.3806

                     88                     89                     90
                      A                      A                      A
 Frequencies --   1500.2742              1506.0849              1508.1533
 Red. masses --      1.0718                 1.0630                 1.0651
 Frc consts  --      1.4213                 1.4207                 1.4273
 IR Inten    --      2.8177                 2.5273                 4.2507

                     91                     92                     93
                      A                      A                      A
 Frequencies --   1514.9284              1515.4776              1519.6723
 Red. masses --      1.0826                 1.0545                 1.0784
 Frc consts  --      1.4639                 1.4269                 1.4673
 IR Inten    --      6.3432                 7.6734                 4.0896

                     94                     95                     96
                      A                      A                      A
 Frequencies --   1655.3070              1656.2860              2942.4351
 Red. masses --      1.0899                 1.0894                 1.0745
 Frc consts  --      1.7595                 1.7608                 5.4812
 IR Inten    --     12.7545                24.8670                65.8224

                     97                     98                     99
                      A                      A                      A
 Frequencies --   2971.5063              2978.0902              2986.6327
 Red. masses --      1.0816                 1.0798                 1.0822
 Frc consts  --      5.6270                 5.6425                 5.6874
 IR Inten    --     19.8435                15.2999                21.9002

                    100                    101                    102
                      A                      A                      A
 Frequencies --   2998.4266              3011.1692              3018.1444
 Red. masses --      1.0743                 1.0710                 1.0726
 Frc consts  --      5.6907                 5.7217                 5.7567
 IR Inten    --     21.8223                26.8012                30.6964

                    103                    104                    105
                      A                      A                      A
 Frequencies --   3026.1638              3028.6139              3032.7460
 Red. masses --      1.0447                 1.0393                 1.0704
 Frc consts  --      5.6370                 5.6168                 5.8005
 IR Inten    --     28.0812                17.0951                93.1395

                    106                    107                    108
                      A                      A                      A
 Frequencies --   3036.7050              3038.6363              3043.5049
 Red. masses --      1.0963                 1.0651                 1.0692
 Frc consts  --      5.9566                 5.7943                 5.8353
 IR Inten    --     39.2234                64.7837                 2.8597

                    109                    110                    111
                      A                      A                      A
 Frequencies --   3056.7766              3057.9233              3061.0363
 Red. masses --      1.0805                 1.0802                 1.0950
 Frc consts  --      5.9484                 5.9511                 6.0448
 IR Inten    --      5.7481                45.6138                10.1212

                    112                    113                    114
                      A                      A                      A
 Frequencies --   3065.5294              3075.0017              3080.4009
 Red. masses --      1.0935                 1.0908                 1.0918
 Frc consts  --      6.0547                 6.0770                 6.1038
 IR Inten    --     62.7595                46.6492                47.1049

                    115                    116                    117
                      A                      A                      A
 Frequencies --   3081.4491              3092.2603              3102.0188
 Red. masses --      1.1006                 1.1013                 1.0992
 Frc consts  --      6.1571                 6.2045                 6.2318
 IR Inten    --     45.8059                34.7952                40.5296

                    118                    119                    120
                      A                      A                      A
 Frequencies --   3136.4110              3148.3101              3484.0434
 Red. masses --      1.0873                 1.0953                 1.0497
 Frc consts  --      6.3021                 6.3962                 7.5072
 IR Inten    --     18.4587                 9.8923                 0.5897

                    121                    122                    123
                      A                      A                      A
 Frequencies --   3502.5033              3563.5963              3612.1986
 Red. masses --      1.0548                 1.0917                 1.0845
 Frc consts  --      7.6239                 8.1686                 8.3370
 IR Inten    --      2.4731                 0.1951                14.5513

 - Thermochemistry -
 -------------------
 Temperature   298.150 Kelvin.  Pressure   1.00000 Atm.
 Atom     1 has atomic number  6 and mass  12.00000

 Molecular mass:   212.22525 amu.
 Principal axes and moments of inertia in atomic units:
                           1         2         3
     Eigenvalues --  2547.759473785.968945390.28970
           X            0.99998   0.00672   0.00062
           Y           -0.00672   0.99997   0.00290
           Z           -0.00060  -0.00290   1.00000
 This molecule is an asymmetric top.
 Rotational symmetry number  1.
 Warning -- assumption of classical behavior for rotation
           may cause significant error
 Rotational temperatures (Kelvin)      0.03400     0.02288     0.01607
 Rotational constants (GHZ):           0.70836     0.47669     0.33481
 Zero-point vibrational energy    1060385.7 (Joules/Mol)
                                  253.43827 (Kcal/Mol)
 Warning -- explicit consideration of  27 degrees of freedom as
           vibrations may cause significant error
 Vibrational temperatures:     52.85   126.95   158.24   177.53   212.27
          (Kelvin)            232.76   236.96   266.12   295.27   308.04
                              317.30   324.57   341.52   349.39   356.72
                              399.47   427.36   475.39   501.53   514.07
                              550.25   582.29   630.30   685.02   746.45
                              845.79   885.41   965.88  1019.34  1043.25
                             1047.23  1166.52  1172.20  1212.47  1219.61
                             1257.67  1280.77  1317.52  1322.64  1333.14
                             1371.56  1388.75  1408.07  1418.73  1431.82
                             1465.54  1513.77  1537.78  1547.29  1573.89
                             1595.69  1606.38  1619.97  1646.79  1656.21
                             1668.54  1720.62  1742.20  1790.71  1817.22
                             1825.34  1850.25  1854.28  1879.12  1890.97
                             1901.10  1919.75  1928.28  1950.33  1962.12
                             1973.65  1980.96  1982.13  1987.68  2002.21
                             2017.14  2022.16  2029.03  2036.89  2042.05
                             2047.53  2079.24  2135.30  2139.39  2141.71
                             2143.81  2153.90  2158.56  2166.92  2169.90
                             2179.64  2180.43  2186.47  2381.62  2383.03
                             4233.51  4275.33  4284.81  4297.10  4314.07
                             4332.40  4342.44  4353.97  4357.50  4363.45
                             4369.14  4371.92  4378.92  4398.02  4399.67
                             4404.15  4410.61  4424.24  4432.01  4433.52
                             4449.07  4463.11  4512.60  4529.72  5012.76
                             5039.32  5127.22  5197.15

 Zero-point correction=                           0.403880 (Hartree/Particle)
 Thermal correction to Energy=                    0.421274
 Thermal correction to Enthalpy=                  0.422218
 Thermal correction to Gibbs Free Energy=         0.360826
 Sum of electronic and zero-point Energies=           -621.354632
 Sum of electronic and thermal Energies=              -621.337238
 Sum of electronic and thermal Enthalpies=            -621.336294
 Sum of electronic and thermal Free Energies=         -621.397685

                     E (Thermal)             CV                S
                      KCal/Mol        Cal/Mol-Kelvin    Cal/Mol-Kelvin
 Total                  264.353             68.556            129.209
 Electronic               0.000              0.000              0.000
 Translational            0.889              2.981             41.961
 Rotational               0.889              2.981             32.319
 Vibrational            262.576             62.594             54.929
 Vibration     1          0.594              1.982              5.428
 Vibration     2          0.601              1.957              3.699
 Vibration     3          0.606              1.941              3.269
 Vibration     4          0.610              1.930              3.047
 Vibration     5          0.617              1.905              2.704
 Vibration     6          0.622              1.889              2.529
 Vibration     7          0.623              1.886              2.495
 Vibration     8          0.631              1.860              2.278
 Vibration     9          0.640              1.832              2.086
 Vibration    10          0.644              1.819              2.008
 Vibration    11          0.647              1.810              1.955
 Vibration    12          0.650              1.802              1.914
 Vibration    13          0.656              1.783              1.823
 Vibration    14          0.659              1.775              1.782
 Vibration    15          0.662              1.766              1.745
 Vibration    16          0.679              1.715              1.548
 Vibration    17          0.691              1.679              1.434
 Vibration    18          0.713              1.615              1.258
 Vibration    19          0.726              1.578              1.173
 Vibration    20          0.732              1.560              1.134
 Vibration    21          0.752              1.508              1.029
 Vibration    22          0.770              1.460              0.945
 Vibration    23          0.798              1.387              0.833
 Vibration    24          0.833              1.303              0.721
 Vibration    25          0.874              1.208              0.613
 Vibration    26          0.945              1.058              0.471
 Vibration    27          0.975              0.999              0.424

                           ! Non-Optimized Parameters !
 Normal termination of Gaussian 16 at Wed May 24 11:38:07 2023.
