 Gaussian 16, Revision A.03,
 Gaussian 16:  ES64L-G16RevA.03 25-Dec-2016

 -----------------------------
 # opt freq b3lyp/6-31g(2df,p)
 -----------------------------

 -------------------
 Title Card Required
 -------------------
 Symbolic Z-matrix:
 Charge =  0 Multiplicity = 1

 SCF Done:  E(RB3LYP) =  -313.156845996     A.U. after   12 cycles
 SCF Done:  E(RB3LYP) =  -313.186317357     A.U. after   10 cycles
 SCF Done:  E(RB3LYP) =  -313.201813209     A.U. after   11 cycles
 SCF Done:  E(RB3LYP) =  -313.205979156     A.U. after   10 cycles
 SCF Done:  E(RB3LYP) =  -313.207224731     A.U. after   10 cycles
 SCF Done:  E(RB3LYP) =  -313.208745366     A.U. after   10 cycles
 SCF Done:  E(RB3LYP) =  -313.210036917     A.U. after   10 cycles
 SCF Done:  E(RB3LYP) =  -313.210721429     A.U. after    9 cycles
 SCF Done:  E(RB3LYP) =  -313.211132948     A.U. after   10 cycles
 SCF Done:  E(RB3LYP) =  -313.211158127     A.U. after    8 cycles
 SCF Done:  E(RB3LYP) =  -313.211161964     A.U. after    7 cycles
 SCF Done:  E(RB3LYP) =  -313.211162459     A.U. after    6 cycles
 SCF Done:  E(RB3LYP) =  -313.211162590     A.U. after    6 cycles
 SCF Done:  E(RB3LYP) =  -313.211162652     A.U. after    5 cycles
 SCF Done:  E(RB3LYP) =  -313.211162713     A.U. after    6 cycles
 SCF Done:  E(RB3LYP) =  -313.211162740     A.U. after    5 cycles
 Optimization completed.
    -- Stationary point found.
 Normal termination of Gaussian 16 at Sun May 28 11:16:18 2023.

 ----------------------------------------------------------------------
 #N Geom=AllCheck Guess=TCheck SCRF=Check GenChk RB3LYP/6-31G(2df,p) Fr
 eq
 ----------------------------------------------------------------------

 Structure from the checkpoint file:  "CC1C2CC1C2qCrC.chk"
 -------------------
 Title Card Required
 -------------------
 Charge =  0 Multiplicity = 1

                         Standard orientation:
 ---------------------------------------------------------------------
 Center     Atomic      Atomic             Coordinates (Angstroms)
 Number     Number       Type             X           Y           Z
 ---------------------------------------------------------------------
      1          6           0       -2.338744   -0.646484   -0.057186
      2          6           0       -1.327140    0.502632    0.019103
      3          6           0       -0.064171    0.616333    0.955883
      4          6           0        0.352703    1.796930    0.031159
      5          6           0       -0.087391    0.642532   -0.922818
      6          6           0        0.735421   -0.345856    0.000860
      7          6           0        2.268895   -0.244720   -0.070034
      8          6           0        0.416486   -1.851737    0.059509
      9          1           0       -2.584190   -1.041969    0.935091
     10          1           0       -2.018673   -1.481072   -0.680942
     11          1           0       -3.272475   -0.269553   -0.487643
     12          1           0       -1.900806    1.434364    0.063282
     13          1           0       -0.057705    0.607172    2.049526
     14          1           0        1.395358    2.103790    0.033448
     15          1           0       -0.302186    2.671227    0.047101
     16          1           0       -0.095115    0.662209   -2.016252
     17          1           0        2.660799    0.747629   -0.291833
     18          1           0        2.639998   -0.918307   -0.851528
     19          1           0        2.716810   -0.577614    0.873761
     20          1           0       -0.507672   -2.093170    0.579086
     21          1           0        1.220177   -2.371437    0.592175
     22          1           0        0.369330   -2.291052   -0.944134
 ---------------------------------------------------------------------

 SCF Done:  E(RB3LYP) =  -313.211162740     A.U. after    1 cycles

 The electronic state is 1-A.
 Alpha  occ. eigenvalues --  -10.19480 -10.19136 -10.19104 -10.18601 -10.17684
 Alpha  occ. eigenvalues --  -10.16882 -10.16544 -10.16468  -0.90125  -0.75464
 Alpha  occ. eigenvalues --   -0.72663  -0.67345  -0.61945  -0.61568  -0.58831
 Alpha  occ. eigenvalues --   -0.49115  -0.48468  -0.44931  -0.43739  -0.42285
 Alpha  occ. eigenvalues --   -0.40587  -0.38820  -0.37477  -0.37387  -0.35269
 Alpha  occ. eigenvalues --   -0.32984  -0.30776  -0.29740  -0.29168  -0.28939
 Alpha  occ. eigenvalues --   -0.27641
 Alpha virt. eigenvalues --    0.09826   0.11223   0.11631   0.12177   0.13513
 Alpha virt. eigenvalues --    0.14097   0.14818   0.15290   0.16359   0.17039
 Alpha virt. eigenvalues --    0.17778   0.18341   0.18817   0.19822   0.20873

 Mulliken charges:
               1
     1  C   -0.457087
     2  C    0.074898
     3  C   -0.108492
     4  C   -0.235289
     5  C   -0.109877
     6  C    0.399471
     7  C   -0.471063
     8  C   -0.478759
     9  H    0.118046
    10  H    0.125034
    11  H    0.108562
    12  H    0.063400
    13  H    0.057397
    14  H    0.090141
    15  H    0.086244
    16  H    0.058373
    17  H    0.112479
    18  H    0.112061
    19  H    0.113483
    20  H    0.121822
    21  H    0.106444
    22  H    0.112712
 Sum of Mulliken charges =  -0.00000

 Dipole moment (field-independent basis, Debye):
    X=             -0.0635    Y=             -0.1098    Z=             -0.0079  Tot=              0.1271
 Quadrupole moment (field-independent basis, Debye-Ang):
   XX=            -51.5254   YY=            -51.9305   ZZ=            -51.2500
   XY=             -0.1794   XZ=             -0.0120   YZ=              0.0068

  Exact polarizability:  91.120  -0.948  84.931   0.272  -0.067  71.811
 Approx polarizability: 121.394  -1.772 119.440   0.250  -0.189 115.220

                      1                      2                      3
                      A                      A                      A
 Frequencies --    105.9044               135.6001               176.7174
 Red. masses --      1.0426                 1.5700                 1.7442
 Frc consts  --      0.0069                 0.0170                 0.0321
 IR Inten    --      0.2169                 0.0232                 0.0382

                      4                      5                      6
                      A                      A                      A
 Frequencies --    201.5686               315.9619               338.1702
 Red. masses --      1.0777                 2.2775                 2.1346
 Frc consts  --      0.0258                 0.1340                 0.1438
 IR Inten    --      0.1277                 0.0114                 0.0579

                      7                      8                      9
                      A                      A                      A
 Frequencies --    366.5951               381.1526               459.5686
 Red. masses --      2.4473                 2.3942                 2.3994
 Frc consts  --      0.1938                 0.2049                 0.2986
 IR Inten    --      0.3951                 0.1082                 0.1663

                     10                     11                     12
                      A                      A                      A
 Frequencies --    547.3995               625.4592               645.8958
 Red. masses --      2.3908                 3.2873                 3.3746
 Frc consts  --      0.4221                 0.7577                 0.8295
 IR Inten    --      0.9167                 0.5604                 0.0177

                     13                     14                     15
                      A                      A                      A
 Frequencies --    751.2931               760.7841               799.6096
 Red. masses --      2.6108                 2.8728                 2.1176
 Frc consts  --      0.8682                 0.9797                 0.7977
 IR Inten    --      0.1545                 0.1504                 0.1282

                     16                     17                     18
                      A                      A                      A
 Frequencies --    859.7094               888.2632               955.6538
 Red. masses --      2.1779                 2.2450                 1.7998
 Frc consts  --      0.9484                 1.0437                 0.9685
 IR Inten    --      0.1083                 0.1111                 0.0115

                     19                     20                     21
                      A                      A                      A
 Frequencies --    966.3540              1003.0674              1007.2788
 Red. masses --      1.4726                 1.2067                 1.1486
 Frc consts  --      0.8102                 0.7154                 0.6866
 IR Inten    --      0.0764                 0.1279                 1.6693

                     22                     23                     24
                      A                      A                      A
 Frequencies --   1022.1740              1037.7671              1059.5949
 Red. masses --      1.0785                 1.6581                 1.9908
 Frc consts  --      0.6639                 1.0521                 1.3169
 IR Inten    --      2.3150                 0.1175                 1.8211

                     25                     26                     27
                      A                      A                      A
 Frequencies --   1087.7253              1098.9158              1128.7798
 Red. masses --      1.4524                 1.5266                 1.6930
 Frc consts  --      1.0125                 1.0862                 1.2709
 IR Inten    --      0.9790                 5.8335                 0.0828

                     28                     29                     30
                      A                      A                      A
 Frequencies --   1151.0438              1173.5108              1194.6682
 Red. masses --      2.5345                 1.5816                 1.5527
 Frc consts  --      1.9784                 1.2833                 1.3057
 IR Inten    --      5.6254                 0.9649                 0.6289

                     31                     32                     33
                      A                      A                      A
 Frequencies --   1202.4542              1224.0852              1242.1827
 Red. masses --      2.6432                 2.2373                 1.6874
 Frc consts  --      2.2517                 1.9751                 1.5341
 IR Inten    --      4.2099                 3.9662                 5.6674

                     34                     35                     36
                      A                      A                      A
 Frequencies --   1255.5619              1299.7341              1404.7398
 Red. masses --      2.2430                 2.5363                 1.2296
 Frc consts  --      2.0833                 2.5244                 1.4295
 IR Inten    --      5.1959                 8.6550                 2.8660

                     37                     38                     39
                      A                      A                      A
 Frequencies --   1411.7721              1424.0868              1453.3709
 Red. masses --      1.2061                 1.1992                 1.1676
 Frc consts  --      1.4163                 1.4329                 1.4531
 IR Inten    --      0.6784                 2.2758                10.7744

                     40                     41                     42
                      A                      A                      A
 Frequencies --   1484.6608              1487.9526              1498.6348
 Red. masses --      1.0505                 1.0527                 1.0498
 Frc consts  --      1.3642                 1.3732                 1.3892
 IR Inten    --      2.6279                 3.6996                 2.3040

                     43                     44                     45
                      A                      A                      A
 Frequencies --   1504.7353              1509.1115              1534.1875
 Red. masses --      1.0584                 1.0574                 1.0471
 Frc consts  --      1.4120                 1.4188                 1.4521
 IR Inten    --      6.6526                 6.7960                 1.2657

                     46                     47                     48
                      A                      A                      A
 Frequencies --   1548.0362              3026.7632              3027.4448
 Red. masses --      1.1005                 1.0427                 1.0693
 Frc consts  --      1.5538                 5.6283                 5.7745
 IR Inten    --      2.3938                15.3576                29.8328

                     49                     50                     51
                      A                      A                      A
 Frequencies --   3033.6382              3037.8849              3065.1467
 Red. masses --      1.0440                 1.0548                 1.0777
 Frc consts  --      5.6606                 5.7354                 5.9655
 IR Inten    --     43.1487                33.1992                36.6113

                     52                     53                     54
                      A                      A                      A
 Frequencies --   3065.9701              3078.3762              3081.5396
 Red. masses --      1.0862                 1.1000                 1.0926
 Frc consts  --      6.0156                 6.1418                 6.1129
 IR Inten    --    107.1119                14.3370                31.3628

                     55                     56                     57
                      A                      A                      A
 Frequencies --   3082.5007              3087.1411              3131.5175
 Red. masses --      1.0883                 1.0980                 1.0980
 Frc consts  --      6.0924                 6.1654                 6.3441
 IR Inten    --     30.5336                42.3594                22.8990

                     58                     59                     60
                      A                      A                      A
 Frequencies --   3135.8665              3164.0922              3167.7739
 Red. masses --      1.0964                 1.0959                 1.0921
 Frc consts  --      6.3523                 6.4645                 6.4570
 IR Inten    --     33.4459                44.2273                16.6309

 - Thermochemistry -
 -------------------
 Temperature   298.150 Kelvin.  Pressure   1.00000 Atm.
 Atom     1 has atomic number  6 and mass  12.00000

 Molecular mass:   110.10955 amu.
 Principal axes and moments of inertia in atomic units:
                           1         2         3
     Eigenvalues --   603.51320 871.505051229.02833
           X            0.99988   0.01561  -0.00018
           Y           -0.01561   0.99988  -0.00030
           Z            0.00018   0.00030   1.00000
 This molecule is an asymmetric top.
 Rotational symmetry number  1.
 Warning -- assumption of classical behavior for rotation
           may cause significant error
 Rotational temperatures (Kelvin)      0.14352     0.09938     0.07047
 Rotational constants (GHZ):           2.99039     2.07083     1.46843
 Zero-point vibrational energy     525861.3 (Joules/Mol)
                                  125.68387 (Kcal/Mol)
 Warning -- explicit consideration of  10 degrees of freedom as
           vibrations may cause significant error
 Vibrational temperatures:    152.37   195.10   254.26   290.01   454.60
          (Kelvin)            486.55   527.45   548.39   661.22   787.59
                              899.90   929.30  1080.94  1094.60  1150.46
                             1236.93  1278.01  1374.97  1390.37  1443.19
                             1449.25  1470.68  1493.12  1524.52  1564.99
                             1581.09  1624.06  1656.10  1688.42  1718.86
                             1730.06  1761.19  1787.22  1806.47  1870.03
                             2021.11  2031.23  2048.94  2091.08  2136.10
                             2140.83  2156.20  2164.98  2171.27  2207.35
                             2227.28  4354.84  4355.82  4364.73  4370.84
                             4410.06  4411.25  4429.10  4433.65  4435.03
                             4441.71  4505.56  4511.81  4552.42  4557.72

 Zero-point correction=                           0.200290 (Hartree/Particle)
 Thermal correction to Energy=                    0.208743
 Thermal correction to Enthalpy=                  0.209687
 Thermal correction to Gibbs Free Energy=         0.168004
 Sum of electronic and zero-point Energies=           -313.010873
 Sum of electronic and thermal Energies=              -313.002420
 Sum of electronic and thermal Enthalpies=            -313.001476
 Sum of electronic and thermal Free Energies=         -313.043159

                     E (Thermal)             CV                S
                      KCal/Mol        Cal/Mol-Kelvin    Cal/Mol-Kelvin
 Total                  130.988             33.289             87.729
 Electronic               0.000              0.000              0.000
 Translational            0.889              2.981             40.005
 Rotational               0.889              2.981             27.960
 Vibrational            129.211             27.327             19.764
 Vibration     1          0.605              1.945              3.343
 Vibration     2          0.613              1.918              2.865
 Vibration     3          0.628              1.871              2.363
 Vibration     4          0.638              1.838              2.119
 Vibration     5          0.703              1.643              1.331
 Vibration     6          0.718              1.599              1.221
 Vibration     7          0.740              1.541              1.094
 Vibration     8          0.751              1.510              1.035
 Vibration     9          0.817              1.340              0.767
 Vibration    10          0.903              1.145              0.550

 Optimization completed.
    -- Stationary point found.
 Normal termination of Gaussian 16 at Sun May 28 11:47:34 2023.
