 Gaussian 16, Revision A.03,
 Gaussian 16:  ES64L-G16RevA.03 25-Dec-2016

 -----------------------------
 # opt freq b3lyp/6-31g(2df,p)
 -----------------------------

 -------------------
 Title Card Required
 -------------------
 Symbolic Z-matrix:
 Charge =  0 Multiplicity = 1

 SCF Done:  E(RB3LYP) =  -882.035245479     A.U. after   27 cycles
 SCF Done:  E(RB3LYP) =  -882.115737950     A.U. after   19 cycles
 SCF Done:  E(RB3LYP) =  -882.239338311     A.U. after   19 cycles
 SCF Done:  E(RB3LYP) =  -882.319007443     A.U. after   20 cycles
 SCF Done:  E(RB3LYP) =  -882.408885852     A.U. after   19 cycles
 SCF Done:  E(RB3LYP) =  -882.537034431     A.U. after   19 cycles
 SCF Done:  E(RB3LYP) =  -882.602483392     A.U. after   18 cycles
 SCF Done:  E(RB3LYP) =  -882.655746475     A.U. after   19 cycles
 SCF Done:  E(RB3LYP) =  -882.689508563     A.U. after   22 cycles
 SCF Done:  E(RB3LYP) =  -882.714535968     A.U. after   18 cycles
 SCF Done:  E(RB3LYP) =  -883.038368006     A.U. after    9 cycles
 SCF Done:  E(RB3LYP) =  -883.038380425     A.U. after    9 cycles
 SCF Done:  E(RB3LYP) =  -883.038389049     A.U. after    8 cycles
 SCF Done:  E(RB3LYP) =  -883.038395312     A.U. after    8 cycles
 SCF Done:  E(RB3LYP) =  -883.038399248     A.U. after    8 cycles
 SCF Done:  E(RB3LYP) =  -883.038400132     A.U. after    7 cycles
 SCF Done:  E(RB3LYP) =  -883.038400479     A.U. after    7 cycles
 SCF Done:  E(RB3LYP) =  -883.038400638     A.U. after    7 cycles
 SCF Done:  E(RB3LYP) =  -883.038400686     A.U. after    6 cycles
 Optimization completed.
    -- Stationary point found.
 Normal termination of Gaussian 16 at Mon May 22 23:03:25 2023.

 ----------------------------------------------------------------------
 #N Geom=AllCheck Guess=TCheck SCRF=Check GenChk RB3LYP/6-31G(2df,p) Fr
 eq
 ----------------------------------------------------------------------

 Structure from the checkpoint file:  "CC1CCCtCCCqPCCOrO1.chk"
 -------------------
 Title Card Required
 -------------------
 Charge =  0 Multiplicity = 1

                         Standard orientation:
 ---------------------------------------------------------------------
 Center     Atomic      Atomic             Coordinates (Angstroms)
 Number     Number       Type             X           Y           Z
 ---------------------------------------------------------------------
      1          6           0       -0.691933   -2.555477   -0.068507
      2          6           0       -1.448215   -1.241352    0.130522
      3          6           0       -2.891947   -1.341231   -0.420114
      4          6           0       -3.926228   -0.403612    0.266718
      5          6           0       -3.300118    0.906907    0.366844
      6          6           0       -2.409328    1.718053    0.346809
      7          6           0       -1.038685    2.159905    0.146923
      8          6           0       -0.156470    0.863868    0.193068
      9         15           0        1.528882    1.213992   -0.571990
     10          6           0        2.541364   -0.164964    0.184476
     11          6           0        4.044434    0.015711   -0.047050
     12          8           0        4.800486   -1.102927    0.390519
     13          8           0       -0.709554   -0.206608   -0.553490
     14          1           0       -1.195845   -3.378874    0.447815
     15          1           0        0.326458   -2.478231    0.321793
     16          1           0       -0.630780   -2.801560   -1.133446
     17          1           0       -1.484330   -1.001037    1.201374
     18          1           0       -3.242506   -2.375904   -0.330081
     19          1           0       -2.846476   -1.105353   -1.487990
     20          1           0       -4.182589   -0.788957    1.262260
     21          1           0       -4.858648   -0.392452   -0.308865
     22          1           0       -0.681372    2.860817    0.909429
     23          1           0       -0.928870    2.657674   -0.824731
     24          1           0       -0.048501    0.569282    1.245857
     25          1           0        1.889513    2.231244    0.361966
     26          1           0        2.220616   -1.094270   -0.296590
     27          1           0        2.334258   -0.257201    1.258147
     28          1           0        4.392861    0.943785    0.433177
     29          1           0        4.250538    0.110461   -1.117934
     30          1           0        4.687739   -1.179862    1.343297
 ---------------------------------------------------------------------

 SCF Done:  E(RB3LYP) =  -883.038400686     A.U. after    1 cycles

 The electronic state is 1-A.
 Alpha  occ. eigenvalues --  -77.07188 -19.14244 -19.13618 -10.24661 -10.24025
 Alpha  occ. eigenvalues --  -10.23240 -10.20799 -10.20719 -10.19047 -10.18994
 Alpha  occ. eigenvalues --  -10.17773 -10.16667 -10.16402  -6.54433  -4.70674
 Alpha  occ. eigenvalues --   -4.70632  -4.70204  -1.02947  -1.01707  -0.81274
 Alpha  occ. eigenvalues --   -0.80129  -0.76055  -0.74168  -0.70279  -0.66795
 Alpha  occ. eigenvalues --   -0.63955  -0.61231  -0.58743  -0.56446  -0.50694
 Alpha  occ. eigenvalues --   -0.50543  -0.49092  -0.46315  -0.45402  -0.45198
 Alpha  occ. eigenvalues --   -0.44152  -0.43407  -0.42045  -0.40929  -0.40159
 Alpha  occ. eigenvalues --   -0.39175  -0.38419  -0.37763  -0.37199  -0.35225
 Alpha  occ. eigenvalues --   -0.34509  -0.33546  -0.32112  -0.30933  -0.27076
 Alpha  occ. eigenvalues --   -0.25676  -0.24782  -0.24302  -0.23727
 Alpha virt. eigenvalues --    0.01747   0.03238   0.04534   0.06487   0.07524
 Alpha virt. eigenvalues --    0.08859   0.09574   0.10583   0.11161   0.12179
 Alpha virt. eigenvalues --    0.13551   0.13848   0.14544   0.15053   0.15449

 Mulliken charges:
               1
     1  C   -0.400572
     2  C    0.132454
     3  C   -0.179702
     4  C   -0.356194
     5  C    0.115205
     6  C    0.001296
     7  C   -0.378499
     8  C    0.125297
     9  P   -0.093928
    10  C   -0.216106
    11  C   -0.075148
    12  O   -0.420095
    13  O   -0.276562
    14  H    0.111266
    15  H    0.117236
    16  H    0.127993
    17  H    0.078308
    18  H    0.094718
    19  H    0.123995
    20  H    0.122555
    21  H    0.124527
    22  H    0.123587
    23  H    0.143648
    24  H    0.086759
    25  H    0.038412
    26  H    0.134741
    27  H    0.094413
    28  H    0.092732
    29  H    0.128630
    30  H    0.279035
 Sum of Mulliken charges =  -0.00000

 Dipole moment (field-independent basis, Debye):
    X=             -0.8220    Y=             -0.9999    Z=              2.5843  Tot=              2.8904
 Quadrupole moment (field-independent basis, Debye-Ang):
   XX=            -92.1898   YY=            -86.1441   ZZ=            -85.4799
   XY=              9.3161   XZ=              6.7006   YZ=             -0.3339

  Exact polarizability: 174.170  10.150 138.320  -1.331  -1.049 101.421
 Approx polarizability: 227.705  25.553 212.291  -2.366  -0.511 169.494

                      1                      2                      3
                      A                      A                      A
 Frequencies --     27.6739                42.7659                58.1864
 Red. masses --      4.6841                 3.8955                 1.7984
 Frc consts  --      0.0021                 0.0042                 0.0036
 IR Inten    --      0.1647                 0.2525                 4.5992

                      4                      5                      6
                      A                      A                      A
 Frequencies --     86.0885               126.2246               128.7022
 Red. masses --      4.2994                 3.1624                 3.2340
 Frc consts  --      0.0188                 0.0297                 0.0316
 IR Inten    --      1.0697                 0.6026                 2.4595

                      7                      8                      9
                      A                      A                      A
 Frequencies --    168.7278               184.7465               223.2383
 Red. masses --      3.9302                 3.5525                 3.4202
 Frc consts  --      0.0659                 0.0714                 0.1004
 IR Inten    --      0.0605                 0.9564                 1.1093

                     10                     11                     12
                      A                      A                      A
 Frequencies --    232.4324               244.9679               277.7484
 Red. masses --      2.0815                 1.3432                 2.9474
 Frc consts  --      0.0663                 0.0475                 0.1340
 IR Inten    --      5.0273                 1.2172                 7.4580

                     13                     14                     15
                      A                      A                      A
 Frequencies --    301.2811               329.7100               335.7341
 Red. masses --      1.2247                 3.2456                 5.3035
 Frc consts  --      0.0655                 0.2079                 0.3522
 IR Inten    --     92.0954                23.9946                 2.2232

                     16                     17                     18
                      A                      A                      A
 Frequencies --    359.9727               388.6931               410.4310
 Red. masses --      3.1459                 3.7444                 5.9813
 Frc consts  --      0.2402                 0.3333                 0.5936
 IR Inten    --      0.9220                 7.2133                20.5232

                     19                     20                     21
                      A                      A                      A
 Frequencies --    435.4855               481.1712               517.7091
 Red. masses --      3.6967                 3.1019                 3.8190
 Frc consts  --      0.4131                 0.4231                 0.6031
 IR Inten    --      5.2509                 7.4915                 7.4810

                     22                     23                     24
                      A                      A                      A
 Frequencies --    558.2286               702.5106               745.3127
 Red. masses --      2.9704                 1.2904                 1.9571
 Frc consts  --      0.5454                 0.3752                 0.6405
 IR Inten    --     10.2503                 1.3971                 5.1586

                     25                     26                     27
                      A                      A                      A
 Frequencies --    758.2002               768.0541               808.1369
 Red. masses --      2.9371                 2.4130                 1.8460
 Frc consts  --      0.9948                 0.8387                 0.7103
 IR Inten    --     11.6078                 3.0013                 7.0285

                     28                     29                     30
                      A                      A                      A
 Frequencies --    820.9856               838.6373               867.7090
 Red. masses --      1.7565                 1.4523                 2.0676
 Frc consts  --      0.6976                 0.6018                 0.9172
 IR Inten    --      0.3058                 4.2439                10.5785

                     31                     32                     33
                      A                      A                      A
 Frequencies --    884.8275               937.5876               953.1438
 Red. masses --      2.0376                 1.8260                 1.7936
 Frc consts  --      0.9399                 0.9458                 0.9600
 IR Inten    --      1.1279                 4.3461                 3.2667

                     34                     35                     36
                      A                      A                      A
 Frequencies --    982.1768               987.8921              1009.7253
 Red. masses --      2.4397                 2.3714                 2.3992
 Frc consts  --      1.3866                 1.3636                 1.4412
 IR Inten    --     19.6189                 4.7274                30.4053

                     37                     38                     39
                      A                      A                      A
 Frequencies --   1042.2877              1059.6870              1068.3425
 Red. masses --      1.8239                 2.9735                 3.8010
 Frc consts  --      1.1674                 1.9673                 2.5560
 IR Inten    --     70.0648                21.0393                74.5803

                     40                     41                     42
                      A                      A                      A
 Frequencies --   1086.0886              1122.7065              1127.5713
 Red. masses --      4.6730                 1.7719                 2.0239
 Frc consts  --      3.2477                 1.3159                 1.5161
 IR Inten    --    183.4321                22.5469                 7.1847

                     43                     44                     45
                      A                      A                      A
 Frequencies --   1139.4347              1168.2866              1174.4798
 Red. masses --      1.1327                 2.9172                 1.2350
 Frc consts  --      0.8665                 2.3459                 1.0037
 IR Inten    --      6.9937                 3.3528                14.3739

                     46                     47                     48
                      A                      A                      A
 Frequencies --   1212.5023              1214.5478              1240.1245
 Red. masses --      1.2893                 1.3336                 1.2166
 Frc consts  --      1.1168                 1.1590                 1.1023
 IR Inten    --      2.7223                 6.2816                 1.2786

                     49                     50                     51
                      A                      A                      A
 Frequencies --   1245.8681              1304.0612              1312.7281
 Red. masses --      1.2768                 1.2147                 1.3825
 Frc consts  --      1.1677                 1.2170                 1.4037
 IR Inten    --      5.1746                19.9255                 2.6797

                     52                     53                     54
                      A                      A                      A
 Frequencies --   1318.4563              1336.3019              1346.6735
 Red. masses --      1.2764                 1.3285                 1.1487
 Frc consts  --      1.3073                 1.3977                 1.2274
 IR Inten    --      1.8362                21.2224                12.8508

                     55                     56                     57
                      A                      A                      A
 Frequencies --   1383.8015              1386.8961              1398.9503
 Red. masses --      1.4721                 1.2288                 1.2222
 Frc consts  --      1.6609                 1.3926                 1.4093
 IR Inten    --      6.2867                 3.1393                 7.0393

                     58                     59                     60
                      A                      A                      A
 Frequencies --   1408.9180              1417.8350              1465.4110
 Red. masses --      1.2581                 1.2215                 1.0810
 Frc consts  --      1.4715                 1.4468                 1.3677
 IR Inten    --     10.8887                62.1459                 2.5874

                     61                     62                     63
                      A                      A                      A
 Frequencies --   1468.9781              1471.7381              1482.6043
 Red. masses --      1.0853                 1.0966                 1.0948
 Frc consts  --      1.3798                 1.3995                 1.4178
 IR Inten    --      5.5117                 0.8129                 0.5494

                     64                     65                     66
                      A                      A                      A
 Frequencies --   1488.8078              1496.4585              1511.3255
 Red. masses --      1.0524                 1.0498                 1.0903
 Frc consts  --      1.3744                 1.3852                 1.4673
 IR Inten    --      3.1712                 2.5278                 0.3230

                     67                     68                     69
                      A                      A                      A
 Frequencies --   2343.4606              2344.1832              2979.1080
 Red. masses --      1.0394                11.5863                 1.0707
 Frc consts  --      3.3631                37.5126                 5.5986
 IR Inten    --     81.6966                 2.6345                49.7907

                     70                     71                     72
                      A                      A                      A
 Frequencies --   2998.7999              3015.2010              3020.4616
 Red. masses --      1.0839                 1.0825                 1.0633
 Frc consts  --      5.7432                 5.7987                 5.7156
 IR Inten    --     10.1742                17.6283                 8.8690

                     73                     74                     75
                      A                      A                      A
 Frequencies --   3020.6609              3027.0645              3034.7023
 Red. masses --      1.0637                 1.0603                 1.0467
 Frc consts  --      5.7183                 5.7241                 5.6792
 IR Inten    --     46.2900                26.8403                 7.7806

                     76                     77                     78
                      A                      A                      A
 Frequencies --   3040.7071              3057.9883              3067.6745
 Red. masses --      1.0516                 1.0957                 1.1007
 Frc consts  --      5.7286                 6.0369                 6.1029
 IR Inten    --     40.0237                28.7563                14.4082

                     79                     80                     81
                      A                      A                      A
 Frequencies --   3075.8140              3092.6925              3096.0243
 Red. masses --      1.0892                 1.1014                 1.1005
 Frc consts  --      6.0712                 6.2065                 6.2150
 IR Inten    --     11.3546                13.3475                21.7193

                     82                     83                     84
                      A                      A                      A
 Frequencies --   3110.2576              3117.3637              3814.5122
 Red. masses --      1.1014                 1.1017                 1.0662
 Frc consts  --      6.2773                 6.3079                 9.1400
 IR Inten    --     32.1699                24.0448                17.8944

 - Thermochemistry -
 -------------------
 Temperature   298.150 Kelvin.  Pressure   1.00000 Atm.
 Atom     1 has atomic number  6 and mass  12.00000

 Molecular mass:   200.09662 amu.
 Principal axes and moments of inertia in atomic units:
                           1         2         3
     Eigenvalues --  1409.811555115.810556239.65459
           X            0.99986   0.01580   0.00550
           Y           -0.01584   0.99984   0.00772
           Z           -0.00538  -0.00780   0.99996
 This molecule is an asymmetric top.
 Rotational symmetry number  1.
 Warning -- assumption of classical behavior for rotation
           may cause significant error
 Rotational temperatures (Kelvin)      0.06144     0.01693     0.01388
 Rotational constants (GHZ):           1.28013     0.35278     0.28924
 Zero-point vibrational energy     664785.0 (Joules/Mol)
                                  158.88742 (Kcal/Mol)
 Warning -- explicit consideration of  22 degrees of freedom as
           vibrations may cause significant error
 Vibrational temperatures:     39.82    61.53    83.72   123.86   181.61
          (Kelvin)            185.17   242.76   265.81   321.19   334.42
                              352.45   399.62   433.48   474.38   483.05
                              517.92   559.24   590.52   626.57   692.30
                              744.87   803.17  1010.76  1072.34  1090.88
                             1105.06  1162.73  1181.22  1206.61  1248.44
                             1273.07  1348.98  1371.36  1413.13  1421.36
                             1452.77  1499.62  1524.65  1537.11  1562.64
                             1615.32  1622.32  1639.39  1680.90  1689.81
                             1744.52  1747.46  1784.26  1792.53  1876.25
                             1888.72  1896.96  1922.64  1937.56  1990.98
                             1995.43  2012.78  2027.12  2039.95  2108.40
                             2113.53  2117.50  2133.14  2142.06  2153.07
                             2174.46  3371.72  3372.76  4286.27  4314.60
                             4338.20  4345.77  4346.06  4355.27  4366.26
                             4374.90  4399.76  4413.70  4425.41  4449.69
                             4454.49  4474.97  4485.19  5488.23

 Zero-point correction=                           0.253203 (Hartree/Particle)
 Thermal correction to Energy=                    0.268282
 Thermal correction to Enthalpy=                  0.269226
 Thermal correction to Gibbs Free Energy=         0.210201
 Sum of electronic and zero-point Energies=           -882.785197
 Sum of electronic and thermal Energies=              -882.770119
 Sum of electronic and thermal Enthalpies=            -882.769175
 Sum of electronic and thermal Free Energies=         -882.828200

                     E (Thermal)             CV                S
                      KCal/Mol        Cal/Mol-Kelvin    Cal/Mol-Kelvin
 Total                  168.349             55.878            124.230
 Electronic               0.000              0.000              0.000
 Translational            0.889              2.981             41.786
 Rotational               0.889              2.981             32.176
 Vibrational            166.572             49.916             50.268
 Vibration     1          0.593              1.984              5.990
 Vibration     2          0.595              1.980              5.127
 Vibration     3          0.596              1.974              4.518
 Vibration     4          0.601              1.959              3.747
 Vibration     5          0.611              1.927              3.003
 Vibration     6          0.611              1.925              2.965
 Vibration     7          0.625              1.881              2.450
 Vibration     8          0.631              1.861              2.280
 Vibration     9          0.649              1.806              1.933
 Vibration    10          0.653              1.791              1.860
 Vibration    11          0.660              1.771              1.767
 Vibration    12          0.679              1.715              1.547
 Vibration    13          0.693              1.671              1.410
 Vibration    14          0.713              1.616              1.262
 Vibration    15          0.717              1.604              1.232
 Vibration    16          0.734              1.555              1.122
 Vibration    17          0.757              1.494              1.005
 Vibration    18          0.775              1.448              0.925
 Vibration    19          0.796              1.393              0.841
 Vibration    20          0.837              1.292              0.707
 Vibration    21          0.873              1.211              0.615
 Vibration    22          0.914              1.122              0.527

                           ! Non-Optimized Parameters !
 Normal termination of Gaussian 16 at Tue May 23 00:35:56 2023.
