 Gaussian 16, Revision A.03,
 Gaussian 16:  ES64L-G16RevA.03 25-Dec-2016

 -----------------------------
 # opt freq b3lyp/6-31g(2df,p)
 -----------------------------

 -------------------
 Title Card Required
 -------------------
 Symbolic Z-matrix:
 Charge =  0 Multiplicity = 1

 SCF Done:  E(RB3LYP) =  -273.947856347     A.U. after   12 cycles
 SCF Done:  E(RB3LYP) =  -273.953111759     A.U. after   10 cycles
 SCF Done:  E(RB3LYP) =  -273.953907228     A.U. after   10 cycles
 SCF Done:  E(RB3LYP) =  -273.954037240     A.U. after    9 cycles
 SCF Done:  E(RB3LYP) =  -273.954078004     A.U. after    9 cycles
 SCF Done:  E(RB3LYP) =  -273.954083400     A.U. after    8 cycles
 Optimization completed.
    -- Stationary point found.
 Normal termination of Gaussian 16 at Sun May 28 15:04:17 2023.

 ----------------------------------------------------------------------
 #N Geom=AllCheck Guess=TCheck SCRF=Check GenChk RB3LYP/6-31G(2df,p) Fr
 eq
 ----------------------------------------------------------------------

 Structure from the checkpoint file:  "CC1C2CCC1C2.chk"
 -------------------
 Title Card Required
 -------------------
 Charge =  0 Multiplicity = 1

                         Standard orientation:
 ---------------------------------------------------------------------
 Center     Atomic      Atomic             Coordinates (Angstroms)
 Number     Number       Type             X           Y           Z
 ---------------------------------------------------------------------
      1          6           0        2.286512   -0.000166   -0.298390
      2          6           0        0.787919   -0.000357   -0.574482
      3          6           0       -0.099844   -1.025823    0.205992
      4          6           0       -1.480870   -0.784939   -0.436140
      5          6           0       -1.481013    0.784372   -0.436937
      6          6           0       -0.099870    1.026006    0.204520
      7          6           0       -0.116156    0.000944    1.375386
      8          1           0        2.760622   -0.882976   -0.741978
      9          1           0        2.527569   -0.000353    0.768171
     10          1           0        2.760386    0.882809   -0.741876
     11          1           0        0.628964   -0.001155   -1.660510
     12          1           0        0.212051   -2.061834    0.349853
     13          1           0       -2.296452   -1.205392    0.159443
     14          1           0       -1.549851   -1.205666   -1.443730
     15          1           0       -2.296621    1.205368    0.158214
     16          1           0       -1.550069    1.203926   -1.445005
     17          1           0        0.212332    2.062105    0.347155
     18          1           0       -0.985833    0.001371    2.039873
     19          1           0        0.796829    0.001574    1.970697
 ---------------------------------------------------------------------

 SCF Done:  E(RB3LYP) =  -273.954083400     A.U. after    1 cycles

 The electronic state is 1-A.
 Alpha  occ. eigenvalues --  -10.18091 -10.18089 -10.18031 -10.17293 -10.17276
 Alpha  occ. eigenvalues --  -10.17270 -10.16999  -0.87989  -0.73821  -0.69262
 Alpha  occ. eigenvalues --   -0.67889  -0.62017  -0.54462  -0.51561  -0.49098
 Alpha  occ. eigenvalues --   -0.46605  -0.44124  -0.40697  -0.37843  -0.36941
 Alpha  occ. eigenvalues --   -0.35792  -0.33987  -0.33212  -0.30984  -0.29480
 Alpha  occ. eigenvalues --   -0.29334  -0.28021
 Alpha virt. eigenvalues --    0.09214   0.11615   0.12563   0.12833   0.13853
 Alpha virt. eigenvalues --    0.14989   0.16208   0.16388   0.18081   0.18360
 Alpha virt. eigenvalues --    0.19733   0.20638   0.20925   0.22198   0.23174

 Mulliken charges:
               1
     1  C   -0.434684
     2  C    0.067266
     3  C   -0.011750
     4  C   -0.212097
     5  C   -0.212114
     6  C   -0.011683
     7  C   -0.229175
     8  H    0.112939
     9  H    0.116057
    10  H    0.112934
    11  H    0.053511
    12  H    0.050960
    13  H    0.091820
    14  H    0.092075
    15  H    0.091849
    16  H    0.092054
    17  H    0.050944
    18  H    0.083186
    19  H    0.095906
 Sum of Mulliken charges =  -0.00000

 Dipole moment (field-independent basis, Debye):
    X=              0.0961    Y=             -0.0001    Z=             -0.0319  Tot=              0.1012
 Quadrupole moment (field-independent basis, Debye-Ang):
   XX=            -44.9526   YY=            -44.8769   ZZ=            -44.5435
   XY=             -0.0001   XZ=             -0.1687   YZ=              0.0006

  Exact polarizability:  77.705   0.002  66.548  -0.470   0.001  67.112
 Approx polarizability: 101.814   0.003  98.388  -1.205   0.001 100.904

                      1                      2                      3
                      A                      A                      A
 Frequencies --    195.2604               262.0106               280.2957
 Red. masses --      1.0341                 2.2237                 2.5977
 Frc consts  --      0.0232                 0.0899                 0.1202
 IR Inten    --      0.0174                 0.0974                 0.1439

                      4                      5                      6
                      A                      A                      A
 Frequencies --    315.4104               453.4814               518.0745
 Red. masses --      1.6950                 2.1725                 2.4512
 Frc consts  --      0.0994                 0.2632                 0.3876
 IR Inten    --      0.0157                 0.0868                 0.5083

                      7                      8                      9
                      A                      A                      A
 Frequencies --    648.1289               772.1918               819.3127
 Red. masses --      3.7948                 2.0772                 2.6907
 Frc consts  --      0.9392                 0.7298                 1.0642
 IR Inten    --      0.0914                 1.6167                 0.2354

                     10                     11                     12
                      A                      A                      A
 Frequencies --    838.6068               842.3580               861.3790
 Red. masses --      2.6630                 1.2221                 2.1856
 Frc consts  --      1.1034                 0.5109                 0.9554
 IR Inten    --      1.8138                 0.5256                 0.3891

                     13                     14                     15
                      A                      A                      A
 Frequencies --    904.3499               938.7570               962.1017
 Red. masses --      3.0067                 1.7704                 2.1293
 Frc consts  --      1.4488                 0.9193                 1.1612
 IR Inten    --      0.1005                 0.2224                 0.0387

                     16                     17                     18
                      A                      A                      A
 Frequencies --    986.4878               996.4015              1019.3453
 Red. masses --      1.2309                 2.9096                 1.4093
 Frc consts  --      0.7058                 1.7020                 0.8628
 IR Inten    --      1.0147                 0.0165                 0.5143

                     19                     20                     21
                      A                      A                      A
 Frequencies --   1070.1921              1075.9434              1085.4218
 Red. masses --      1.2269                 1.6880                 1.1031
 Frc consts  --      0.8279                 1.1513                 0.7657
 IR Inten    --      0.0968                 0.1580                 0.0282

                     22                     23                     24
                      A                      A                      A
 Frequencies --   1108.6795              1146.1899              1172.0373
 Red. masses --      1.6769                 1.8487                 1.4879
 Frc consts  --      1.2144                 1.4310                 1.2042
 IR Inten    --      0.8781                 1.3585                 1.0987

                     25                     26                     27
                      A                      A                      A
 Frequencies --   1215.3699              1230.4439              1248.9519
 Red. masses --      1.4244                 1.9092                 1.4333
 Frc consts  --      1.2397                 1.7030                 1.3173
 IR Inten    --      0.7552                 0.3654                 0.4657

                     28                     29                     30
                      A                      A                      A
 Frequencies --   1259.5571              1272.0168              1288.9244
 Red. masses --      1.2446                 1.6376                 1.7174
 Frc consts  --      1.1634                 1.5611                 1.6811
 IR Inten    --      0.0079                 0.3073                 0.3125

                     31                     32                     33
                      A                      A                      A
 Frequencies --   1314.4187              1323.4953              1397.7876
 Red. masses --      1.5571                 1.4154                 1.3846
 Frc consts  --      1.5851                 1.4607                 1.5939
 IR Inten    --      1.9921                 1.0803                 2.9552

                     34                     35                     36
                      A                      A                      A
 Frequencies --   1414.3700              1492.3246              1492.6301
 Red. masses --      1.2872                 1.0794                 1.0796
 Frc consts  --      1.5171                 1.4164                 1.4172
 IR Inten    --      2.0793                 0.3012                 0.4033

                     37                     38                     39
                      A                      A                      A
 Frequencies --   1497.6820              1508.2654              1523.9911
 Red. masses --      1.0516                 1.0766                 1.1067
 Frc consts  --      1.3898                 1.4430                 1.5144
 IR Inten    --      1.9668                 4.4851                 2.4966

                     40                     41                     42
                      A                      A                      A
 Frequencies --   3013.3717              3029.9549              3044.5118
 Red. masses --      1.0832                 1.0380                 1.0581
 Frc consts  --      5.7951                 5.6147                 5.7786
 IR Inten    --     39.0497                39.7632                29.0913

                     43                     44                     45
                      A                      A                      A
 Frequencies --   3052.7853              3055.8918              3081.1063
 Red. masses --      1.0615                 1.0622                 1.1073
 Frc consts  --      5.8287                 5.8444                 6.1933
 IR Inten    --     52.8029                39.5455                 0.0005

                     46                     47                     48
                      A                      A                      A
 Frequencies --   3085.6393              3094.4536              3098.5443
 Red. masses --      1.1008                 1.0876                 1.0929
 Frc consts  --      6.1749                 6.1358                 6.1823
 IR Inten    --     16.9900               115.0664                 0.6029

                     49                     50                     51
                      A                      A                      A
 Frequencies --   3100.2440              3106.9969              3132.8466
 Red. masses --      1.1050                 1.0998                 1.0985
 Frc consts  --      6.2577                 6.2555                 6.3523
 IR Inten    --     41.9732                52.1722                37.2423

 - Thermochemistry -
 -------------------
 Temperature   298.150 Kelvin.  Pressure   1.00000 Atm.
 Atom     1 has atomic number  6 and mass  12.00000

 Molecular mass:    96.09390 amu.
 Principal axes and moments of inertia in atomic units:
                           1         2         3
     Eigenvalues --   380.09031 760.61917 780.71687
           X            1.00000   0.00000   0.00224
           Y           -0.00000   1.00000   0.00031
           Z           -0.00224  -0.00031   1.00000
 This molecule is an asymmetric top.
 Rotational symmetry number  1.
 Rotational temperatures (Kelvin)      0.22788     0.11387     0.11094
 Rotational constants (GHZ):           4.74819     2.37273     2.31165
 Zero-point vibrational energy     458462.8 (Joules/Mol)
                                  109.57524 (Kcal/Mol)
 Warning -- explicit consideration of   6 degrees of freedom as
           vibrations may cause significant error
 Vibrational temperatures:    280.94   376.97   403.28   453.81   652.46
          (Kelvin)            745.39   932.51  1111.01  1178.81  1206.57
                             1211.97  1239.33  1301.16  1350.66  1384.25
                             1419.34  1433.60  1466.61  1539.77  1548.04
                             1561.68  1595.14  1649.11  1686.30  1748.65
                             1770.33  1796.96  1812.22  1830.15  1854.47
                             1891.16  1904.21  2011.10  2034.96  2147.12
                             2147.56  2154.83  2170.06  2192.68  4335.57
                             4359.43  4380.37  4392.28  4396.75  4433.02
                             4439.55  4452.23  4458.11  4460.56  4470.28
                             4507.47

 Zero-point correction=                           0.174619 (Hartree/Particle)
 Thermal correction to Energy=                    0.180841
 Thermal correction to Enthalpy=                  0.181785
 Thermal correction to Gibbs Free Energy=         0.145070
 Sum of electronic and zero-point Energies=           -273.779464
 Sum of electronic and thermal Energies=              -273.773243
 Sum of electronic and thermal Enthalpies=            -273.772299
 Sum of electronic and thermal Free Energies=         -273.809013

                     E (Thermal)             CV                S
                      KCal/Mol        Cal/Mol-Kelvin    Cal/Mol-Kelvin
 Total                  113.479             25.477             77.272
 Electronic               0.000              0.000              0.000
 Translational            0.889              2.981             39.599
 Rotational               0.889              2.981             26.915
 Vibrational            111.702             19.515             10.759
 Vibration     1          0.636              1.846              2.177
 Vibration     2          0.669              1.742              1.648
 Vibration     3          0.680              1.710              1.532
 Vibration     4          0.703              1.644              1.334
 Vibration     5          0.812              1.353              0.785
 Vibration     6          0.873              1.210              0.614

                           ! Non-Optimized Parameters !
 Normal termination of Gaussian 16 at Sun May 28 15:32:05 2023.
