 Gaussian 16, Revision A.03,
 Gaussian 16:  ES64L-G16RevA.03 25-Dec-2016

 -----------------------------
 # opt freq b3lyp/6-31g(2df,p)
 -----------------------------

 -------------------
 Title Card Required
 -------------------
 Symbolic Z-matrix:
 Charge =  0 Multiplicity = 1

 SCF Done:  E(RB3LYP) =  -566.414213896     A.U. after   12 cycles
 SCF Done:  E(RB3LYP) =  -566.422442291     A.U. after   10 cycles
 SCF Done:  E(RB3LYP) =  -566.426693272     A.U. after   10 cycles
 SCF Done:  E(RB3LYP) =  -566.430193761     A.U. after   11 cycles
 SCF Done:  E(RB3LYP) =  -566.432807651     A.U. after   10 cycles
 SCF Done:  E(RB3LYP) =  -566.434508906     A.U. after   11 cycles
 SCF Done:  E(RB3LYP) =  -566.436555674     A.U. after   10 cycles
 SCF Done:  E(RB3LYP) =  -566.437792988     A.U. after   10 cycles
 SCF Done:  E(RB3LYP) =  -566.438658732     A.U. after   11 cycles
 SCF Done:  E(RB3LYP) =  -566.438915712     A.U. after    9 cycles
 SCF Done:  E(RB3LYP) =  -566.439011776     A.U. after    9 cycles
 SCF Done:  E(RB3LYP) =  -566.439028287     A.U. after    8 cycles
 SCF Done:  E(RB3LYP) =  -566.439031851     A.U. after    7 cycles
 SCF Done:  E(RB3LYP) =  -566.439033050     A.U. after    7 cycles
 SCF Done:  E(RB3LYP) =  -566.439033326     A.U. after    6 cycles
 SCF Done:  E(RB3LYP) =  -566.439033528     A.U. after    6 cycles
 SCF Done:  E(RB3LYP) =  -566.439033564     A.U. after    5 cycles
 Optimization completed.
    -- Stationary point found.
 Normal termination of Gaussian 16 at Mon May 22 18:07:45 2023.

 ----------------------------------------------------------------------
 #N Geom=AllCheck Guess=TCheck SCRF=Check GenChk RB3LYP/6-31G(2df,p) Fr
 eq
 ----------------------------------------------------------------------

 Structure from the checkpoint file:  "CC1CCCCCCCqCrqCrCCN1.chk"
 -------------------
 Title Card Required
 -------------------
 Charge =  0 Multiplicity = 1

                         Standard orientation:
 ---------------------------------------------------------------------
 Center     Atomic      Atomic             Coordinates (Angstroms)
 Number     Number       Type             X           Y           Z
 ---------------------------------------------------------------------
      1          6           0        2.927206   -2.414304   -0.005631
      2          6           0        2.187642   -1.096435    0.256952
      3          6           0        3.023906    0.109063   -0.207265
      4          6           0        2.507644    1.489473    0.258224
      5          6           0        1.444277    2.184721   -0.637654
      6          6           0        0.216979    2.708468    0.133247
      7          6           0       -0.723997    1.614356    0.674394
      8          6           0       -1.641149    1.013437   -0.410307
      9          6           0       -2.395550   -0.309387   -0.082193
     10          6           0       -3.614123   -0.383912   -1.026963
     11          6           0       -2.913557   -0.307986    1.368418
     12          6           0       -1.555999   -1.592298   -0.357787
     13          6           0       -0.190759   -1.782476    0.322210
     14          7           0        0.881562   -1.111453   -0.408838
     15          1           0        3.875591   -2.446547    0.541124
     16          1           0        3.133769   -2.527375   -1.074765
     17          1           0        2.331538   -3.275193    0.312370
     18          1           0        2.061571   -0.995457    1.353862
     19          1           0        3.112738    0.085230   -1.301798
     20          1           0        4.037640   -0.032902    0.184223
     21          1           0        3.366736    2.162506    0.350457
     22          1           0        2.117309    1.382732    1.278556
     23          1           0        1.122096    1.515920   -1.445180
     24          1           0        1.912251    3.029850   -1.154833
     25          1           0       -0.357691    3.383411   -0.514604
     26          1           0        0.572788    3.323357    0.969763
     27          1           0       -1.352562    2.045703    1.461130
     28          1           0       -0.131112    0.838660    1.170072
     29          1           0       -1.084053    0.864785   -1.345223
     30          1           0       -2.390444    1.779251   -0.651514
     31          1           0       -4.315733    0.433759   -0.828898
     32          1           0       -4.156153   -1.327791   -0.901882
     33          1           0       -3.305543   -0.313632   -2.076126
     34          1           0       -3.525167    0.579433    1.566817
     35          1           0       -2.103083   -0.321089    2.102313
     36          1           0       -3.539812   -1.188077    1.552055
     37          1           0       -1.389443   -1.677926   -1.439263
     38          1           0       -2.189244   -2.444028   -0.079780
     39          1           0        0.031708   -2.856327    0.342072
     40          1           0       -0.239126   -1.468999    1.382675
     41          1           0        0.597373   -0.165394   -0.605626
 ---------------------------------------------------------------------

 SCF Done:  E(RB3LYP) =  -566.439033564     A.U. after    1 cycles

 The electronic state is 1-A.
 Alpha  occ. eigenvalues --  -14.29762 -10.20080 -10.19484 -10.19119 -10.17802
 Alpha  occ. eigenvalues --  -10.17757 -10.17665 -10.17562 -10.17510 -10.17363
 Alpha  occ. eigenvalues --  -10.17119 -10.16703 -10.16667 -10.16183  -0.89586
 Alpha  occ. eigenvalues --   -0.82154  -0.80076  -0.76474  -0.74038  -0.69891
 Alpha  occ. eigenvalues --   -0.69189  -0.67994  -0.64469  -0.61938  -0.59181
 Alpha  occ. eigenvalues --   -0.56317  -0.56163  -0.52335  -0.49001  -0.46828
 Alpha  occ. eigenvalues --   -0.45779  -0.45240  -0.44816  -0.43137  -0.41918
 Alpha  occ. eigenvalues --   -0.40753  -0.40376  -0.40147  -0.39087  -0.38749
 Alpha  occ. eigenvalues --   -0.38203  -0.36996  -0.36644  -0.35313  -0.34996
 Alpha  occ. eigenvalues --   -0.34722  -0.34071  -0.33653  -0.32433  -0.32006
 Alpha  occ. eigenvalues --   -0.30745  -0.30543  -0.29912  -0.29586  -0.29318
 Alpha  occ. eigenvalues --   -0.21200
 Alpha virt. eigenvalues --    0.07442   0.08196   0.09031   0.10283   0.11881
 Alpha virt. eigenvalues --    0.12036   0.12666   0.13336   0.13696   0.14160
 Alpha virt. eigenvalues --    0.14723   0.15431   0.15818   0.16182   0.16575

 Mulliken charges:
               1
     1  C   -0.380899
     2  C    0.085279
     3  C   -0.215821
     4  C   -0.198281
     5  C   -0.193370
     6  C   -0.199789
     7  C   -0.211057
     8  C   -0.207532
     9  C    0.260758
    10  C   -0.403362
    11  C   -0.407972
    12  C   -0.220338
    13  C   -0.159389
    14  N   -0.301013
    15  H    0.102878
    16  H    0.116445
    17  H    0.111078
    18  H    0.046956
    19  H    0.099156
    20  H    0.092304
    21  H    0.095169
    22  H    0.097104
    23  H    0.106074
    24  H    0.090634
    25  H    0.089561
    26  H    0.091132
    27  H    0.094222
    28  H    0.108832
    29  H    0.097924
    30  H    0.087281
    31  H    0.104950
    32  H    0.105850
    33  H    0.108792
    34  H    0.106893
    35  H    0.114904
    36  H    0.104876
    37  H    0.098983
    38  H    0.088918
    39  H    0.096855
    40  H    0.073662
    41  H    0.221352
 Sum of Mulliken charges =  -0.00000

 Dipole moment (field-independent basis, Debye):
    X=             -0.1644    Y=              0.8160    Z=              0.5322  Tot=              0.9880
 Quadrupole moment (field-independent basis, Debye-Ang):
   XX=            -91.3241   YY=            -91.8931   ZZ=            -93.3110
   XY=              1.4087   XZ=              0.5954   YZ=             -1.4039

  Exact polarizability: 168.043   0.518 150.610   0.363  -0.805 123.284
 Approx polarizability: 210.523   0.533 206.818   0.176  -1.700 202.537

                      1                      2                      3
                      A                      A                      A
 Frequencies --     49.2656                68.8246               136.1319
 Red. masses --      2.7391                 2.7941                 2.7334
 Frc consts  --      0.0039                 0.0078                 0.0298
 IR Inten    --      0.1181                 0.0778                 0.1864

                      4                      5                      6
                      A                      A                      A
 Frequencies --    141.9548               161.3935               181.9877
 Red. masses --      2.8875                 2.7789                 2.3140
 Frc consts  --      0.0343                 0.0426                 0.0452
 IR Inten    --      0.4533                 0.1140                 0.0957

                      7                      8                      9
                      A                      A                      A
 Frequencies --    215.6418               219.2317               227.1948
 Red. masses --      2.2723                 2.6113                 1.1868
 Frc consts  --      0.0623                 0.0739                 0.0361
 IR Inten    --      0.0325                 0.4521                 0.0600

                     10                     11                     12
                      A                      A                      A
 Frequencies --    241.9381               251.1384               265.4654
 Red. masses --      1.7835                 1.3720                 1.8888
 Frc consts  --      0.0615                 0.0510                 0.0784
 IR Inten    --      0.1503                 0.1672                 0.0738

                     13                     14                     15
                      A                      A                      A
 Frequencies --    276.7898               289.5983               311.1780
 Red. masses --      1.6633                 1.1950                 2.6437
 Frc consts  --      0.0751                 0.0591                 0.1508
 IR Inten    --      0.6389                 0.0450                 0.1219

                     16                     17                     18
                      A                      A                      A
 Frequencies --    334.9120               350.5433               379.3143
 Red. masses --      2.0275                 2.0644                 2.3610
 Frc consts  --      0.1340                 0.1495                 0.2001
 IR Inten    --      0.1299                 0.2971                 1.0850

                     19                     20                     21
                      A                      A                      A
 Frequencies --    401.2475               426.0601               443.9410
 Red. masses --      2.1892                 1.9240                 2.6270
 Frc consts  --      0.2077                 0.2058                 0.3050
 IR Inten    --      0.3218                 0.1652                 0.3258

                     22                     23                     24
                      A                      A                      A
 Frequencies --    461.7186               472.6071               522.2584
 Red. masses --      2.1613                 2.0943                 2.5015
 Frc consts  --      0.2715                 0.2756                 0.4020
 IR Inten    --      0.1902                 1.7954                 2.3342

                     25                     26                     27
                      A                      A                      A
 Frequencies --    548.4147               691.6696               716.3528
 Red. masses --      2.5687                 1.5189                 2.4696
 Frc consts  --      0.4552                 0.4281                 0.7467
 IR Inten    --      0.5315                28.3053                 1.7669

                     28                     29                     30
                      A                      A                      A
 Frequencies --    747.2633               752.8757               801.9254
 Red. masses --      1.5738                 1.3956                 1.7394
 Frc consts  --      0.5178                 0.4661                 0.6591
 IR Inten    --      5.2497                 6.5505                 1.4685

                     31                     32                     33
                      A                      A                      A
 Frequencies --    833.8438               861.1676               868.6007
 Red. masses --      1.8972                 2.0790                 2.0617
 Frc consts  --      0.7772                 0.9084                 0.9164
 IR Inten    --      1.8055                 0.9192                 0.7339

                     34                     35                     36
                      A                      A                      A
 Frequencies --    900.4486               923.0800               933.4605
 Red. masses --      1.8240                 2.1948                 1.7926
 Frc consts  --      0.8713                 1.1018                 0.9203
 IR Inten    --      0.8349                 0.2689                 1.4916

                     37                     38                     39
                      A                      A                      A
 Frequencies --    941.2830               953.1847               969.6411
 Red. masses --      1.5528                 1.6850                 1.8119
 Frc consts  --      0.8106                 0.9020                 1.0037
 IR Inten    --      1.6509                 0.4440                 0.9229

                     40                     41                     42
                      A                      A                      A
 Frequencies --    996.0924              1004.5892              1020.0732
 Red. masses --      1.5398                 1.8220                 1.6944
 Frc consts  --      0.9002                 1.0834                 1.0388
 IR Inten    --      1.1376                 0.7565                 5.9408

                     43                     44                     45
                      A                      A                      A
 Frequencies --   1044.6152              1053.0042              1062.5457
 Red. masses --      2.3077                 1.9312                 1.9755
 Frc consts  --      1.4837                 1.2616                 1.3141
 IR Inten    --      1.7284                 0.4504                 1.2409

                     46                     47                     48
                      A                      A                      A
 Frequencies --   1080.9819              1089.8529              1110.3702
 Red. masses --      2.1705                 2.1770                 2.4079
 Frc consts  --      1.4943                 1.5235                 1.7492
 IR Inten    --      1.8108                 0.1607                10.3846

                     49                     50                     51
                      A                      A                      A
 Frequencies --   1122.0265              1134.4067              1160.1814
 Red. masses --      1.8674                 1.7894                 1.6923
 Frc consts  --      1.3851                 1.3567                 1.3421
 IR Inten    --      0.9824                10.2295                10.6366

                     52                     53                     54
                      A                      A                      A
 Frequencies --   1169.1154              1179.9473              1204.9760
 Red. masses --      1.6982                 2.1632                 1.8463
 Frc consts  --      1.3676                 1.7745                 1.5795
 IR Inten    --      1.0916                 9.1508                18.1996

                     55                     56                     57
                      A                      A                      A
 Frequencies --   1209.8693              1236.5779              1251.9107
 Red. masses --      1.3249                 1.4431                 1.6368
 Frc consts  --      1.1427                 1.3002                 1.5115
 IR Inten    --      5.0706                 1.9799                 2.2016

                     58                     59                     60
                      A                      A                      A
 Frequencies --   1261.9031              1289.6047              1305.1977
 Red. masses --      1.3912                 1.2815                 1.3181
 Frc consts  --      1.3053                 1.2557                 1.3229
 IR Inten    --     15.5470                 2.7002                 6.4036

                     61                     62                     63
                      A                      A                      A
 Frequencies --   1324.3837              1331.5288              1340.0818
 Red. masses --      1.3462                 1.2638                 1.1976
 Frc consts  --      1.3912                 1.3202                 1.2671
 IR Inten    --      0.1940                 2.2472                 2.5037

                     64                     65                     66
                      A                      A                      A
 Frequencies --   1346.8637              1353.7141              1367.1742
 Red. masses --      1.1848                 1.2728                 1.2872
 Frc consts  --      1.2663                 1.3742                 1.4175
 IR Inten    --      1.4052                 5.4381                20.2036

                     67                     68                     69
                      A                      A                      A
 Frequencies --   1378.0790              1380.6644              1383.1751
 Red. masses --      1.3893                 1.4056                 1.4272
 Frc consts  --      1.5545                 1.5787                 1.6087
 IR Inten    --      0.0970                 0.9095                 2.7442

                     70                     71                     72
                      A                      A                      A
 Frequencies --   1393.4240              1395.4198              1399.5944
 Red. masses --      1.4104                 1.3853                 1.2622
 Frc consts  --      1.6134                 1.5893                 1.4567
 IR Inten    --      0.9639                19.6277                 5.0353

                     73                     74                     75
                      A                      A                      A
 Frequencies --   1405.9752              1407.9360              1424.9181
 Red. masses --      1.2643                 1.3630                 1.2447
 Frc consts  --      1.4725                 1.5919                 1.4891
 IR Inten    --     12.2679                 0.4987                 4.2331

                     76                     77                     78
                      A                      A                      A
 Frequencies --   1469.3577              1477.5493              1481.8005
 Red. masses --      1.0841                 1.0868                 1.1059
 Frc consts  --      1.3791                 1.3980                 1.4307
 IR Inten    --      0.6753                 1.5187                12.9972

                     79                     80                     81
                      A                      A                      A
 Frequencies --   1485.5459              1488.0413              1489.0610
 Red. masses --      1.0498                 1.0844                 1.0601
 Frc consts  --      1.3650                 1.4147                 1.3849
 IR Inten    --      0.4897                 3.3148                 2.7194

                     82                     83                     84
                      A                      A                      A
 Frequencies --   1493.0471              1493.7731              1498.2592
 Red. masses --      1.0813                 1.0713                 1.0523
 Frc consts  --      1.4202                 1.4084                 1.3918
 IR Inten    --      1.7736                 6.3345                 1.0190

                     85                     86                     87
                      A                      A                      A
 Frequencies --   1503.1932              1503.9695              1511.1078
 Red. masses --      1.0797                 1.0632                 1.0870
 Frc consts  --      1.4374                 1.4169                 1.4625
 IR Inten    --      4.2678                 1.0120                 7.2649

                     88                     89                     90
                      A                      A                      A
 Frequencies --   1513.7836              1520.4634              1528.5151
 Red. masses --      1.0659                 1.1063                 1.1186
 Frc consts  --      1.4391                 1.5069                 1.5398
 IR Inten    --     11.0330                 1.9714                17.7579

                     91                     92                     93
                      A                      A                      A
 Frequencies --   2886.2285              2915.9736              3005.9081
 Red. masses --      1.0803                 1.0734                 1.0594
 Frc consts  --      5.3024                 5.3777                 5.6400
 IR Inten    --     42.4724                61.4208                 9.9501

                     94                     95                     96
                      A                      A                      A
 Frequencies --   3012.5979              3013.4133              3018.3050
 Red. masses --      1.0618                 1.0585                 1.0624
 Frc consts  --      5.6776                 5.6631                 5.7027
 IR Inten    --     34.1713                 5.7521                11.7517

                     97                     98                     99
                      A                      A                      A
 Frequencies --   3020.8920              3022.2681              3025.9671
 Red. masses --      1.0380                 1.0627                 1.0718
 Frc consts  --      5.5809                 5.7191                 5.7822
 IR Inten    --     35.9998                16.6548                17.7766

                    100                    101                    102
                      A                      A                      A
 Frequencies --   3028.6146              3032.2136              3033.8569
 Red. masses --      1.0420                 1.0452                 1.0890
 Frc consts  --      5.6313                 5.6622                 5.9059
 IR Inten    --     21.5397                17.7050                 5.4293

                    103                    104                    105
                      A                      A                      A
 Frequencies --   3037.7978              3041.5887              3046.4065
 Red. masses --      1.0708                 1.0757                 1.0926
 Frc consts  --      5.8219                 5.8633                 5.9746
 IR Inten    --     67.2799                20.5440                14.0281

                    106                    107                    108
                      A                      A                      A
 Frequencies --   3056.3191              3058.0006              3061.7999
 Red. masses --      1.0995                 1.0961                 1.1013
 Frc consts  --      6.0510                 6.0392                 6.0827
 IR Inten    --     24.3894                57.3996                49.3015

                    109                    110                    111
                      A                      A                      A
 Frequencies --   3070.3741              3080.9791              3086.9772
 Red. masses --      1.0966                 1.0993                 1.1016
 Frc consts  --      6.0911                 6.1482                 6.1848
 IR Inten    --     82.6148                32.8170                 6.6268

                    112                    113                    114
                      A                      A                      A
 Frequencies --   3090.8056              3093.8637              3103.0845
 Red. masses --      1.1012                 1.1008                 1.1007
 Frc consts  --      6.1979                 6.2079                 6.2446
 IR Inten    --     37.8848                71.8562                40.0025

                    115                    116                    117
                      A                      A                      A
 Frequencies --   3107.2616              3108.5236              3634.7046
 Red. masses --      1.0989                 1.1017                 1.0722
 Frc consts  --      6.2512                 6.2722                 8.3454
 IR Inten    --     35.2944                29.1524                 8.9033

 - Thermochemistry -
 -------------------
 Temperature   298.150 Kelvin.  Pressure   1.00000 Atm.
 Atom     1 has atomic number  6 and mass  12.00000

 Molecular mass:   197.21435 amu.
 Principal axes and moments of inertia in atomic units:
                           1         2         3
     Eigenvalues --  2068.637513730.721335141.70338
           X            1.00000  -0.00269   0.00099
           Y            0.00269   0.99999  -0.00389
           Z           -0.00098   0.00390   0.99999
 This molecule is an asymmetric top.
 Rotational symmetry number  1.
 Warning -- assumption of classical behavior for rotation
           may cause significant error
 Rotational temperatures (Kelvin)      0.04187     0.02322     0.01685
 Rotational constants (GHZ):           0.87243     0.48375     0.35100
 Zero-point vibrational energy    1011122.7 (Joules/Mol)
                                  241.66413 (Kcal/Mol)
 Warning -- explicit consideration of  25 degrees of freedom as
           vibrations may cause significant error
 Vibrational temperatures:     70.88    99.02   195.86   204.24   232.21
          (Kelvin)            261.84   310.26   315.43   326.88   348.09
                              361.33   381.95   398.24   416.67   447.72
                              481.86   504.35   545.75   577.31   613.01
                              638.73   664.31   679.98   751.41   789.05
                              995.16  1030.67  1075.15  1083.22  1153.79
                             1199.72  1239.03  1249.72  1295.54  1328.11
                             1343.04  1354.30  1371.42  1395.10  1433.15
                             1445.38  1467.66  1502.97  1515.04  1528.77
                             1555.29  1568.06  1597.58  1614.35  1632.16
                             1669.24  1682.10  1697.68  1733.69  1740.73
                             1779.16  1801.22  1815.60  1855.45  1877.89
                             1905.49  1915.77  1928.08  1937.84  1947.69
                             1967.06  1982.75  1986.47  1990.08  2004.83
                             2007.70  2013.70  2022.88  2025.71  2050.14
                             2114.08  2125.86  2131.98  2137.37  2140.96
                             2142.43  2148.16  2149.21  2155.66  2162.76
                             2163.88  2174.15  2178.00  2187.61  2199.19
                             4152.64  4195.44  4324.83  4334.46  4335.63
                             4342.67  4346.39  4348.37  4353.69  4357.50
                             4362.68  4365.04  4370.71  4376.17  4383.10
                             4397.36  4399.78  4405.25  4417.58  4432.84
                             4441.47  4446.98  4451.38  4464.65  4470.66
                             4472.47  5229.53

 Zero-point correction=                           0.385116 (Hartree/Particle)
 Thermal correction to Energy=                    0.400908
 Thermal correction to Enthalpy=                  0.401852
 Thermal correction to Gibbs Free Energy=         0.344067
 Sum of electronic and zero-point Energies=           -566.053917
 Sum of electronic and thermal Energies=              -566.038126
 Sum of electronic and thermal Enthalpies=            -566.037181
 Sum of electronic and thermal Free Energies=         -566.094966

                     E (Thermal)             CV                S
                      KCal/Mol        Cal/Mol-Kelvin    Cal/Mol-Kelvin
 Total                  251.574             63.587            121.618
 Electronic               0.000              0.000              0.000
 Translational            0.889              2.981             41.742
 Rotational               0.889              2.981             32.051
 Vibrational            249.796             57.625             47.825
 Vibration     1          0.595              1.978              4.847
 Vibration     2          0.598              1.969              4.187
 Vibration     3          0.614              1.917              2.858
 Vibration     4          0.615              1.911              2.777
 Vibration     5          0.622              1.890              2.533
 Vibration     6          0.630              1.864              2.308
 Vibration     7          0.645              1.817              1.995
 Vibration     8          0.647              1.812              1.965
 Vibration     9          0.651              1.800              1.901
 Vibration    10          0.658              1.776              1.789
 Vibration    11          0.663              1.761              1.723
 Vibration    12          0.671              1.736              1.626
 Vibration    13          0.678              1.716              1.553
 Vibration    14          0.686              1.693              1.476
 Vibration    15          0.700              1.652              1.356
 Vibration    16          0.716              1.606              1.236
 Vibration    17          0.727              1.574              1.164
 Vibration    18          0.749              1.514              1.042
 Vibration    19          0.767              1.467              0.958
 Vibration    20          0.788              1.414              0.872
 Vibration    21          0.803              1.374              0.814
 Vibration    22          0.819              1.335              0.761
 Vibration    23          0.829              1.311              0.730
 Vibration    24          0.877              1.201              0.605
 Vibration    25          0.904              1.143              0.547

 Optimization completed.
    -- Stationary point found.
 Normal termination of Gaussian 16 at Mon May 22 22:03:00 2023.
