 Gaussian 16, Revision A.03,
 Gaussian 16:  ES64L-G16RevA.03 25-Dec-2016

 -----------------------------
 # opt freq b3lyp/6-31g(2df,p)
 -----------------------------

 -------------------
 Title Card Required
 -------------------
 Symbolic Z-matrix:
 Charge =  0 Multiplicity = 1

 SCF Done:  E(RB3LYP) =  -273.821515730     A.U. after   12 cycles
 SCF Done:  E(RB3LYP) =  -273.858391364     A.U. after   11 cycles
 SCF Done:  E(RB3LYP) =  -273.897155335     A.U. after   11 cycles
 SCF Done:  E(RB3LYP) =  -273.907900595     A.U. after   10 cycles
 SCF Done:  E(RB3LYP) =  -273.912791342     A.U. after   11 cycles
 SCF Done:  E(RB3LYP) =  -273.913071268     A.U. after    9 cycles
 SCF Done:  E(RB3LYP) =  -273.913504917     A.U. after   10 cycles
 SCF Done:  E(RB3LYP) =  -273.913564596     A.U. after   10 cycles
 SCF Done:  E(RB3LYP) =  -273.914446235     A.U. after    9 cycles
 SCF Done:  E(RB3LYP) =  -273.916024841     A.U. after   10 cycles
 SCF Done:  E(RB3LYP) =  -273.916041256     A.U. after   10 cycles
 SCF Done:  E(RB3LYP) =  -273.916445003     A.U. after   10 cycles
 SCF Done:  E(RB3LYP) =  -273.916450260     A.U. after    8 cycles
 SCF Done:  E(RB3LYP) =  -273.916450642     A.U. after    6 cycles
 Optimization completed.
    -- Stationary point found.
 Normal termination of Gaussian 16 at Sun May 28 05:05:30 2023.

 ----------------------------------------------------------------------
 #N Geom=AllCheck Guess=TCheck SCRF=Check GenChk RB3LYP/6-31G(2df,p) Fr
 eq
 ----------------------------------------------------------------------

 Structure from the checkpoint file:  "CC1C2CC1qCrC2.chk"
 -------------------
 Title Card Required
 -------------------
 Charge =  0 Multiplicity = 1

                         Standard orientation:
 ---------------------------------------------------------------------
 Center     Atomic      Atomic             Coordinates (Angstroms)
 Number     Number       Type             X           Y           Z
 ---------------------------------------------------------------------
      1          6           0        2.054773    0.697287   -0.016592
      2          6           0        0.817869    0.004220   -0.568850
      3          6           0        0.303729   -1.357434   -0.002874
      4          6           0       -1.050416   -1.039963   -0.695550
      5          6           0       -0.619933    0.289880   -0.000504
      6          6           0       -1.357699    1.602994    0.000531
      7          6           0       -0.245380   -0.592834    1.233887
      8          1           0        2.963425    0.201719   -0.376740
      9          1           0        2.098448    0.708402    1.075453
     10          1           0        2.096954    1.737711   -0.358980
     11          1           0        0.848735    0.025533   -1.665947
     12          1           0        0.832624   -2.311868   -0.004511
     13          1           0       -1.935905   -1.536617   -0.288120
     14          1           0       -1.057928   -1.041012   -1.790086
     15          1           0       -2.347133    1.500031    0.460028
     16          1           0       -1.499977    1.976263   -1.019991
     17          1           0       -0.807588    2.366385    0.562312
     18          1           0       -1.083639   -1.061994    1.757984
     19          1           0        0.474326   -0.189448    1.948306
 ---------------------------------------------------------------------

 SCF Done:  E(RB3LYP) =  -273.916450642     A.U. after    1 cycles

 The electronic state is 1-A.
 Alpha  occ. eigenvalues --  -10.19750 -10.19083 -10.18393 -10.17691 -10.17607
 Alpha  occ. eigenvalues --  -10.17123 -10.16896  -0.90329  -0.72874  -0.71993
 Alpha  occ. eigenvalues --   -0.65825  -0.61289  -0.58262  -0.51390  -0.45820
 Alpha  occ. eigenvalues --   -0.45447  -0.43094  -0.41639  -0.40385  -0.38879
 Alpha  occ. eigenvalues --   -0.37238  -0.34103  -0.30773  -0.30399  -0.29518
 Alpha  occ. eigenvalues --   -0.29437  -0.28311
 Alpha virt. eigenvalues --    0.09537   0.11859   0.12804   0.13760   0.14890
 Alpha virt. eigenvalues --    0.15252   0.15557   0.15897   0.16524   0.17147
 Alpha virt. eigenvalues --    0.18063   0.19197   0.20023   0.20583   0.22378

 Mulliken charges:
               1
     1  C   -0.444626
     2  C    0.040076
     3  C   -0.054290
     4  C   -0.251865
     5  C    0.338890
     6  C   -0.514979
     7  C   -0.260981
     8  H    0.115506
     9  H    0.116068
    10  H    0.114667
    11  H    0.054275
    12  H    0.063113
    13  H    0.082169
    14  H    0.081948
    15  H    0.116943
    16  H    0.115714
    17  H    0.116939
    18  H    0.083464
    19  H    0.086968
 Sum of Mulliken charges =  -0.00000

 Dipole moment (field-independent basis, Debye):
    X=              0.0086    Y=              0.2282    Z=             -0.0253  Tot=              0.2297
 Quadrupole moment (field-independent basis, Debye-Ang):
   XX=            -44.7497   YY=            -45.1589   ZZ=            -44.7371
   XY=             -0.0018   XZ=             -0.1948   YZ=             -0.0790

  Exact polarizability:  76.129   1.815  71.803  -0.310  -0.201  67.921
 Approx polarizability: 103.995   2.116 101.116  -0.661  -0.385 103.131

                      1                      2                      3
                      A                      A                      A
 Frequencies --    172.1549               190.4981               200.1899
 Red. masses --      1.0451                 1.8273                 1.1783
 Frc consts  --      0.0182                 0.0391                 0.0278
 IR Inten    --      0.0023                 0.0329                 0.0274

                      4                      5                      6
                      A                      A                      A
 Frequencies --    293.2932               345.5515               366.1947
 Red. masses --      2.2944                 2.5218                 2.2572
 Frc consts  --      0.1163                 0.1774                 0.1783
 IR Inten    --      0.0134                 0.1808                 0.1620

                      7                      8                      9
                      A                      A                      A
 Frequencies --    546.0087               575.9056               621.7521
 Red. masses --      2.1744                 2.1422                 3.2281
 Frc consts  --      0.3819                 0.4186                 0.7352
 IR Inten    --      0.1376                 1.4541                 0.0042

                     10                     11                     12
                      A                      A                      A
 Frequencies --    748.2944               784.4420               786.8825
 Red. masses --      2.7203                 2.2470                 2.5429
 Frc consts  --      0.8974                 0.8146                 0.9277
 IR Inten    --      0.0529                 0.4956                 0.3356

                     13                     14                     15
                      A                      A                      A
 Frequencies --    889.0890               906.1596               946.7335
 Red. masses --      2.7650                 1.9170                 2.2269
 Frc consts  --      1.2878                 0.9275                 1.1760
 IR Inten    --      0.1618                 0.0000                 0.4787

                     16                     17                     18
                      A                      A                      A
 Frequencies --    996.9540              1004.0117              1021.0046
 Red. masses --      1.2306                 1.0963                 1.1681
 Frc consts  --      0.7206                 0.6511                 0.7174
 IR Inten    --      0.2183                 0.4237                 2.4728

                     19                     20                     21
                      A                      A                      A
 Frequencies --   1021.9936              1056.4567              1117.5505
 Red. masses --      1.1587                 1.5819                 1.7960
 Frc consts  --      0.7131                 1.0402                 1.3216
 IR Inten    --      2.5882                 2.4342                 1.2655

                     22                     23                     24
                      A                      A                      A
 Frequencies --   1120.4270              1147.8962              1154.7362
 Red. masses --      1.5784                 2.2784                 1.5102
 Frc consts  --      1.1674                 1.7688                 1.1865
 IR Inten    --      0.4579                 1.3875                 1.6103

                     25                     26                     27
                      A                      A                      A
 Frequencies --   1178.8048              1203.9334              1229.1895
 Red. masses --      1.6119                 1.6455                 1.8091
 Frc consts  --      1.3197                 1.4053                 1.6105
 IR Inten    --      0.1599                 1.2249                 0.0402

                     28                     29                     30
                      A                      A                      A
 Frequencies --   1237.1821              1254.4585              1322.5364
 Red. masses --      1.8991                 1.9622                 2.9463
 Frc consts  --      1.7126                 1.8193                 3.0363
 IR Inten    --      3.5757                 0.4839                23.1449

                     31                     32                     33
                      A                      A                      A
 Frequencies --   1404.5732              1408.2147              1422.9515
 Red. masses --      1.2441                 1.3146                 1.3851
 Frc consts  --      1.4460                 1.5359                 1.6524
 IR Inten    --      1.0281                 2.6800                10.1036

                     34                     35                     36
                      A                      A                      A
 Frequencies --   1488.5183              1489.4120              1492.5196
 Red. masses --      1.0594                 1.0516                 1.0588
 Frc consts  --      1.3830                 1.3745                 1.3896
 IR Inten    --      3.7131                 4.3472                 1.1557

                     37                     38                     39
                      A                      A                      A
 Frequencies --   1496.1200              1511.0428              1545.7586
 Red. masses --      1.0476                 1.0847                 1.1742
 Frc consts  --      1.3815                 1.4591                 1.6530
 IR Inten    --      3.6263                 2.8319                 2.2892

                     40                     41                     42
                      A                      A                      A
 Frequencies --   3014.4473              3022.0243              3030.6142
 Red. masses --      1.0814                 1.0355                 1.0391
 Frc consts  --      5.7896                 5.5717                 5.6232
 IR Inten    --     36.4657                30.4399                39.6263

                     43                     44                     45
                      A                      A                      A
 Frequencies --   3038.6247              3053.6328              3084.3495
 Red. masses --      1.0541                 1.0580                 1.1002
 Frc consts  --      5.7346                 5.8127                 6.1669
 IR Inten    --     59.5177                27.4713                24.0268

                     46                     47                     48
                      A                      A                      A
 Frequencies --   3088.6903              3089.6827              3097.5185
 Red. masses --      1.1007                 1.1009                 1.0923
 Frc consts  --      6.1869                 6.1919                 6.1750
 IR Inten    --     19.7783                15.8577                68.5509

                     49                     50                     51
                      A                      A                      A
 Frequencies --   3102.3117              3108.9847              3121.7024
 Red. masses --      1.1093                 1.1027                 1.1009
 Frc consts  --      6.2902                 6.2800                 6.3207
 IR Inten    --     26.2024                60.6286                45.6065

 - Thermochemistry -
 -------------------
 Temperature   298.150 Kelvin.  Pressure   1.00000 Atm.
 Atom     1 has atomic number  6 and mass  12.00000

 Molecular mass:    96.09390 amu.
 Principal axes and moments of inertia in atomic units:
                           1         2         3
     Eigenvalues --   522.85727 637.32102 845.72424
           X            0.99983   0.01793   0.00482
           Y           -0.01794   0.99984   0.00196
           Z           -0.00479  -0.00204   0.99999
 This molecule is an asymmetric top.
 Rotational symmetry number  1.
 Warning -- assumption of classical behavior for rotation
           may cause significant error
 Rotational temperatures (Kelvin)      0.16566     0.13590     0.10241
 Rotational constants (GHZ):           3.45169     2.83176     2.13396
 Zero-point vibrational energy     451901.2 (Joules/Mol)
                                  108.00698 (Kcal/Mol)
 Warning -- explicit consideration of   8 degrees of freedom as
           vibrations may cause significant error
 Vibrational temperatures:    247.69   274.08   288.03   421.98   497.17
          (Kelvin)            526.87   785.58   828.60   894.56  1076.63
                             1128.64  1132.15  1279.20  1303.76  1362.14
                             1434.39  1444.55  1469.00  1470.42  1520.01
                             1607.91  1612.04  1651.57  1661.41  1696.04
                             1732.19  1768.53  1780.03  1804.89  1902.83
                             2020.87  2026.11  2047.31  2141.65  2142.93
                             2147.40  2152.58  2174.05  2224.00  4337.12
                             4348.02  4360.38  4371.90  4393.50  4437.69
                             4443.94  4445.36  4456.64  4463.53  4473.14
                             4491.43

 Zero-point correction=                           0.172120 (Hartree/Particle)
 Thermal correction to Energy=                    0.179158
 Thermal correction to Enthalpy=                  0.180102
 Thermal correction to Gibbs Free Energy=         0.141724
 Sum of electronic and zero-point Energies=           -273.744331
 Sum of electronic and thermal Energies=              -273.737293
 Sum of electronic and thermal Enthalpies=            -273.736349
 Sum of electronic and thermal Free Energies=         -273.774727

                     E (Thermal)             CV                S
                      KCal/Mol        Cal/Mol-Kelvin    Cal/Mol-Kelvin
 Total                  112.423             27.734             80.773
 Electronic               0.000              0.000              0.000
 Translational            0.889              2.981             39.599
 Rotational               0.889              2.981             27.135
 Vibrational            110.646             21.772             14.039
 Vibration     1          0.626              1.877              2.412
 Vibration     2          0.634              1.853              2.223
 Vibration     3          0.638              1.840              2.131
 Vibration     4          0.688              1.686              1.455
 Vibration     5          0.724              1.584              1.186
 Vibration     6          0.739              1.542              1.096
 Vibration     7          0.901              1.148              0.553
 Vibration     8          0.932              1.083              0.493

                           ! Non-Optimized Parameters !
 Normal termination of Gaussian 16 at Sun May 28 05:25:23 2023.
