 Gaussian 16, Revision A.03,
 Gaussian 16:  ES64L-G16RevA.03 25-Dec-2016

 -----------------------------
 # opt freq b3lyp/6-31g(2df,p)
 -----------------------------

 -------------------
 Title Card Required
 -------------------
 Symbolic Z-matrix:
 Charge =  0 Multiplicity = 1

 SCF Done:  E(RB3LYP) =  -313.147937939     A.U. after   12 cycles
 SCF Done:  E(RB3LYP) =  -313.184350095     A.U. after   11 cycles
 SCF Done:  E(RB3LYP) =  -313.208588621     A.U. after   11 cycles
 SCF Done:  E(RB3LYP) =  -313.211771659     A.U. after   10 cycles
 SCF Done:  E(RB3LYP) =  -313.214655706     A.U. after   10 cycles
 SCF Done:  E(RB3LYP) =  -313.215512991     A.U. after   10 cycles
 SCF Done:  E(RB3LYP) =  -313.215649824     A.U. after    9 cycles
 SCF Done:  E(RB3LYP) =  -313.215751310     A.U. after    9 cycles
 SCF Done:  E(RB3LYP) =  -313.215825089     A.U. after    8 cycles
 SCF Done:  E(RB3LYP) =  -313.215908272     A.U. after    9 cycles
 SCF Done:  E(RB3LYP) =  -313.215911337     A.U. after    8 cycles
 SCF Done:  E(RB3LYP) =  -313.215916705     A.U. after    8 cycles
 SCF Done:  E(RB3LYP) =  -313.215916763     A.U. after    6 cycles
 SCF Done:  E(RB3LYP) =  -313.215918009     A.U. after    7 cycles
 SCF Done:  E(RB3LYP) =  -313.215918568     A.U. after    6 cycles
 SCF Done:  E(RB3LYP) =  -313.215919294     A.U. after    7 cycles
 SCF Done:  E(RB3LYP) =  -313.215919347     A.U. after    5 cycles
 Optimization completed.
    -- Stationary point found.
 Normal termination of Gaussian 16 at Sun May 28 03:57:13 2023.

 ----------------------------------------------------------------------
 #N Geom=AllCheck Guess=TCheck SCRF=Check GenChk RB3LYP/6-31G(2df,p) Fr
 eq
 ----------------------------------------------------------------------

 Structure from the checkpoint file:  "CC1C2CqCrC1C2C.chk"
 -------------------
 Title Card Required
 -------------------
 Charge =  0 Multiplicity = 1

                         Standard orientation:
 ---------------------------------------------------------------------
 Center     Atomic      Atomic             Coordinates (Angstroms)
 Number     Number       Type             X           Y           Z
 ---------------------------------------------------------------------
      1          6           0        1.286566    1.896904    0.002453
      2          6           0        0.033623    1.019672   -0.031559
      3          6           0       -0.180174   -0.248655   -0.933478
      4          6           0       -1.371029   -0.626782    0.015303
      5          6           0       -2.721577    0.075205   -0.013729
      6          6           0       -0.190977   -0.177911    0.945767
      7          6           0        0.713814   -1.085681    0.036479
      8          6           0        2.242346   -1.071145   -0.014765
      9          1           0        1.585832    2.204045   -1.006704
     10          1           0        2.147967    1.433317    0.481409
     11          1           0        1.068754    2.813310    0.562001
     12          1           0       -0.822084    1.695653   -0.084460
     13          1           0       -0.178071   -0.287386   -2.026379
     14          1           0       -1.542975   -1.708546    0.051461
     15          1           0       -2.665206    1.165423   -0.047621
     16          1           0       -3.304209   -0.195009    0.874357
     17          1           0       -3.295855   -0.250923   -0.888351
     18          1           0       -0.197497   -0.144793    2.038847
     19          1           0        0.393395   -2.132789    0.095860
     20          1           0        2.663933   -0.213443   -0.537501
     21          1           0        2.591603   -1.965441   -0.542128
     22          1           0        2.678858   -1.103055    0.990383
 ---------------------------------------------------------------------

 SCF Done:  E(RB3LYP) =  -313.215919347     A.U. after    1 cycles

 The electronic state is 1-A.
 Alpha  occ. eigenvalues --  -10.18891 -10.18887 -10.18561 -10.18448 -10.18307
 Alpha  occ. eigenvalues --  -10.16900 -10.16779 -10.16727  -0.90036  -0.74050
 Alpha  occ. eigenvalues --   -0.73008  -0.70003  -0.61471  -0.60941  -0.57178
 Alpha  occ. eigenvalues --   -0.50736  -0.48512  -0.45427  -0.41430  -0.41124
 Alpha  occ. eigenvalues --   -0.40321  -0.39456  -0.39225  -0.38189  -0.35669
 Alpha  occ. eigenvalues --   -0.32277  -0.30232  -0.29713  -0.28811  -0.28542
 Alpha  occ. eigenvalues --   -0.28018
 Alpha virt. eigenvalues --    0.10060   0.10718   0.11553   0.12906   0.13804
 Alpha virt. eigenvalues --    0.14435   0.15103   0.15344   0.15669   0.16923
 Alpha virt. eigenvalues --    0.18113   0.18394   0.19061   0.19433   0.20812

 Mulliken charges:
               1
     1  C   -0.450369
     2  C    0.073041
     3  C   -0.101821
     4  C    0.074147
     5  C   -0.453203
     6  C   -0.101406
     7  C    0.076258
     8  C   -0.454682
     9  H    0.113633
    10  H    0.123071
    11  H    0.109512
    12  H    0.061249
    13  H    0.056162
    14  H    0.058841
    15  H    0.119849
    16  H    0.115616
    17  H    0.115628
    18  H    0.056163
    19  H    0.059428
    20  H    0.123837
    21  H    0.110456
    22  H    0.114591
 Sum of Mulliken charges =  -0.00000

 Dipole moment (field-independent basis, Debye):
    X=             -0.0283    Y=              0.0178    Z=             -0.0037  Tot=              0.0337
 Quadrupole moment (field-independent basis, Debye-Ang):
   XX=            -51.6715   YY=            -51.2580   ZZ=            -51.1969
   XY=             -0.0646   XZ=             -0.0067   YZ=             -0.0089

  Exact polarizability:  94.552   0.013  82.801  -0.097   0.289  72.559
 Approx polarizability: 120.381   0.052 118.987  -0.111   0.280 114.882

                      1                      2                      3
                      A                      A                      A
 Frequencies --     50.7450               120.8356               157.0833
 Red. masses --      1.0136                 1.3117                 1.0365
 Frc consts  --      0.0015                 0.0113                 0.0151
 IR Inten    --      0.1055                 0.0565                 0.0002

                      4                      5                      6
                      A                      A                      A
 Frequencies --    197.6223               248.9709               257.0354
 Red. masses --      2.2946                 2.3531                 2.6420
 Frc consts  --      0.0528                 0.0859                 0.1028
 IR Inten    --      0.1509                 0.2776                 0.4535

                      7                      8                      9
                      A                      A                      A
 Frequencies --    356.2428               382.8148               390.7863
 Red. masses --      1.8760                 2.2807                 3.1754
 Frc consts  --      0.1403                 0.1969                 0.2857
 IR Inten    --      0.1277                 0.0819                 0.2281

                     10                     11                     12
                      A                      A                      A
 Frequencies --    520.1730               626.7073               724.5137
 Red. masses --      3.6859                 3.0910                 3.0262
 Frc consts  --      0.5876                 0.7153                 0.9359
 IR Inten    --      0.1677                 1.3728                 0.0996

                     13                     14                     15
                      A                      A                      A
 Frequencies --    765.5074               787.7643               793.8056
 Red. masses --      2.3959                 2.2809                 2.4697
 Frc consts  --      0.8272                 0.8340                 0.9169
 IR Inten    --      0.1429                 0.4220                 0.1654

                     16                     17                     18
                      A                      A                      A
 Frequencies --    825.7352               864.2328              1009.2348
 Red. masses --      1.9017                 2.2856                 1.1214
 Frc consts  --      0.7640                 1.0058                 0.6730
 IR Inten    --      0.5306                 0.2657                 1.8125

                     19                     20                     21
                      A                      A                      A
 Frequencies --   1015.5190              1025.2466              1041.4314
 Red. masses --      1.2008                 1.1019                 1.6461
 Frc consts  --      0.7296                 0.6824                 1.0519
 IR Inten    --      1.0669                 1.7593                 5.3454

                     22                     23                     24
                      A                      A                      A
 Frequencies --   1052.1293              1052.1890              1060.7857
 Red. masses --      1.7770                 2.8947                 1.5361
 Frc consts  --      1.1590                 1.8882                 1.0184
 IR Inten    --      3.0965                 2.2332                 2.3165

                     25                     26                     27
                      A                      A                      A
 Frequencies --   1107.6868              1112.4488              1143.6587
 Red. masses --      1.6197                 1.6386                 2.0629
 Frc consts  --      1.1709                 1.1948                 1.5897
 IR Inten    --      0.0800                 1.2559                 0.4792

                     28                     29                     30
                      A                      A                      A
 Frequencies --   1166.0496              1179.6088              1205.1579
 Red. masses --      2.9383                 1.4703                 2.5413
 Frc consts  --      2.3538                 1.2054                 2.1746
 IR Inten    --      0.3442                 0.0321                 1.9480

                     31                     32                     33
                      A                      A                      A
 Frequencies --   1218.1333              1239.0360              1257.3558
 Red. masses --      1.5975                 1.7934                 1.6878
 Frc consts  --      1.3966                 1.6222                 1.5721
 IR Inten    --      0.4249                 2.1483                 3.3690

                     34                     35                     36
                      A                      A                      A
 Frequencies --   1287.1881              1401.2304              1408.5201
 Red. masses --      2.0997                 1.2372                 1.2292
 Frc consts  --      2.0497                 1.4312                 1.4368
 IR Inten    --      1.6680                 7.3335                 1.2875

                     37                     38                     39
                      A                      A                      A
 Frequencies --   1410.3077              1417.6193              1438.8217
 Red. masses --      1.2464                 1.2127                 1.2096
 Frc consts  --      1.4607                 1.4359                 1.4754
 IR Inten    --      9.7050                 3.7863                 4.2794

                     40                     41                     42
                      A                      A                      A
 Frequencies --   1468.4562              1494.3031              1495.9175
 Red. masses --      1.2280                 1.0444                 1.0543
 Frc consts  --      1.5601                 1.3741                 1.3900
 IR Inten    --      0.9921                 5.1230                 1.3199

                     43                     44                     45
                      A                      A                      A
 Frequencies --   1496.8405              1500.1506              1507.6066
 Red. masses --      1.0598                 1.0554                 1.0580
 Frc consts  --      1.3990                 1.3993                 1.4168
 IR Inten    --      5.4604                 5.8131                 4.1634

                     46                     47                     48
                      A                      A                      A
 Frequencies --   1530.4151              3013.8195              3029.0252
 Red. masses --      1.0472                 1.0815                 1.0565
 Frc consts  --      1.4450                 5.7876                 5.7114
 IR Inten    --      0.1765                17.7833                36.1785

                     49                     50                     51
                      A                      A                      A
 Frequencies --   3031.9386              3034.1061              3036.0690
 Red. masses --      1.0431                 1.0505                 1.0577
 Frc consts  --      5.6496                 5.6976                 5.7445
 IR Inten    --     30.4729                51.9939                40.7330

                     52                     53                     54
                      A                      A                      A
 Frequencies --   3066.4237              3066.7897              3076.7209
 Red. masses --      1.0886                 1.0857                 1.0938
 Frc consts  --      6.0311                 6.0161                 6.1007
 IR Inten    --    131.0959                18.8858                 7.4981

                     55                     56                     57
                      A                      A                      A
 Frequencies --   3084.6611              3085.0948              3085.6460
 Red. masses --      1.0997                 1.1003                 1.0956
 Frc consts  --      6.1649                 6.1699                 6.1458
 IR Inten    --     43.4027                20.1965                25.7067

                     58                     59                     60
                      A                      A                      A
 Frequencies --   3118.1777              3137.5113              3157.0079
 Red. masses --      1.0958                 1.0959                 1.0925
 Frc consts  --      6.2772                 6.3562                 6.4152
 IR Inten    --     37.1372                41.0197                13.7849

 - Thermochemistry -
 -------------------
 Temperature   298.150 Kelvin.  Pressure   1.00000 Atm.
 Atom     1 has atomic number  6 and mass  12.00000

 Molecular mass:   110.10955 amu.
 Principal axes and moments of inertia in atomic units:
                           1         2         3
     Eigenvalues --   556.565621052.684271364.34546
           X            1.00000  -0.00125   0.00003
           Y            0.00125   1.00000  -0.00014
           Z           -0.00003   0.00014   1.00000
 This molecule is an asymmetric top.
 Rotational symmetry number  1.
 Warning -- assumption of classical behavior for rotation
           may cause significant error
 Rotational temperatures (Kelvin)      0.15562     0.08228     0.06348
 Rotational constants (GHZ):           3.24264     1.71442     1.32279
 Zero-point vibrational energy     525379.6 (Joules/Mol)
                                  125.56875 (Kcal/Mol)
 Warning -- explicit consideration of  10 degrees of freedom as
           vibrations may cause significant error
 Vibrational temperatures:     73.01   173.86   226.01   284.33   358.21
          (Kelvin)            369.82   512.55   550.79   562.25   748.41
                              901.69  1042.41  1101.39  1133.42  1142.11
                             1188.05  1243.44  1452.06  1461.11  1475.10
                             1498.39  1513.78  1513.87  1526.23  1593.71
                             1600.57  1645.47  1677.69  1697.19  1733.95
                             1752.62  1782.70  1809.05  1851.98  2016.06
                             2026.55  2029.12  2039.64  2070.14  2112.78
                             2149.97  2152.29  2153.62  2158.38  2169.11
                             2201.93  4336.21  4358.09  4362.28  4365.40
                             4368.23  4411.90  4412.43  4426.72  4438.14
                             4438.76  4439.56  4486.36  4514.18  4542.23

 Zero-point correction=                           0.200107 (Hartree/Particle)
 Thermal correction to Energy=                    0.208942
 Thermal correction to Enthalpy=                  0.209886
 Thermal correction to Gibbs Free Energy=         0.166717
 Sum of electronic and zero-point Energies=           -313.015813
 Sum of electronic and thermal Energies=              -313.006978
 Sum of electronic and thermal Enthalpies=            -313.006033
 Sum of electronic and thermal Free Energies=         -313.049202

                     E (Thermal)             CV                S
                      KCal/Mol        Cal/Mol-Kelvin    Cal/Mol-Kelvin
 Total                  131.113             33.389             90.857
 Electronic               0.000              0.000              0.000
 Translational            0.889              2.981             40.005
 Rotational               0.889              2.981             28.171
 Vibrational            129.336             27.428             22.681
 Vibration     1          0.595              1.977              4.788
 Vibration     2          0.609              1.932              3.087
 Vibration     3          0.621              1.895              2.585
 Vibration     4          0.637              1.843              2.155
 Vibration     5          0.662              1.764              1.738
 Vibration     6          0.667              1.751              1.682
 Vibration     7          0.732              1.562              1.138
 Vibration     8          0.752              1.507              1.028
 Vibration     9          0.758              1.490              0.997
 Vibration    10          0.875              1.205              0.610

 Optimization completed.
    -- Stationary point found.
 Normal termination of Gaussian 16 at Sun May 28 04:27:48 2023.
