 Gaussian 16, Revision A.03,
 Gaussian 16:  ES64L-G16RevA.03 25-Dec-2016

 -----------------------------
 # opt freq b3lyp/6-31g(2df,p)
 -----------------------------

 -------------------
 Title Card Required
 -------------------
 Symbolic Z-matrix:
 Charge =  0 Multiplicity = 1

 SCF Done:  E(RB3LYP) =  -313.264285262     A.U. after   12 cycles
 SCF Done:  E(RB3LYP) =  -313.272099601     A.U. after   10 cycles
 SCF Done:  E(RB3LYP) =  -313.273139013     A.U. after   10 cycles
 SCF Done:  E(RB3LYP) =  -313.273306686     A.U. after    8 cycles
 SCF Done:  E(RB3LYP) =  -313.273326136     A.U. after    7 cycles
 SCF Done:  E(RB3LYP) =  -313.273328812     A.U. after    7 cycles
 SCF Done:  E(RB3LYP) =  -313.273329053     A.U. after    6 cycles
 Optimization completed.
    -- Stationary point found.
 Normal termination of Gaussian 16 at Sun May 28 11:45:36 2023.

 ----------------------------------------------------------------------
 #N Geom=AllCheck Guess=TCheck SCRF=Check GenChk RB3LYP/6-31G(2df,p) Fr
 eq
 ----------------------------------------------------------------------

 Structure from the checkpoint file:  "CC1C2CCqC2rC1C.chk"
 -------------------
 Title Card Required
 -------------------
 Charge =  0 Multiplicity = 1

                         Standard orientation:
 ---------------------------------------------------------------------
 Center     Atomic      Atomic             Coordinates (Angstroms)
 Number     Number       Type             X           Y           Z
 ---------------------------------------------------------------------
      1          6           0        1.429870    1.826327   -0.060679
      2          6           0        0.634343    0.633432    0.466451
      3          6           0       -0.894255    0.847148    0.578408
      4          6           0       -1.390515    0.595859   -0.876798
      5          6           0       -0.894450   -0.846936   -0.578412
      6          6           0       -1.390607   -0.595557    0.876817
      7          6           0        0.634183   -0.633568   -0.466457
      8          6           0        1.429429   -1.826648    0.060672
      9          1           0        1.381591    2.673281    0.632891
     10          1           0        1.053546    2.169258   -1.030374
     11          1           0        2.486462    1.567169   -0.192199
     12          1           0        1.034063    0.362445    1.452147
     13          1           0       -1.231748    1.705088    1.162946
     14          1           0       -0.918915    1.144109   -1.697808
     15          1           0       -2.477846    0.661135   -0.962673
     16          1           0       -1.232110   -1.704818   -1.162941
     17          1           0       -0.919111   -1.143914    1.697811
     18          1           0       -2.477952   -0.660587    0.962706
     19          1           0        1.033981   -0.362668   -1.452146
     20          1           0        1.053641   -2.168894    1.030814
     21          1           0        2.486271   -1.568043    0.191265
     22          1           0        1.380134   -2.673909   -0.632456
 ---------------------------------------------------------------------

 SCF Done:  E(RB3LYP) =  -313.273329053     A.U. after    1 cycles

 The electronic state is 1-A.
 Alpha  occ. eigenvalues --  -10.18151 -10.18151 -10.17761 -10.17745 -10.17427
 Alpha  occ. eigenvalues --  -10.17426 -10.16769 -10.16769  -0.88209  -0.75709
 Alpha  occ. eigenvalues --   -0.73045  -0.65649  -0.63882  -0.63220  -0.52866
 Alpha  occ. eigenvalues --   -0.52748  -0.49187  -0.46366  -0.43982  -0.40765
 Alpha  occ. eigenvalues --   -0.39690  -0.38906  -0.37845  -0.35554  -0.35343
 Alpha  occ. eigenvalues --   -0.33021  -0.31820  -0.29804  -0.29531  -0.29280
 Alpha  occ. eigenvalues --   -0.28773
 Alpha virt. eigenvalues --    0.09097   0.11341   0.12063   0.12197   0.13415
 Alpha virt. eigenvalues --    0.14815   0.15461   0.16726   0.16850   0.17026
 Alpha virt. eigenvalues --    0.17334   0.18958   0.20391   0.20430   0.21397

 Mulliken charges:
               1
     1  C   -0.420822
     2  C    0.044644
     3  C   -0.014613
     4  C   -0.232265
     5  C   -0.014599
     6  C   -0.232259
     7  C    0.044636
     8  C   -0.420814
     9  H    0.108893
    10  H    0.113708
    11  H    0.110922
    12  H    0.061675
    13  H    0.051014
    14  H    0.085327
    15  H    0.091511
    16  H    0.051011
    17  H    0.085328
    18  H    0.091507
    19  H    0.061673
    20  H    0.113708
    21  H    0.110922
    22  H    0.108891
 Sum of Mulliken charges =  -0.00000

 Dipole moment (field-independent basis, Debye):
    X=             -0.0168    Y=             -0.0000    Z=              0.0000  Tot=              0.0168
 Quadrupole moment (field-independent basis, Debye-Ang):
   XX=            -51.2129   YY=            -52.0763   ZZ=            -51.3624
   XY=             -0.0002   XZ=              0.0001   YZ=              0.2468

  Exact polarizability:  85.568   0.000  83.728  -0.000  -0.139  74.083
 Approx polarizability: 117.071   0.000 115.830  -0.000  -0.352 115.673

                      1                      2                      3
                      A                      A                      A
 Frequencies --    164.8185               217.6122               219.5631
 Red. masses --      2.6923                 1.0692                 1.0338
 Frc consts  --      0.0431                 0.0298                 0.0294
 IR Inten    --      0.0000                 0.0231                 0.0001

                      4                      5                      6
                      A                      A                      A
 Frequencies --    252.0848               278.7773               324.3249
 Red. masses --      2.2006                 2.5400                 2.1787
 Frc consts  --      0.0824                 0.1163                 0.1350
 IR Inten    --      0.0147                 0.0646                 0.1347

                      7                      8                      9
                      A                      A                      A
 Frequencies --    475.3682               489.5684               535.0407
 Red. masses --      2.6068                 2.2062                 2.2392
 Frc consts  --      0.3471                 0.3115                 0.3777
 IR Inten    --      0.3168                 0.0874                 0.4901

                     10                     11                     12
                      A                      A                      A
 Frequencies --    610.3723               785.9684               808.5263
 Red. masses --      3.0156                 2.1678                 3.3423
 Frc consts  --      0.6619                 0.7890                 1.2873
 IR Inten    --      0.0242                 0.2772                 1.2853

                     13                     14                     15
                      A                      A                      A
 Frequencies --    828.8990               851.0275               856.2400
 Red. masses --      2.0406                 2.0080                 2.4181
 Frc consts  --      0.8261                 0.8569                 1.0445
 IR Inten    --      0.5434                 0.5613                 0.0488

                     16                     17                     18
                      A                      A                      A
 Frequencies --    892.4890               936.0864               976.0684
 Red. masses --      2.1425                 2.2814                 1.4120
 Frc consts  --      1.0055                 1.1778                 0.7926
 IR Inten    --      0.5922                 2.7283                 0.5569

                     19                     20                     21
                      A                      A                      A
 Frequencies --   1004.4702              1018.3811              1034.4456
 Red. masses --      1.2242                 1.2472                 1.7615
 Frc consts  --      0.7278                 0.7621                 1.1106
 IR Inten    --      3.7361                 0.2613                 0.2091

                     22                     23                     24
                      A                      A                      A
 Frequencies --   1036.9643              1066.4942              1070.7630
 Red. masses --      1.4253                 1.8519                 1.4123
 Frc consts  --      0.9030                 1.2410                 0.9540
 IR Inten    --      1.0124                 1.5011                 0.8110

                     25                     26                     27
                      A                      A                      A
 Frequencies --   1095.9961              1105.1952              1142.9759
 Red. masses --      1.6389                 1.4470                 1.6880
 Frc consts  --      1.1599                 1.0414                 1.2993
 IR Inten    --      0.2803                 1.1154                 0.1434

                     28                     29                     30
                      A                      A                      A
 Frequencies --   1159.0624              1173.8661              1225.4774
 Red. masses --      1.7815                 2.3097                 1.4119
 Frc consts  --      1.4101                 1.8752                 1.2493
 IR Inten    --      0.0026                 0.0037                 0.0693

                     31                     32                     33
                      A                      A                      A
 Frequencies --   1240.6471              1255.1457              1258.1232
 Red. masses --      1.5632                 1.7116                 1.5606
 Frc consts  --      1.4176                 1.5887                 1.4554
 IR Inten    --      1.1912                 3.0631                 0.0000

                     34                     35                     36
                      A                      A                      A
 Frequencies --   1299.0837              1304.0376              1331.4768
 Red. masses --      1.5696                 1.5036                 1.3992
 Frc consts  --      1.5607                 1.5065                 1.4615
 IR Inten    --      0.5028                 1.3905                 1.3316

                     37                     38                     39
                      A                      A                      A
 Frequencies --   1367.9122              1393.5408              1409.1636
 Red. masses --      1.4506                 1.5084                 1.2498
 Frc consts  --      1.5993                 1.7258                 1.4622
 IR Inten    --      5.7900                 4.3474                 3.8048

                     40                     41                     42
                      A                      A                      A
 Frequencies --   1413.2753              1485.0496              1496.7156
 Red. masses --      1.2341                 1.0834                 1.0472
 Frc consts  --      1.4523                 1.4077                 1.3822
 IR Inten    --      1.1015                 0.0433                 0.2014

                     43                     44                     45
                      A                      A                      A
 Frequencies --   1497.1210              1499.8107              1502.5982
 Red. masses --      1.0495                 1.0498                 1.0561
 Frc consts  --      1.3859                 1.3914                 1.4049
 IR Inten    --      2.3682                 3.3302                 8.6512

                     46                     47                     48
                      A                      A                      A
 Frequencies --   1523.8089              3010.5277              3016.7998
 Red. masses --      1.1210                 1.0817                 1.0839
 Frc consts  --      1.5337                 5.7764                 5.8122
 IR Inten    --      2.0219                 5.7491                33.3697

                     49                     50                     51
                      A                      A                      A
 Frequencies --   3024.3856              3025.8936              3049.6545
 Red. masses --      1.0360                 1.0369                 1.0567
 Frc consts  --      5.5832                 5.5937                 5.7905
 IR Inten    --     34.7162                26.6609                77.5192

                     52                     53                     54
                      A                      A                      A
 Frequencies --   3052.1142              3087.0758              3088.1765
 Red. masses --      1.0584                 1.1000                 1.1010
 Frc consts  --      5.8088                 6.1765                 6.1865
 IR Inten    --      2.2473                 5.8972                16.4539

                     55                     56                     57
                      A                      A                      A
 Frequencies --   3092.3973              3094.9674              3095.9673
 Red. masses --      1.0897                 1.1007                 1.0992
 Frc consts  --      6.1395                 6.2119                 6.2077
 IR Inten    --     88.2843                33.7215                84.1750

                     58                     59                     60
                      A                      A                      A
 Frequencies --   3096.0332              3108.5802              3112.7685
 Red. masses --      1.0932                 1.1081                 1.1040
 Frc consts  --      6.1740                 6.3089                 6.3028
 IR Inten    --      2.0918                26.5055                65.0169

 - Thermochemistry -
 -------------------
 Temperature   298.150 Kelvin.  Pressure   1.00000 Atm.
 Atom     1 has atomic number  6 and mass  12.00000

 Molecular mass:   110.10955 amu.
 Principal axes and moments of inertia in atomic units:
                           1         2         3
     Eigenvalues --   726.31138 755.352581128.58758
           X            1.00000   0.00002  -0.00000
           Y           -0.00002   0.99985  -0.01735
           Z            0.00000   0.01735   0.99985
 This molecule is an asymmetric top.
 Rotational symmetry number  1.
 Warning -- assumption of classical behavior for rotation
           may cause significant error
 Rotational temperatures (Kelvin)      0.11925     0.11467     0.07675
 Rotational constants (GHZ):           2.48480     2.38927     1.59911
 Zero-point vibrational energy     531559.3 (Joules/Mol)
                                  127.04573 (Kcal/Mol)
 Warning -- explicit consideration of  10 degrees of freedom as
           vibrations may cause significant error
 Vibrational temperatures:    237.14   313.10   315.90   362.69   401.10
          (Kelvin)            466.63   683.95   704.38   769.80   878.19
                             1130.83  1163.29  1192.60  1224.44  1231.94
                             1284.09  1346.82  1404.34  1445.21  1465.22
                             1488.34  1491.96  1534.45  1540.59  1576.89
                             1590.13  1644.49  1667.63  1688.93  1763.19
                             1785.01  1805.87  1810.16  1869.09  1876.22
                             1915.70  1968.12  2004.99  2027.47  2033.39
                             2136.66  2153.44  2154.02  2157.89  2161.90
                             2192.42  4331.48  4340.50  4351.42  4353.59
                             4387.77  4391.31  4441.61  4443.20  4449.27
                             4452.97  4454.41  4454.50  4472.55  4478.58

 Zero-point correction=                           0.202460 (Hartree/Particle)
 Thermal correction to Energy=                    0.210074
 Thermal correction to Enthalpy=                  0.211018
 Thermal correction to Gibbs Free Energy=         0.171231
 Sum of electronic and zero-point Energies=           -313.070869
 Sum of electronic and thermal Energies=              -313.063255
 Sum of electronic and thermal Enthalpies=            -313.062311
 Sum of electronic and thermal Free Energies=         -313.102099

                     E (Thermal)             CV                S
                      KCal/Mol        Cal/Mol-Kelvin    Cal/Mol-Kelvin
 Total                  131.823             31.051             83.740
 Electronic               0.000              0.000              0.000
 Translational            0.889              2.981             40.005
 Rotational               0.889              2.981             27.917
 Vibrational            130.046             25.089             15.818
 Vibration     1          0.623              1.886              2.494
 Vibration     2          0.646              1.814              1.979
 Vibration     3          0.647              1.811              1.963
 Vibration     4          0.664              1.759              1.716
 Vibration     5          0.679              1.713              1.541
 Vibration     6          0.709              1.627              1.288
 Vibration     7          0.832              1.305              0.723
 Vibration     8          0.845              1.273              0.685
 Vibration     9          0.890              1.173              0.576
 Vibration    10          0.969              1.010              0.432

 Optimization completed.
    -- Stationary point found.
 Normal termination of Gaussian 16 at Sun May 28 12:16:11 2023.
