 Gaussian 16, Revision A.03,
 Gaussian 16:  ES64L-G16RevA.03 25-Dec-2016

 -----------------------------
 # opt freq b3lyp/6-31g(2df,p)
 -----------------------------

 -------------------
 Title Card Required
 -------------------
 Symbolic Z-matrix:
 Charge =  0 Multiplicity = 1

 SCF Done:  E(RB3LYP) =  -605.722339062     A.U. after   12 cycles
 SCF Done:  E(RB3LYP) =  -605.730068613     A.U. after   10 cycles
 SCF Done:  E(RB3LYP) =  -605.733428982     A.U. after    9 cycles
 SCF Done:  E(RB3LYP) =  -605.736252009     A.U. after   10 cycles
 SCF Done:  E(RB3LYP) =  -605.737112354     A.U. after    9 cycles
 SCF Done:  E(RB3LYP) =  -605.738088215     A.U. after   10 cycles
 SCF Done:  E(RB3LYP) =  -605.738785220     A.U. after   10 cycles
 SCF Done:  E(RB3LYP) =  -605.739159210     A.U. after    9 cycles
 SCF Done:  E(RB3LYP) =  -605.739445371     A.U. after   10 cycles
 SCF Done:  E(RB3LYP) =  -605.739565316     A.U. after    9 cycles
 SCF Done:  E(RB3LYP) =  -605.742737395     A.U. after   10 cycles
 SCF Done:  E(RB3LYP) =  -605.742534031     A.U. after    9 cycles
 SCF Done:  E(RB3LYP) =  -605.742800498     A.U. after    9 cycles
 SCF Done:  E(RB3LYP) =  -605.742784231     A.U. after    9 cycles
 SCF Done:  E(RB3LYP) =  -605.742817406     A.U. after    9 cycles
 SCF Done:  E(RB3LYP) =  -605.742798396     A.U. after    8 cycles
 SCF Done:  E(RB3LYP) =  -605.742817813     A.U. after    8 cycles
 SCF Done:  E(RB3LYP) =  -605.742817459     A.U. after    7 cycles
 SCF Done:  E(RB3LYP) =  -605.742817875     A.U. after    7 cycles
 Optimization completed.
    -- Stationary point found.
 Normal termination of Gaussian 16 at Mon May 22 12:42:19 2023.

 ----------------------------------------------------------------------
 #N Geom=AllCheck Guess=TCheck SCRF=Check GenChk RB3LYP/6-31G(2df,p) Fr
 eq
 ----------------------------------------------------------------------

 Structure from the checkpoint file:  "CC1CCCCCCCCCCCN1C.chk"
 -------------------
 Title Card Required
 -------------------
 Charge =  0 Multiplicity = 1

                         Standard orientation:
 ---------------------------------------------------------------------
 Center     Atomic      Atomic             Coordinates (Angstroms)
 Number     Number       Type             X           Y           Z
 ---------------------------------------------------------------------
      1          6           0        3.194181    0.752260    1.125445
      2          6           0        1.910518    0.441436    0.330560
      3          6           0        1.603595    1.565248   -0.693404
      4          6           0        0.893704    2.807701   -0.091104
      5          6           0       -0.638565    2.840436   -0.284439
      6          6           0       -1.348962    1.613530    0.292651
      7          6           0       -2.860431    1.512339    0.054438
      8          6           0       -3.465084    0.140435    0.439642
      9          6           0       -3.218013   -1.021251   -0.569270
     10          6           0       -2.289854   -2.171798   -0.118125
     11          6           0       -0.861427   -1.698111    0.150117
     12          6           0        0.264104   -2.725532    0.265821
     13          6           0        1.593588   -2.010347    0.606003
     14          7           0        1.897032   -0.892295   -0.295386
     15          6           0        2.965272   -1.170617   -1.237067
     16          1           0        3.119827    1.724767    1.623188
     17          1           0        4.069439    0.785850    0.468199
     18          1           0        3.378217   -0.002864    1.896724
     19          1           0        1.081515    0.426550    1.044268
     20          1           0        0.985204    1.142099   -1.492836
     21          1           0        2.540304    1.881939   -1.167400
     22          1           0        1.310000    3.716701   -0.539708
     23          1           0        1.122851    2.876643    0.980987
     24          1           0       -0.855617    2.904139   -1.360206
     25          1           0       -1.035192    3.762444    0.160994
     26          1           0       -1.156497    1.553493    1.373901
     27          1           0       -0.879188    0.736398   -0.144675
     28          1           0       -3.082917    1.711945   -1.003247
     29          1           0       -3.372727    2.299857    0.622528
     30          1           0       -4.546905    0.274070    0.549958
     31          1           0       -3.104126   -0.144056    1.437072
     32          1           0       -2.814963   -0.604699   -1.502388
     33          1           0       -4.185670   -1.459459   -0.839102
     34          1           0       -2.285793   -2.934701   -0.908296
     35          1           0       -2.707598   -2.659708    0.773215
     36          1           0       -0.860857   -1.084660    1.059558
     37          1           0       -0.562925   -1.035121   -0.666001
     38          1           0        0.364953   -3.274963   -0.679764
     39          1           0        0.059552   -3.472676    1.044384
     40          1           0        2.416497   -2.739386    0.605182
     41          1           0        1.525561   -1.637637    1.636653
     42          1           0        2.727737   -2.077304   -1.803671
     43          1           0        3.956108   -1.324297   -0.770457
     44          1           0        3.058207   -0.353680   -1.958963
 ---------------------------------------------------------------------

 SCF Done:  E(RB3LYP) =  -605.742817875     A.U. after    1 cycles

 The electronic state is 1-A.
 Alpha  occ. eigenvalues --  -14.30578 -10.20332 -10.19744 -10.19333 -10.17452
 Alpha  occ. eigenvalues --  -10.17148 -10.17135 -10.17089 -10.17057 -10.17019
 Alpha  occ. eigenvalues --  -10.16975 -10.16911 -10.16671 -10.16402 -10.16188
 Alpha  occ. eigenvalues --   -0.90772  -0.80432  -0.79632  -0.76420  -0.75666
 Alpha  occ. eigenvalues --   -0.72233  -0.69427  -0.67371  -0.66130  -0.61659
 Alpha  occ. eigenvalues --   -0.60561  -0.57377  -0.55927  -0.55024  -0.54382
 Alpha  occ. eigenvalues --   -0.48208  -0.46712  -0.45897  -0.44972  -0.44130
 Alpha  occ. eigenvalues --   -0.43804  -0.42901  -0.41610  -0.41192  -0.40260
 Alpha  occ. eigenvalues --   -0.39760  -0.38466  -0.38180  -0.37821  -0.37230
 Alpha  occ. eigenvalues --   -0.35925  -0.35500  -0.34539  -0.34230  -0.33362
 Alpha  occ. eigenvalues --   -0.32876  -0.32335  -0.31827  -0.31209  -0.30819
 Alpha  occ. eigenvalues --   -0.30434  -0.30036  -0.29397  -0.28970  -0.19324
 Alpha virt. eigenvalues --    0.07949   0.08962   0.09492   0.10319   0.11394
 Alpha virt. eigenvalues --    0.12026   0.12391   0.12640   0.13318   0.13522
 Alpha virt. eigenvalues --    0.14283   0.15118   0.15569   0.15936   0.16132

 Mulliken charges:
               1
     1  C   -0.403479
     2  C    0.054341
     3  C   -0.205161
     4  C   -0.207068
     5  C   -0.197497
     6  C   -0.133560
     7  C   -0.201265
     8  C   -0.192021
     9  C   -0.184579
    10  C   -0.216276
    11  C   -0.101919
    12  C   -0.213560
    13  C   -0.173172
    14  N   -0.040064
    15  C   -0.335806
    16  H    0.114354
    17  H    0.114644
    18  H    0.110731
    19  H    0.080212
    20  H    0.099999
    21  H    0.087267
    22  H    0.089342
    23  H    0.092684
    24  H    0.090345
    25  H    0.086073
    26  H    0.080689
    27  H    0.113075
    28  H    0.089342
    29  H    0.086367
    30  H    0.089955
    31  H    0.090490
    32  H    0.091084
    33  H    0.089106
    34  H    0.087087
    35  H    0.087629
    36  H    0.086220
    37  H    0.118832
    38  H    0.089442
    39  H    0.083862
    40  H    0.085010
    41  H    0.093635
    42  H    0.115662
    43  H    0.090992
    44  H    0.116957
 Sum of Mulliken charges =  -0.00000

 Dipole moment (field-independent basis, Debye):
    X=              0.4223    Y=              0.0115    Z=              0.1847  Tot=              0.4611
 Quadrupole moment (field-independent basis, Debye-Ang):
   XX=            -98.5784   YY=            -98.7747   ZZ=            -97.6088
   XY=             -0.2428   XZ=             -0.5685   YZ=             -0.0689

  Exact polarizability: 176.225   0.003 169.368  -0.409  -0.074 131.779
 Approx polarizability: 221.082  -0.149 224.766  -2.498   0.075 217.849

                      1                      2                      3
                      A                      A                      A
 Frequencies --     50.4994                65.9987                75.2837
 Red. masses --      3.1708                 2.7830                 2.8973
 Frc consts  --      0.0048                 0.0071                 0.0097
 IR Inten    --      0.0626                 0.0407                 0.0662

                      4                      5                      6
                      A                      A                      A
 Frequencies --     93.0896               107.2879               139.5862
 Red. masses --      2.7560                 1.7892                 3.0632
 Frc consts  --      0.0141                 0.0121                 0.0352
 IR Inten    --      0.1503                 0.0845                 0.0951

                      7                      8                      9
                      A                      A                      A
 Frequencies --    159.7062               165.6810               188.7904
 Red. masses --      2.5727                 2.3208                 2.1851
 Frc consts  --      0.0387                 0.0375                 0.0459
 IR Inten    --      0.2012                 0.2042                 0.7772

                     10                     11                     12
                      A                      A                      A
 Frequencies --    208.4506               223.7102               229.6318
 Red. masses --      1.8508                 1.1036                 1.9236
 Frc consts  --      0.0474                 0.0325                 0.0598
 IR Inten    --      0.2596                 0.3187                 0.1502

                     13                     14                     15
                      A                      A                      A
 Frequencies --    248.9679               260.9574               281.0906
 Red. masses --      1.6833                 1.4352                 2.6219
 Frc consts  --      0.0615                 0.0576                 0.1221
 IR Inten    --      0.1271                 0.2030                 0.6648

                     16                     17                     18
                      A                      A                      A
 Frequencies --    287.8428               307.3291               326.6308
 Red. masses --      2.7861                 2.3761                 2.4414
 Frc consts  --      0.1360                 0.1322                 0.1535
 IR Inten    --      0.2114                 0.1401                 0.0247

                     19                     20                     21
                      A                      A                      A
 Frequencies --    348.0252               417.3969               433.4111
 Red. masses --      2.5576                 2.5400                 1.8947
 Frc consts  --      0.1825                 0.2607                 0.2097
 IR Inten    --      0.2071                 3.2747                 0.6942

                     22                     23                     24
                      A                      A                      A
 Frequencies --    449.3293               469.4872               473.8865
 Red. masses --      2.4779                 2.4451                 2.2624
 Frc consts  --      0.2948                 0.3175                 0.2993
 IR Inten    --      0.6761                 0.1362                 0.4907

                     25                     26                     27
                      A                      A                      A
 Frequencies --    491.3216               574.2722               728.3431
 Red. masses --      2.5164                 2.4310                 1.1481
 Frc consts  --      0.3579                 0.4723                 0.3588
 IR Inten    --      3.6532                 2.3459                 1.3138

                     28                     29                     30
                      A                      A                      A
 Frequencies --    741.9270               758.2098               768.8057
 Red. masses --      1.6019                 1.8038                 1.3939
 Frc consts  --      0.5195                 0.6110                 0.4854
 IR Inten    --      1.6082                 4.6722                 2.1503

                     31                     32                     33
                      A                      A                      A
 Frequencies --    800.2035               804.5459               834.7704
 Red. masses --      1.7038                 1.8808                 1.7217
 Frc consts  --      0.6428                 0.7173                 0.7069
 IR Inten    --      4.3066                 0.2758                 1.5587

                     34                     35                     36
                      A                      A                      A
 Frequencies --    842.3114               871.4332               905.0081
 Red. masses --      2.1089                 1.8316                 1.6511
 Frc consts  --      0.8816                 0.8195                 0.7968
 IR Inten    --      1.6643                 0.7433                 1.2879

                     37                     38                     39
                      A                      A                      A
 Frequencies --    919.7156               932.2618               940.9125
 Red. masses --      1.7973                 1.8487                 2.0512
 Frc consts  --      0.8957                 0.9466                 1.0699
 IR Inten    --      0.4938                 2.0390                 4.7319

                     40                     41                     42
                      A                      A                      A
 Frequencies --    954.8741               976.2422               999.3556
 Red. masses --      1.7408                 2.7127                 1.8176
 Frc consts  --      0.9352                 1.5233                 1.0695
 IR Inten    --      4.5885                 0.8791                 3.4152

                     43                     44                     45
                      A                      A                      A
 Frequencies --   1034.9789              1042.6881              1047.1772
 Red. masses --      2.2193                 2.4613                 2.0407
 Frc consts  --      1.4006                 1.5766                 1.3185
 IR Inten    --     14.7662                 4.1209                 5.4348

                     46                     47                     48
                      A                      A                      A
 Frequencies --   1064.3886              1073.8889              1076.7647
 Red. masses --      2.1611                 2.1493                 1.9592
 Frc consts  --      1.4425                 1.4604                 1.3383
 IR Inten    --     11.8055                17.3637                 0.7725

                     49                     50                     51
                      A                      A                      A
 Frequencies --   1093.5085              1098.6952              1105.5215
 Red. masses --      2.1155                 2.2169                 2.1322
 Frc consts  --      1.4904                 1.5767                 1.5353
 IR Inten    --      3.1723                 0.9997                 8.7330

                     52                     53                     54
                      A                      A                      A
 Frequencies --   1126.0719              1140.3817              1151.2978
 Red. masses --      1.7382                 1.6214                 1.8319
 Frc consts  --      1.2987                 1.2424                 1.4307
 IR Inten    --      3.5539                21.6786                 9.5904

                     55                     56                     57
                      A                      A                      A
 Frequencies --   1157.1538              1195.3969              1199.9796
 Red. masses --      1.4737                 1.4368                 1.5382
 Frc consts  --      1.1626                 1.2097                 1.3050
 IR Inten    --      8.4469                 3.0175                12.5166

                     58                     59                     60
                      A                      A                      A
 Frequencies --   1219.6656              1230.7432              1250.7172
 Red. masses --      1.4629                 1.5033                 1.3524
 Frc consts  --      1.2822                 1.3417                 1.2464
 IR Inten    --      8.9907                 2.3910                 2.0443

                     61                     62                     63
                      A                      A                      A
 Frequencies --   1265.7395              1272.9124              1279.0272
 Red. masses --      1.4129                 1.3282                 1.3420
 Frc consts  --      1.3337                 1.2680                 1.2934
 IR Inten    --      3.7261                 0.7944                 3.0689

                     64                     65                     66
                      A                      A                      A
 Frequencies --   1310.9662              1316.5582              1320.9357
 Red. masses --      1.2328                 1.4160                 1.2567
 Frc consts  --      1.2483                 1.4461                 1.2920
 IR Inten    --      0.5740                 5.1625                 3.1416

                     67                     68                     69
                      A                      A                      A
 Frequencies --   1333.9338              1339.9025              1351.6674
 Red. masses --      1.2345                 1.1587                 1.1042
 Frc consts  --      1.2942                 1.2257                 1.1886
 IR Inten    --      5.2129                 2.2662                 2.4371

                     70                     71                     72
                      A                      A                      A
 Frequencies --   1353.2704              1360.1655              1366.6491
 Red. masses --      1.3053                 1.3223                 1.3692
 Frc consts  --      1.4084                 1.4413                 1.5067
 IR Inten    --      8.3166                 3.5740                 1.7615

                     73                     74                     75
                      A                      A                      A
 Frequencies --   1368.2567              1371.8923              1375.8646
 Red. masses --      1.3285                 1.3339                 1.3478
 Frc consts  --      1.4654                 1.4792                 1.5032
 IR Inten    --      0.5297                 1.2527                 7.7489

                     76                     77                     78
                      A                      A                      A
 Frequencies --   1381.6163              1388.5525              1400.9704
 Red. masses --      1.3282                 1.3324                 1.2411
 Frc consts  --      1.4938                 1.5136                 1.4353
 IR Inten    --      9.7044                11.0644                12.5417

                     79                     80                     81
                      A                      A                      A
 Frequencies --   1403.1452              1414.9465              1419.0466
 Red. masses --      1.5017                 1.4610                 1.2859
 Frc consts  --      1.7420                 1.7233                 1.5256
 IR Inten    --      3.0809                14.5151                 7.4939

                     82                     83                     84
                      A                      A                      A
 Frequencies --   1458.8446              1476.2179              1483.0433
 Red. masses --      1.1500                 1.0764                 1.0850
 Frc consts  --      1.4421                 1.3821                 1.4060
 IR Inten    --      1.1414                 1.8095                 3.8237

                     85                     86                     87
                      A                      A                      A
 Frequencies --   1484.5250              1486.2849              1488.0047
 Red. masses --      1.0808                 1.0828                 1.0630
 Frc consts  --      1.4034                 1.4093                 1.3868
 IR Inten    --      1.4201                 0.7378                 5.0862

                     88                     89                     90
                      A                      A                      A
 Frequencies --   1491.8863              1492.7447              1493.4444
 Red. masses --      1.0710                 1.0668                 1.0866
 Frc consts  --      1.4045                 1.4005                 1.4279
 IR Inten    --      2.2786                 0.4313                 1.1750

                     91                     92                     93
                      A                      A                      A
 Frequencies --   1494.7122              1496.4321              1496.4870
 Red. masses --      1.0907                 1.0589                 1.0838
 Frc consts  --      1.4358                 1.3971                 1.4300
 IR Inten    --      3.6354                 3.9574                 1.9313

                     94                     95                     96
                      A                      A                      A
 Frequencies --   1504.2481              1507.1303              1515.3867
 Red. masses --      1.0836                 1.0902                 1.0559
 Frc consts  --      1.4446                 1.4591                 1.4286
 IR Inten    --      5.2478                 9.7658                 3.1648

                     97                     98                     99
                      A                      A                      A
 Frequencies --   1520.5880              2928.3932              2989.6080
 Red. masses --      1.0818                 1.0609                 1.0602
 Frc consts  --      1.4737                 5.3601                 5.5830
 IR Inten    --      2.3621                97.4483                48.1014

                    100                    101                    102
                      A                      A                      A
 Frequencies --   2997.9747              3002.4549              3005.4612
 Red. masses --      1.0706                 1.0616                 1.0593
 Frc consts  --      5.6696                 5.6386                 5.6375
 IR Inten    --      0.6092                 0.8321                12.8534

                    103                    104                    105
                      A                      A                      A
 Frequencies --   3009.3310              3009.8001              3012.1752
 Red. masses --      1.0639                 1.0622                 1.0660
 Frc consts  --      5.6769                 5.6695                 5.6986
 IR Inten    --     16.9568                86.3825                21.3466

                    106                    107                    108
                      A                      A                      A
 Frequencies --   3012.9076              3015.8896              3023.0685
 Red. masses --      1.0657                 1.0652                 1.0631
 Frc consts  --      5.6998                 5.7082                 5.7242
 IR Inten    --     14.6311                16.8438                14.3786

                    109                    110                    111
                      A                      A                      A
 Frequencies --   3024.2266              3030.5848              3031.3894
 Red. masses --      1.0685                 1.0866                 1.0481
 Frc consts  --      5.7575                 5.8799                 5.6746
 IR Inten    --     30.1823                37.1841                19.8407

                    112                    113                    114
                      A                      A                      A
 Frequencies --   3040.6146              3041.0506              3045.0869
 Red. masses --      1.0937                 1.0986                 1.0967
 Frc consts  --      5.9574                 5.9858                 5.9917
 IR Inten    --     40.1533                12.4647                50.1285

                    115                    116                    117
                      A                      A                      A
 Frequencies --   3049.6263              3051.1598              3054.5786
 Red. masses --      1.0956                 1.1017                 1.0750
 Frc consts  --      6.0032                 6.0430                 5.9098
 IR Inten    --     35.1271                28.3995                50.5818

                    118                    119                    120
                      A                      A                      A
 Frequencies --   3057.1180              3061.3712              3064.7728
 Red. masses --      1.0922                 1.0912                 1.0958
 Frc consts  --      6.0143                 6.0254                 6.0642
 IR Inten    --     32.5762                55.4941               101.1175

                    121                    122                    123
                      A                      A                      A
 Frequencies --   3070.2768              3094.2324              3098.5706
 Red. masses --      1.0982                 1.0987                 1.1011
 Frc consts  --      6.0996                 6.1979                 6.2289
 IR Inten    --     36.0592                41.7695                17.4429

                    124                    125                    126
                      A                      A                      A
 Frequencies --   3099.6067              3103.2773              3172.3631
 Red. masses --      1.1004                 1.1004                 1.0832
 Frc consts  --      6.2292                 6.2440                 6.4231
 IR Inten    --     33.3126                51.5118                 9.8281

 - Thermochemistry -
 -------------------
 Temperature   298.150 Kelvin.  Pressure   1.00000 Atm.
 Atom     1 has atomic number  6 and mass  12.00000

 Molecular mass:   211.23000 amu.
 Principal axes and moments of inertia in atomic units:
                           1         2         3
     Eigenvalues --  2775.839074067.363376169.25678
           X            0.99999   0.00305   0.00108
           Y           -0.00305   0.99999   0.00146
           Z           -0.00108  -0.00147   1.00000
 This molecule is an asymmetric top.
 Rotational symmetry number  1.
 Warning -- assumption of classical behavior for rotation
           may cause significant error
 Rotational temperatures (Kelvin)      0.03120     0.02129     0.01404
 Rotational constants (GHZ):           0.65016     0.44371     0.29254
 Zero-point vibrational energy    1086499.8 (Joules/Mol)
                                  259.67967 (Kcal/Mol)
 Warning -- explicit consideration of  26 degrees of freedom as
           vibrations may cause significant error
 Vibrational temperatures:     72.66    94.96   108.32   133.94   154.36
          (Kelvin)            200.83   229.78   238.38   271.63   299.91
                              321.87   330.39   358.21   375.46   404.43
                              414.14   442.18   469.95   500.73   600.54
                              623.58   646.48   675.49   681.82   706.90
                              826.25  1047.92  1067.47  1090.89  1106.14
                             1151.31  1157.56  1201.05  1211.90  1253.80
                             1302.10  1323.27  1341.32  1353.76  1373.85
                             1404.59  1437.85  1489.10  1500.20  1506.65
                             1531.42  1545.09  1549.22  1573.31  1580.78
                             1590.60  1620.17  1640.75  1656.46  1664.89
                             1719.91  1726.50  1754.83  1770.76  1799.50
                             1821.12  1831.44  1840.23  1886.19  1894.23
                             1900.53  1919.23  1927.82  1944.75  1947.05
                             1956.97  1966.30  1968.62  1973.85  1979.56
                             1987.84  1997.82  2015.68  2018.81  2035.79
                             2041.69  2098.95  2123.95  2133.77  2135.90
                             2138.43  2140.91  2146.49  2147.73  2148.73
                             2150.56  2153.03  2153.11  2164.28  2168.42
                             2180.30  2187.79  4213.30  4301.38  4313.42
                             4319.86  4324.19  4329.76  4330.43  4333.85
                             4334.90  4339.19  4349.52  4351.19  4360.34
                             4361.49  4374.77  4375.39  4381.20  4387.73
                             4389.94  4394.86  4398.51  4404.63  4409.52
                             4417.44  4451.91  4458.15  4459.64  4464.92
                             4564.32

 Zero-point correction=                           0.413826 (Hartree/Particle)
 Thermal correction to Energy=                    0.431087
 Thermal correction to Enthalpy=                  0.432032
 Thermal correction to Gibbs Free Energy=         0.370086
 Sum of electronic and zero-point Energies=           -605.328992
 Sum of electronic and thermal Energies=              -605.311730
 Sum of electronic and thermal Enthalpies=            -605.310786
 Sum of electronic and thermal Free Energies=         -605.372731

                     E (Thermal)             CV                S
                      KCal/Mol        Cal/Mol-Kelvin    Cal/Mol-Kelvin
 Total                  270.511             67.319            130.375
 Electronic               0.000              0.000              0.000
 Translational            0.889              2.981             41.947
 Rotational               0.889              2.981             32.610
 Vibrational            268.734             61.357             55.818
 Vibration     1          0.595              1.977              4.798
 Vibration     2          0.597              1.970              4.269
 Vibration     3          0.599              1.965              4.010
 Vibration     4          0.602              1.954              3.594
 Vibration     5          0.606              1.943              3.317
 Vibration     6          0.615              1.914              2.810
 Vibration     7          0.622              1.892              2.553
 Vibration     8          0.624              1.885              2.484
 Vibration     9          0.633              1.855              2.240
 Vibration    10          0.642              1.828              2.057
 Vibration    11          0.649              1.805              1.929
 Vibration    12          0.652              1.796              1.882
 Vibration    13          0.662              1.764              1.738
 Vibration    14          0.669              1.744              1.655
 Vibration    15          0.681              1.709              1.527
 Vibration    16          0.685              1.696              1.487
 Vibration    17          0.697              1.660              1.377
 Vibration    18          0.710              1.622              1.277
 Vibration    19          0.726              1.579              1.175
 Vibration    20          0.780              1.432              0.901
 Vibration    21          0.794              1.397              0.848
 Vibration    22          0.808              1.362              0.798
 Vibration    23          0.827              1.318              0.739
 Vibration    24          0.831              1.308              0.727
 Vibration    25          0.847              1.269              0.680
 Vibration    26          0.931              1.087              0.496

 Optimization completed.
    -- Stationary point found.
 Normal termination of Gaussian 16 at Mon May 22 17:23:28 2023.
