 Gaussian 16, Revision A.03,
 Gaussian 16:  ES64L-G16RevA.03 25-Dec-2016

 -----------------------------
 # opt freq b3lyp/6-31g(2df,p)
 -----------------------------

 -------------------
 Title Card Required
 -------------------
 Symbolic Z-matrix:
 Charge =  0 Multiplicity = 1

 SCF Done:  E(RB3LYP) =  -313.071711954     A.U. after   13 cycles
 SCF Done:  E(RB3LYP) =  -313.141306286     A.U. after   12 cycles
 SCF Done:  E(RB3LYP) =  -313.134049367     A.U. after   13 cycles
 SCF Done:  E(RB3LYP) =  -313.201633596     A.U. after   11 cycles
 SCF Done:  E(RB3LYP) =  -313.206826543     A.U. after   11 cycles
 SCF Done:  E(RB3LYP) =  -313.214028952     A.U. after   11 cycles
 SCF Done:  E(RB3LYP) =  -313.197190521     A.U. after   11 cycles
 SCF Done:  E(RB3LYP) =  -313.218794050     A.U. after   10 cycles
 SCF Done:  E(RB3LYP) =  -313.220079735     A.U. after   10 cycles
 SCF Done:  E(RB3LYP) =  -313.221110160     A.U. after   10 cycles
 SCF Done:  E(RB3LYP) =  -313.224913544     A.U. after    9 cycles
 SCF Done:  E(RB3LYP) =  -313.224980043     A.U. after    9 cycles
 SCF Done:  E(RB3LYP) =  -313.224983893     A.U. after    8 cycles
 SCF Done:  E(RB3LYP) =  -313.224984212     A.U. after    6 cycles
 SCF Done:  E(RB3LYP) =  -313.224984858     A.U. after    6 cycles
 SCF Done:  E(RB3LYP) =  -313.224985568     A.U. after    7 cycles
 SCF Done:  E(RB3LYP) =  -313.224986322     A.U. after    7 cycles
 SCF Done:  E(RB3LYP) =  -313.224986839     A.U. after    7 cycles
 SCF Done:  E(RB3LYP) =  -313.224986867     A.U. after    6 cycles
 Optimization completed.
    -- Stationary point found.
 Normal termination of Gaussian 16 at Sun May 28 09:17:55 2023.

 ----------------------------------------------------------------------
 #N Geom=AllCheck Guess=TCheck SCRF=Check GenChk RB3LYP/6-31G(2df,p) Fr
 eq
 ----------------------------------------------------------------------

 Structure from the checkpoint file:  "CC1C2CC1qCrC2C.chk"
 -------------------
 Title Card Required
 -------------------
 Charge =  0 Multiplicity = 1

                         Standard orientation:
 ---------------------------------------------------------------------
 Center     Atomic      Atomic             Coordinates (Angstroms)
 Number     Number       Type             X           Y           Z
 ---------------------------------------------------------------------
      1          6           0       -1.366365    1.680684   -0.226682
      2          6           0       -0.129973    1.070732    0.432990
      3          6           0       -0.113163   -0.176968    1.381619
      4          6           0        1.422537   -0.212095    1.132303
      5          6           0        0.777466    0.003081   -0.273881
      6          6           0        1.487850    0.137486   -1.595499
      7          6           0       -0.234351   -1.130315    0.153835
      8          6           0       -1.562901   -1.446589   -0.535508
      9          1           0       -2.147479    1.893240    0.512778
     10          1           0       -1.806477    1.064820   -1.010387
     11          1           0       -1.096091    2.636799   -0.688264
     12          1           0        0.459242    1.892387    0.859706
     13          1           0       -0.619759   -0.276341    2.344076
     14          1           0        1.923190   -1.169571    1.300361
     15          1           0        2.005508    0.622090    1.532231
     16          1           0        0.776304    0.285850   -2.416078
     17          1           0        2.074769   -0.759815   -1.822114
     18          1           0        2.172398    0.993277   -1.590921
     19          1           0        0.296833   -2.077475    0.310291
     20          1           0       -2.359091   -0.737448   -0.309777
     21          1           0       -1.915044   -2.431747   -0.211411
     22          1           0       -1.450895   -1.492159   -1.625551
 ---------------------------------------------------------------------

 SCF Done:  E(RB3LYP) =  -313.224986867     A.U. after    1 cycles

 The electronic state is 1-A.
 Alpha  occ. eigenvalues --  -10.19554 -10.18894 -10.18276 -10.18268 -10.17597
 Alpha  occ. eigenvalues --  -10.17095 -10.16794 -10.16773  -0.90138  -0.73067
 Alpha  occ. eigenvalues --   -0.72533  -0.71858  -0.61744  -0.60641  -0.58162
 Alpha  occ. eigenvalues --   -0.50849  -0.45346  -0.44622  -0.42715  -0.41534
 Alpha  occ. eigenvalues --   -0.41428  -0.39101  -0.38820  -0.38298  -0.37266
 Alpha  occ. eigenvalues --   -0.32744  -0.30229  -0.29471  -0.29269  -0.28365
 Alpha  occ. eigenvalues --   -0.27659
 Alpha virt. eigenvalues --    0.09086   0.11661   0.12070   0.12245   0.13442
 Alpha virt. eigenvalues --    0.14317   0.15040   0.15435   0.16060   0.16934
 Alpha virt. eigenvalues --    0.17824   0.18527   0.19196   0.19903   0.20563

 Mulliken charges:
               1
     1  C   -0.451068
     2  C    0.038175
     3  C   -0.088306
     4  C   -0.257688
     5  C    0.306584
     6  C   -0.517520
     7  C    0.039843
     8  C   -0.452402
     9  H    0.114311
    10  H    0.121003
    11  H    0.111022
    12  H    0.056929
    13  H    0.060039
    14  H    0.082222
    15  H    0.082260
    16  H    0.116852
    17  H    0.116247
    18  H    0.116374
    19  H    0.057178
    20  H    0.123338
    21  H    0.111127
    22  H    0.113478
 Sum of Mulliken charges =  -0.00000

 Dipole moment (field-independent basis, Debye):
    X=             -0.0295    Y=              0.0311    Z=             -0.2224  Tot=              0.2265
 Quadrupole moment (field-independent basis, Debye-Ang):
   XX=            -51.6604   YY=            -51.0503   ZZ=            -51.7979
   XY=              0.0730   XZ=             -0.2912   YZ=              0.1023

  Exact polarizability:  84.932   0.020  83.833   1.360  -0.130  79.682
 Approx polarizability: 117.949   0.221 120.368   1.153   0.122 115.950

                      1                      2                      3
                      A                      A                      A
 Frequencies --     44.3719               115.3030               167.3532
 Red. masses --      1.0144                 1.2960                 2.2954
 Frc consts  --      0.0012                 0.0102                 0.0379
 IR Inten    --      0.0915                 0.0060                 0.0012

                      4                      5                      6
                      A                      A                      A
 Frequencies --    195.9850               201.0663               317.0189
 Red. masses --      1.0697                 2.3951                 2.3508
 Frc consts  --      0.0242                 0.0571                 0.1392
 IR Inten    --      0.0037                 0.0502                 0.1547

                      7                      8                      9
                      A                      A                      A
 Frequencies --    346.7568               363.7910               398.3929
 Red. masses --      1.9188                 2.3799                 2.4147
 Frc consts  --      0.1359                 0.1856                 0.2258
 IR Inten    --      0.1006                 0.3177                 0.2817

                     10                     11                     12
                      A                      A                      A
 Frequencies --    530.6879               626.1882               634.0037
 Red. masses --      2.4774                 3.1958                 3.4829
 Frc consts  --      0.4111                 0.7383                 0.8249
 IR Inten    --      0.0574                 0.1411                 0.2437

                     13                     14                     15
                      A                      A                      A
 Frequencies --    747.0900               769.0381               781.1960
 Red. masses --      3.0485                 2.5151                 2.1279
 Frc consts  --      1.0025                 0.8764                 0.7651
 IR Inten    --      0.0284                 0.0238                 0.5365

                     16                     17                     18
                      A                      A                      A
 Frequencies --    810.3910               891.8650               933.5710
 Red. masses --      1.9940                 2.2590                 2.2052
 Frc consts  --      0.7715                 1.0587                 1.1324
 IR Inten    --      0.1857                 0.5651                 0.2303

                     19                     20                     21
                      A                      A                      A
 Frequencies --   1005.7182              1010.0935              1019.6765
 Red. masses --      1.1038                 1.2975                 1.2053
 Frc consts  --      0.6578                 0.7800                 0.7384
 IR Inten    --      0.1295                 4.3231                 3.1563

                     22                     23                     24
                      A                      A                      A
 Frequencies --   1029.8400              1052.6964              1106.9276
 Red. masses --      1.2222                 1.2935                 1.9582
 Frc consts  --      0.7637                 0.8445                 1.4137
 IR Inten    --      0.2385                 5.6196                 3.9521

                     25                     26                     27
                      A                      A                      A
 Frequencies --   1126.6478              1131.7330              1138.2106
 Red. masses --      1.8768                 1.7565                 2.1131
 Frc consts  --      1.4036                 1.3255                 1.6129
 IR Inten    --      1.8143                 0.1432                 1.5808

                     28                     29                     30
                      A                      A                      A
 Frequencies --   1153.1854              1165.4029              1211.0531
 Red. masses --      2.5535                 1.5977                 1.6538
 Frc consts  --      2.0007                 1.2785                 1.4291
 IR Inten    --      0.0480                 1.5630                 0.0540

                     31                     32                     33
                      A                      A                      A
 Frequencies --   1216.6062              1243.0771              1267.1989
 Red. masses --      1.9842                 1.8241                 2.1990
 Frc consts  --      1.7303                 1.6607                 2.0805
 IR Inten    --      0.7528                 2.8701                 0.8215

                     34                     35                     36
                      A                      A                      A
 Frequencies --   1322.7386              1401.6462              1405.8737
 Red. masses --      3.1072                 1.2091                 1.3572
 Frc consts  --      3.2030                 1.3996                 1.5804
 IR Inten    --     15.9701                 0.5717                 2.9816

                     37                     38                     39
                      A                      A                      A
 Frequencies --   1416.4990              1422.8102              1454.8079
 Red. masses --      1.2098                 1.2316                 1.2233
 Frc consts  --      1.4302                 1.4689                 1.5254
 IR Inten    --      1.6901                 5.1207                 6.6114

                     40                     41                     42
                      A                      A                      A
 Frequencies --   1488.1927              1489.5766              1493.5099
 Red. masses --      1.0492                 1.0477                 1.0493
 Frc consts  --      1.3691                 1.3697                 1.3790
 IR Inten    --      4.2449                 2.8435                 1.7830

                     43                     44                     45
                      A                      A                      A
 Frequencies --   1495.1106              1501.0103              1527.2310
 Red. masses --      1.0464                 1.0484                 1.0510
 Frc consts  --      1.3781                 1.3917                 1.4443
 IR Inten    --     10.4773                 4.9357                 0.3513

                     46                     47                     48
                      A                      A                      A
 Frequencies --   1529.6346              3007.7283              3013.1115
 Red. masses --      1.1740                 1.0820                 1.0798
 Frc consts  --      1.6184                 5.7670                 5.7760
 IR Inten    --      3.4255                46.9870                26.7346

                     49                     50                     51
                      A                      A                      A
 Frequencies --   3020.5860              3032.0890              3034.0501
 Red. masses --      1.0357                 1.0440                 1.0447
 Frc consts  --      5.5674                 5.6549                 5.6660
 IR Inten    --     30.3284                39.5787                37.0895

                     52                     53                     54
                      A                      A                      A
 Frequencies --   3046.6828              3082.8372              3083.2298
 Red. masses --      1.0545                 1.0988                 1.0997
 Frc consts  --      5.7670                 6.1525                 6.1594
 IR Inten    --     50.2973                 7.8356                43.1235

                     55                     56                     57
                      A                      A                      A
 Frequencies --   3085.5139              3086.9703              3088.9971
 Red. masses --      1.0998                 1.0919                 1.1009
 Frc consts  --      6.1691                 6.1303                 6.1892
 IR Inten    --     17.3478                77.1278                19.2800

                     58                     59                     60
                      A                      A                      A
 Frequencies --   3110.5073              3132.8404              3152.7755
 Red. masses --      1.1105                 1.0963                 1.0925
 Frc consts  --      6.3303                 6.3394                 6.3984
 IR Inten    --     47.7636                39.1873                12.6812

 - Thermochemistry -
 -------------------
 Temperature   298.150 Kelvin.  Pressure   1.00000 Atm.
 Atom     1 has atomic number  6 and mass  12.00000

 Molecular mass:   110.10955 amu.
 Principal axes and moments of inertia in atomic units:
                           1         2         3
     Eigenvalues --   800.89944 902.11441 966.94709
           X            0.99993  -0.00359   0.01089
           Y            0.00352   0.99997   0.00636
           Z           -0.01092  -0.00632   0.99992
 This molecule is an asymmetric top.
 Rotational symmetry number  1.
 Warning -- assumption of classical behavior for rotation
           may cause significant error
 Rotational temperatures (Kelvin)      0.10815     0.09601     0.08957
 Rotational constants (GHZ):           2.25339     2.00057     1.86643
 Zero-point vibrational energy     524435.1 (Joules/Mol)
                                  125.34299 (Kcal/Mol)
 Warning -- explicit consideration of  10 degrees of freedom as
           vibrations may cause significant error
 Vibrational temperatures:     63.84   165.90   240.78   281.98   289.29
          (Kelvin)            456.12   498.91   523.41   573.20   763.54
                              900.95   912.19  1074.90  1106.47  1123.97
                             1165.97  1283.19  1343.20  1447.00  1453.30
                             1467.09  1481.71  1514.60  1592.62  1620.99
                             1628.31  1637.63  1659.18  1676.75  1742.44
                             1750.43  1788.51  1823.22  1903.13  2016.66
                             2022.74  2038.03  2047.11  2093.14  2141.18
                             2143.17  2148.83  2151.13  2159.62  2197.34
                             2200.80  4327.45  4335.20  4345.95  4362.50
                             4365.32  4383.50  4435.52  4436.08  4439.37
                             4441.46  4444.38  4475.33  4507.46  4536.14

 Zero-point correction=                           0.199747 (Hartree/Particle)
 Thermal correction to Energy=                    0.208664
 Thermal correction to Enthalpy=                  0.209609
 Thermal correction to Gibbs Free Energy=         0.166248
 Sum of electronic and zero-point Energies=           -313.025240
 Sum of electronic and thermal Energies=              -313.016322
 Sum of electronic and thermal Enthalpies=            -313.015378
 Sum of electronic and thermal Free Energies=         -313.058739

                     E (Thermal)             CV                S
                      KCal/Mol        Cal/Mol-Kelvin    Cal/Mol-Kelvin
 Total                  130.939             33.686             91.259
 Electronic               0.000              0.000              0.000
 Translational            0.889              2.981             40.005
 Rotational               0.889              2.981             28.037
 Vibrational            129.161             27.725             23.217
 Vibration     1          0.595              1.980              5.054
 Vibration     2          0.608              1.937              3.178
 Vibration     3          0.624              1.883              2.465
 Vibration     4          0.636              1.845              2.170
 Vibration     5          0.638              1.838              2.123
 Vibration     6          0.704              1.641              1.325
 Vibration     7          0.725              1.582              1.181
 Vibration     8          0.737              1.547              1.106
 Vibration     9          0.765              1.474              0.969
 Vibration    10          0.886              1.182              0.586

 Optimization completed.
    -- Stationary point found.
 Normal termination of Gaussian 16 at Sun May 28 09:54:58 2023.
