 Gaussian 16, Revision A.03,
 Gaussian 16:  ES64L-G16RevA.03 25-Dec-2016

 -----------------------------
 # opt freq b3lyp/6-31g(2df,p)
 -----------------------------

 -------------------
 Title Card Required
 -------------------
 Symbolic Z-matrix:
 Charge =  0 Multiplicity = 1

 SCF Done:  E(RB3LYP) =  -522.501194598     A.U. after   14 cycles
 SCF Done:  E(RB3LYP) =  -522.506403776     A.U. after   12 cycles
 SCF Done:  E(RB3LYP) =  -522.507355658     A.U. after   11 cycles
 SCF Done:  E(RB3LYP) =  -522.506318476     A.U. after   13 cycles
 SCF Done:  E(RB3LYP) =  -522.507644538     A.U. after   12 cycles
 SCF Done:  E(RB3LYP) =  -522.507708359     A.U. after   10 cycles
 SCF Done:  E(RB3LYP) =  -522.507726836     A.U. after   10 cycles
 SCF Done:  E(RB3LYP) =  -522.507738656     A.U. after   10 cycles
 SCF Done:  E(RB3LYP) =  -522.507740795     A.U. after    9 cycles
 SCF Done:  E(RB3LYP) =  -522.507742290     A.U. after   10 cycles
 SCF Done:  E(RB3LYP) =  -522.508677035     A.U. after   13 cycles
 SCF Done:  E(RB3LYP) =  -522.508932506     A.U. after   13 cycles
 SCF Done:  E(RB3LYP) =  -522.508930153     A.U. after   13 cycles
 SCF Done:  E(RB3LYP) =  -522.509165976     A.U. after   12 cycles
 SCF Done:  E(RB3LYP) =  -522.509185523     A.U. after   10 cycles
 SCF Done:  E(RB3LYP) =  -522.509187114     A.U. after    9 cycles
 SCF Done:  E(RB3LYP) =  -522.509187486     A.U. after    8 cycles
 SCF Done:  E(RB3LYP) =  -522.509187524     A.U. after    7 cycles
 SCF Done:  E(RB3LYP) =  -522.509187528     A.U. after    6 cycles
 Optimization completed.
    -- Stationary point found.
 Normal termination of Gaussian 16 at Sun May 28 05:24:07 2023.

 ----------------------------------------------------------------------
 #N Geom=AllCheck Guess=TCheck SCRF=Check GenChk RB3LYP/6-31G(2df,p) Fr
 eq
 ----------------------------------------------------------------------

 Structure from the checkpoint file:  "CC1CCCNqCCCCdOrC1.chk"
 -------------------
 Title Card Required
 -------------------
 Charge =  0 Multiplicity = 1

                         Standard orientation:
 ---------------------------------------------------------------------
 Center     Atomic      Atomic             Coordinates (Angstroms)
 Number     Number       Type             X           Y           Z
 ---------------------------------------------------------------------
      1          6           0       -2.264249    2.047497   -0.694016
      2          6           0       -2.483241    1.098002    0.492668
      3          6           0       -3.512116   -0.009655    0.196002
      4          6           0       -2.941041   -1.069976   -0.754125
      5          6           0       -1.597187   -1.593074   -0.241563
      6          7           0       -0.650651   -0.497328   -0.035154
      7          6           0        0.687524   -0.978883    0.283491
      8          6           0        1.788002    0.052045    0.004832
      9          6           0        3.191226   -0.526133    0.256309
     10          6           0        4.267564    0.523000    0.104506
     11          8           0        5.220255    0.440446   -0.626541
     12          6           0       -1.165032    0.451813    0.952655
     13          1           0       -3.213445    2.468293   -1.041999
     14          1           0       -1.786615    1.533808   -1.531983
     15          1           0       -1.615182    2.882426   -0.408106
     16          1           0       -2.858569    1.692716    1.335479
     17          1           0       -4.431156    0.422814   -0.215554
     18          1           0       -3.789724   -0.494996    1.141495
     19          1           0       -2.798606   -0.647189   -1.754839
     20          1           0       -3.641054   -1.906523   -0.857430
     21          1           0       -1.164722   -2.290965   -0.966741
     22          1           0       -1.760728   -2.164851    0.696376
     23          1           0        0.879217   -1.860599   -0.339099
     24          1           0        0.763451   -1.321736    1.335857
     25          1           0        1.650021    0.939392    0.634072
     26          1           0        1.699571    0.387253   -1.034331
     27          1           0        3.416340   -1.357939   -0.417865
     28          1           0        3.244557   -0.902498    1.289223
     29          1           0        4.112968    1.427131    0.741391
     30          1           0       -0.417219    1.233305    1.117930
     31          1           0       -1.325290   -0.049929    1.929977
 ---------------------------------------------------------------------

 SCF Done:  E(RB3LYP) =  -522.509187528     A.U. after    1 cycles

 The electronic state is 1-A.
 Alpha  occ. eigenvalues --  -19.13733 -14.31950 -10.26976 -10.21022 -10.20365
 Alpha  occ. eigenvalues --  -10.20211 -10.19562 -10.19383 -10.18505 -10.17821
 Alpha  occ. eigenvalues --  -10.17766 -10.16794  -1.04417  -0.92678  -0.81338
 Alpha  occ. eigenvalues --   -0.79039  -0.75989  -0.70770  -0.68238  -0.63916
 Alpha  occ. eigenvalues --   -0.60827  -0.59005  -0.57395  -0.53217  -0.49864
 Alpha  occ. eigenvalues --   -0.48294  -0.46368  -0.45301  -0.45173  -0.43902
 Alpha  occ. eigenvalues --   -0.43141  -0.42404  -0.40937  -0.40067  -0.39326
 Alpha  occ. eigenvalues --   -0.38420  -0.36906  -0.35965  -0.35473  -0.35100
 Alpha  occ. eigenvalues --   -0.34257  -0.33500  -0.32002  -0.30654  -0.30483
 Alpha  occ. eigenvalues --   -0.24885  -0.21532
 Alpha virt. eigenvalues --   -0.01884   0.07379   0.09358   0.10044   0.10769
 Alpha virt. eigenvalues --    0.12270   0.12395   0.13393   0.13857   0.14506
 Alpha virt. eigenvalues --    0.15160   0.16236   0.16963   0.17057   0.17692

 Mulliken charges:
               1
     1  C   -0.385354
     2  C    0.014464
     3  C   -0.200252
     4  C   -0.206954
     5  C   -0.132115
     6  N   -0.062285
     7  C   -0.132609
     8  C   -0.208669
     9  C   -0.271436
    10  C    0.160715
    11  O   -0.237605
    12  C   -0.148246
    13  H    0.106432
    14  H    0.128048
    15  H    0.106144
    16  H    0.065542
    17  H    0.089739
    18  H    0.088891
    19  H    0.105101
    20  H    0.091672
    21  H    0.094986
    22  H    0.069196
    23  H    0.098474
    24  H    0.073460
    25  H    0.104625
    26  H    0.120097
    27  H    0.121679
    28  H    0.118410
    29  H    0.067902
    30  H    0.092326
    31  H    0.067619
 Sum of Mulliken charges =  -0.00000

 Dipole moment (field-independent basis, Debye):
    X=             -2.6610    Y=             -0.5352    Z=              1.6061  Tot=              3.1539
 Quadrupole moment (field-independent basis, Debye-Ang):
   XX=            -94.2486   YY=            -74.0479   ZZ=            -75.7106
   XY=             -1.5744   XZ=              6.7838   YZ=              1.6096

  Exact polarizability: 142.827   1.611 111.764  -2.215   1.879  99.674
 Approx polarizability: 174.504   1.382 159.509  -9.253   2.806 160.698

                      1                      2                      3
                      A                      A                      A
 Frequencies --     38.3860                43.6057                61.4596
 Red. masses --      3.1656                 3.4563                 3.1648
 Frc consts  --      0.0027                 0.0039                 0.0070
 IR Inten    --      0.8217                 4.2434                 1.3311

                      4                      5                      6
                      A                      A                      A
 Frequencies --     84.2436               121.1911               161.9971
 Red. masses --      3.1168                 2.3420                 2.4521
 Frc consts  --      0.0130                 0.0203                 0.0379
 IR Inten    --      1.8241                 1.1112                 0.4655

                      7                      8                      9
                      A                      A                      A
 Frequencies --    170.7775               205.6677               250.0754
 Red. masses --      2.5014                 1.1030                 3.8156
 Frc consts  --      0.0430                 0.0275                 0.1406
 IR Inten    --      0.9414                 0.2956                 1.2876

                     10                     11                     12
                      A                      A                      A
 Frequencies --    266.1059               285.5721               345.5668
 Red. masses --      2.1579                 2.8003                 2.3085
 Frc consts  --      0.0900                 0.1346                 0.1624
 IR Inten    --      1.0195                 1.1790                 1.2432

                     13                     14                     15
                      A                      A                      A
 Frequencies --    381.9463               409.8228               442.0308
 Red. masses --      2.0535                 1.8885                 2.5631
 Frc consts  --      0.1765                 0.1869                 0.2951
 IR Inten    --      0.4503                 1.0256                 2.8459

                     16                     17                     18
                      A                      A                      A
 Frequencies --    477.1921               505.4122               543.1609
 Red. masses --      3.0842                 2.6191                 2.8010
 Frc consts  --      0.4138                 0.3942                 0.4869
 IR Inten    --      3.9663                 2.5031                10.6501

                     19                     20                     21
                      A                      A                      A
 Frequencies --    654.8658               746.5968               764.8057
 Red. masses --      2.0378                 1.2132                 2.6781
 Frc consts  --      0.5149                 0.3984                 0.9229
 IR Inten    --      1.6842                 3.5061                 2.1858

                     22                     23                     24
                      A                      A                      A
 Frequencies --    810.7441               836.8599               879.3703
 Red. masses --      1.5974                 2.3240                 2.0816
 Frc consts  --      0.6186                 0.9589                 0.9484
 IR Inten    --      1.7841                 9.2483                 0.9514

                     25                     26                     27
                      A                      A                      A
 Frequencies --    880.9511               906.9944               919.9924
 Red. masses --      1.5464                 1.7661                 1.4674
 Frc consts  --      0.7071                 0.8560                 0.7318
 IR Inten    --      2.1418                 3.7873                 2.8436

                     28                     29                     30
                      A                      A                      A
 Frequencies --    968.3141               980.5910              1001.3385
 Red. masses --      1.8752                 1.9384                 2.5530
 Frc consts  --      1.0360                 1.0981                 1.5082
 IR Inten    --      2.9173                 1.0792                 9.4829

                     31                     32                     33
                      A                      A                      A
 Frequencies --   1021.1577              1031.8987              1056.0435
 Red. masses --      1.5908                 2.3559                 2.2467
 Frc consts  --      0.9773                 1.4780                 1.4762
 IR Inten    --      0.8311                15.0497                16.9869

                     34                     35                     36
                      A                      A                      A
 Frequencies --   1078.5556              1091.4623              1109.6529
 Red. masses --      1.6909                 2.5895                 2.1954
 Frc consts  --      1.1589                 1.8175                 1.5927
 IR Inten    --      3.3838                22.9157                13.7713

                     37                     38                     39
                      A                      A                      A
 Frequencies --   1133.5822              1156.0374              1158.3778
 Red. masses --      1.7403                 2.0713                 1.7665
 Frc consts  --      1.3176                 1.6309                 1.3965
 IR Inten    --     35.7043                12.9238                 4.0891

                     40                     41                     42
                      A                      A                      A
 Frequencies --   1188.1872              1198.8443              1226.1248
 Red. masses --      2.2586                 1.3427                 1.4186
 Frc consts  --      1.8787                 1.1370                 1.2566
 IR Inten    --     26.0642                 0.8657                 8.8375

                     43                     44                     45
                      A                      A                      A
 Frequencies --   1244.9410              1274.3254              1290.2194
 Red. masses --      1.4357                 1.6183                 1.1607
 Frc consts  --      1.3111                 1.5483                 1.1384
 IR Inten    --      4.3432                10.1959                 3.3945

                     46                     47                     48
                      A                      A                      A
 Frequencies --   1301.3730              1322.0683              1335.9660
 Red. masses --      1.2298                 1.1463                 1.4156
 Frc consts  --      1.2271                 1.1804                 1.4886
 IR Inten    --     12.4409                 1.1606                10.5269

                     49                     50                     51
                      A                      A                      A
 Frequencies --   1348.9975              1357.6298              1363.9702
 Red. masses --      1.4555                 1.4131                 1.3576
 Frc consts  --      1.5606                 1.5346                 1.4881
 IR Inten    --      5.4414                12.6053                 2.9623

                     52                     53                     54
                      A                      A                      A
 Frequencies --   1371.4820              1384.0119              1391.0779
 Red. masses --      1.4687                 1.4329                 1.3387
 Frc consts  --      1.6276                 1.6171                 1.5263
 IR Inten    --      6.8108                10.6391                 1.0639

                     55                     56                     57
                      A                      A                      A
 Frequencies --   1405.5185              1417.8247              1429.9434
 Red. masses --      1.4174                 1.3323                 1.2214
 Frc consts  --      1.6497                 1.5779                 1.4714
 IR Inten    --     18.6545                13.9383                 4.5837

                     58                     59                     60
                      A                      A                      A
 Frequencies --   1436.3827              1463.8419              1479.5402
 Red. masses --      1.3736                 1.0872                 1.0783
 Frc consts  --      1.6697                 1.3726                 1.3908
 IR Inten    --      6.6225                 2.4149                 1.6071

                     61                     62                     63
                      A                      A                      A
 Frequencies --   1482.5349              1489.4629              1491.0735
 Red. masses --      1.0802                 1.0683                 1.1005
 Frc consts  --      1.3989                 1.3964                 1.4415
 IR Inten    --      1.7947                 2.5836                 6.4961

                     64                     65                     66
                      A                      A                      A
 Frequencies --   1497.3454              1503.8438              1511.8708
 Red. masses --      1.0770                 1.0931                 1.0583
 Frc consts  --      1.4227                 1.4565                 1.4253
 IR Inten    --      1.3151                 2.6736                 3.4484

                     67                     68                     69
                      A                      A                      A
 Frequencies --   1514.6824              1836.9226              2843.6769
 Red. masses --      1.1059                10.1190                 1.0813
 Frc consts  --      1.4948                20.1174                 5.1517
 IR Inten    --      6.7902               212.1552               108.5295

                     70                     71                     72
                      A                      A                      A
 Frequencies --   2877.1633              2882.1600              2897.0838
 Red. masses --      1.0731                 1.0725                 1.0718
 Frc consts  --      5.2338                 5.2490                 5.3001
 IR Inten    --     24.4980                45.3509               147.2230

                     73                     74                     75
                      A                      A                      A
 Frequencies --   3004.4574              3008.5667              3022.4928
 Red. masses --      1.0653                 1.0706                 1.0745
 Frc consts  --      5.6658                 5.7097                 5.7834
 IR Inten    --     10.9740                10.8601                65.7596

                     76                     77                     78
                      A                      A                      A
 Frequencies --   3032.3979              3033.5463              3036.0594
 Red. masses --      1.0643                 1.0459                 1.0574
 Frc consts  --      5.7659                 5.6708                 5.7424
 IR Inten    --     11.3445                23.2037                12.6000

                     79                     80                     81
                      A                      A                      A
 Frequencies --   3046.7577              3057.1993              3060.8564
 Red. masses --      1.0824                 1.0879                 1.0922
 Frc consts  --      5.9200                 5.9907                 6.0287
 IR Inten    --      8.5248                61.1701                47.5663

                     82                     83                     84
                      A                      A                      A
 Frequencies --   3069.6943              3078.0147              3079.1394
 Red. masses --      1.0867                 1.0965                 1.1039
 Frc consts  --      6.0333                 6.1207                 6.1665
 IR Inten    --     17.8590                13.6527                49.9094

                     85                     86                     87
                      A                      A                      A
 Frequencies --   3093.9977              3098.0171              3121.2970
 Red. masses --      1.1008                 1.0988                 1.0993
 Frc consts  --      6.2089                 6.2137                 6.3099
 IR Inten    --     35.2140                39.6291                26.7188

 - Thermochemistry -
 -------------------
 Temperature   298.150 Kelvin.  Pressure   1.00000 Atm.
 Atom     1 has atomic number  6 and mass  12.00000

 Molecular mass:   169.14666 amu.
 Principal axes and moments of inertia in atomic units:
                           1         2         3
     Eigenvalues --   862.277785182.994725627.22061
           X            0.99995  -0.00613   0.00755
           Y            0.00615   0.99998  -0.00215
           Z           -0.00754   0.00219   0.99997
 This molecule is an asymmetric top.
 Rotational symmetry number  1.
 Warning -- assumption of classical behavior for rotation
           may cause significant error
 Rotational temperatures (Kelvin)      0.10045     0.01671     0.01539
 Rotational constants (GHZ):           2.09299     0.34820     0.32072
 Zero-point vibrational energy     735015.5 (Joules/Mol)
                                  175.67291 (Kcal/Mol)
 Warning -- explicit consideration of  18 degrees of freedom as
           vibrations may cause significant error
 Vibrational temperatures:     55.23    62.74    88.43   121.21   174.37
          (Kelvin)            233.08   245.71   295.91   359.80   382.87
                              410.87   497.19   549.54   589.64   635.98
                              686.57   727.18   781.49   942.21  1074.19
                             1100.38  1166.48  1204.05  1265.22  1267.49
                             1304.96  1323.66  1393.19  1410.85  1440.70
                             1469.22  1484.67  1519.41  1551.80  1570.37
                             1596.54  1630.97  1663.28  1666.65  1709.54
                             1724.87  1764.12  1791.19  1833.47  1856.34
                             1872.39  1902.16  1922.16  1940.91  1953.33
                             1962.45  1973.26  1991.28  2001.45  2022.23
                             2039.93  2057.37  2066.63  2106.14  2128.73
                             2133.04  2143.00  2145.32  2154.35  2163.70
                             2175.24  2179.29  2642.92  4091.42  4139.60
                             4146.79  4168.26  4322.74  4328.66  4348.69
                             4362.94  4364.60  4368.21  4383.60  4398.63
                             4403.89  4416.61  4428.58  4430.19  4451.57
                             4457.36  4490.85

 Zero-point correction=                           0.279953 (Hartree/Particle)
 Thermal correction to Energy=                    0.293131
 Thermal correction to Enthalpy=                  0.294075
 Thermal correction to Gibbs Free Energy=         0.239128
 Sum of electronic and zero-point Energies=           -522.229235
 Sum of electronic and thermal Energies=              -522.216056
 Sum of electronic and thermal Enthalpies=            -522.215112
 Sum of electronic and thermal Free Energies=         -522.270060

                     E (Thermal)             CV                S
                      KCal/Mol        Cal/Mol-Kelvin    Cal/Mol-Kelvin
 Total                  183.943             48.930            115.647
 Electronic               0.000              0.000              0.000
 Translational            0.889              2.981             41.285
 Rotational               0.889              2.981             31.598
 Vibrational            182.165             42.968             42.765
 Vibration     1          0.594              1.982              5.341
 Vibration     2          0.595              1.980              5.088
 Vibration     3          0.597              1.973              4.410
 Vibration     4          0.601              1.960              3.789
 Vibration     5          0.609              1.932              3.081
 Vibration     6          0.622              1.889              2.526
 Vibration     7          0.626              1.878              2.427
 Vibration     8          0.640              1.832              2.082
 Vibration     9          0.663              1.763              1.730
 Vibration    10          0.672              1.735              1.621
 Vibration    11          0.683              1.700              1.500
 Vibration    12          0.724              1.584              1.186
 Vibration    13          0.751              1.509              1.031
 Vibration    14          0.774              1.449              0.927
 Vibration    15          0.802              1.378              0.820
 Vibration    16          0.834              1.301              0.718
 Vibration    17          0.861              1.238              0.645
 Vibration    18          0.898              1.155              0.559

 Optimization completed.
    -- Stationary point found.
 Normal termination of Gaussian 16 at Sun May 28 06:46:59 2023.
