 Gaussian 16, Revision A.03,
 Gaussian 16:  ES64L-G16RevA.03 25-Dec-2016

 -----------------------------
 # opt freq b3lyp/6-31g(2df,p)
 -----------------------------

 -------------------
 Title Card Required
 -------------------
 Symbolic Z-matrix:
 Charge =  0 Multiplicity = 1

 SCF Done:  E(RB3LYP) =  -620.797954499     A.U. after   13 cycles
 SCF Done:  E(RB3LYP) =  -620.802887297     A.U. after   12 cycles
 SCF Done:  E(RB3LYP) =  -620.807340485     A.U. after   11 cycles
 SCF Done:  E(RB3LYP) =  -620.808974538     A.U. after   11 cycles
 SCF Done:  E(RB3LYP) =  -620.811404807     A.U. after   12 cycles
 SCF Done:  E(RB3LYP) =  -620.812078888     A.U. after   11 cycles
 SCF Done:  E(RB3LYP) =  -620.812661076     A.U. after   11 cycles
 SCF Done:  E(RB3LYP) =  -620.812987693     A.U. after   12 cycles
 SCF Done:  E(RB3LYP) =  -620.813293988     A.U. after   10 cycles
 SCF Done:  E(RB3LYP) =  -620.813472236     A.U. after   12 cycles
 SCF Done:  E(RB3LYP) =  -620.815460580     A.U. after    7 cycles
 SCF Done:  E(RB3LYP) =  -620.815465506     A.U. after    7 cycles
 SCF Done:  E(RB3LYP) =  -620.815472213     A.U. after    9 cycles
 SCF Done:  E(RB3LYP) =  -620.815482609     A.U. after    8 cycles
 SCF Done:  E(RB3LYP) =  -620.815535775     A.U. after   10 cycles
 SCF Done:  E(RB3LYP) =  -620.815589126     A.U. after   10 cycles
 SCF Done:  E(RB3LYP) =  -620.815619921     A.U. after    9 cycles
 SCF Done:  E(RB3LYP) =  -620.815620706     A.U. after    7 cycles
 SCF Done:  E(RB3LYP) =  -620.815621279     A.U. after    7 cycles
 Optimization completed.
    -- Stationary point found.
 Normal termination of Gaussian 16 at Sun May 28 12:49:46 2023.

 ----------------------------------------------------------------------
 #N Geom=AllCheck Guess=TCheck SCRF=Check GenChk RB3LYP/6-31G(2df,p) Fr
 eq
 ----------------------------------------------------------------------

 Structure from the checkpoint file:  "CC1CCCCqCrC1Oc1ccccc1.chk"
 -------------------
 Title Card Required
 -------------------
 Charge =  0 Multiplicity = 1

                         Standard orientation:
 ---------------------------------------------------------------------
 Center     Atomic      Atomic             Coordinates (Angstroms)
 Number     Number       Type             X           Y           Z
 ---------------------------------------------------------------------
      1          6           0       -2.025853   -2.293474    0.829090
      2          6           0       -1.210588   -1.373902   -0.093268
      3          6           0       -1.927763   -1.062378   -1.423503
      4          6           0       -3.103999   -0.089562   -1.256741
      5          6           0       -2.656495    1.203354   -0.561905
      6          6           0       -1.975422    0.919007    0.788007
      7          6           0       -1.542051    2.203933    1.501245
      8          6           0       -0.802033   -0.063440    0.616131
      9          8           0        0.195207    0.624430   -0.154546
     10          6           0        1.506006    0.265725   -0.085622
     11          6           0        2.026301   -0.754890    0.716775
     12          6           0        3.399152   -1.006153    0.708890
     13          6           0        4.261244   -0.261872   -0.087020
     14          6           0        3.735488    0.752016   -0.889418
     15          6           0        2.373780    1.014924   -0.891366
     16          1           0       -2.215081   -3.253160    0.337647
     17          1           0       -2.996691   -1.867801    1.099228
     18          1           0       -1.487075   -2.499495    1.760811
     19          1           0       -0.282155   -1.904858   -0.334089
     20          1           0       -2.265982   -1.998543   -1.882753
     21          1           0       -1.200175   -0.619323   -2.113228
     22          1           0       -3.905109   -0.561014   -0.672271
     23          1           0       -3.537018    0.138519   -2.237196
     24          1           0       -3.513026    1.869061   -0.403970
     25          1           0       -1.952479    1.743285   -1.207017
     26          1           0       -2.703816    0.406169    1.431073
     27          1           0       -0.803678    2.749248    0.907504
     28          1           0       -1.093495    1.987001    2.477100
     29          1           0       -2.400971    2.862272    1.666949
     30          1           0       -0.391441   -0.287470    1.609690
     31          1           0        1.382009   -1.357339    1.343181
     32          1           0        3.789441   -1.800628    1.337123
     33          1           0        5.325778   -0.467001   -0.086418
     34          1           0        4.391992    1.344538   -1.518604
     35          1           0        1.950717    1.801366   -1.506167
 ---------------------------------------------------------------------

 SCF Done:  E(RB3LYP) =  -620.815621278     A.U. after    1 cycles

 The electronic state is 1-A.
 Alpha  occ. eigenvalues --  -19.16069 -10.23717 -10.23307 -10.18536 -10.18464
 Alpha  occ. eigenvalues --  -10.18198 -10.18084 -10.17785 -10.17681 -10.17472
 Alpha  occ. eigenvalues --  -10.17388 -10.17358 -10.17288 -10.17236 -10.16780
 Alpha  occ. eigenvalues --   -1.05540  -0.84791  -0.82936  -0.77339  -0.75505
 Alpha  occ. eigenvalues --   -0.73879  -0.72765  -0.67771  -0.67170  -0.61370
 Alpha  occ. eigenvalues --   -0.60081  -0.58973  -0.57739  -0.54363  -0.51224
 Alpha  occ. eigenvalues --   -0.48260  -0.47608  -0.46259  -0.45499  -0.44336
 Alpha  occ. eigenvalues --   -0.42947  -0.42079  -0.41379  -0.40515  -0.39884
 Alpha  occ. eigenvalues --   -0.39318  -0.38743  -0.37334  -0.35967  -0.35686
 Alpha  occ. eigenvalues --   -0.35515  -0.35129  -0.34208  -0.32741  -0.32540
 Alpha  occ. eigenvalues --   -0.31960  -0.30418  -0.29108  -0.28971  -0.24510
 Alpha  occ. eigenvalues --   -0.21139
 Alpha virt. eigenvalues --    0.00397   0.01938   0.07232   0.09079   0.10841
 Alpha virt. eigenvalues --    0.10957   0.11646   0.12540   0.14441   0.15114
 Alpha virt. eigenvalues --    0.15585   0.16109   0.16273   0.16749   0.17184

 Mulliken charges:
               1
     1  C   -0.412597
     2  C   -0.001171
     3  C   -0.200323
     4  C   -0.210883
     5  C   -0.182706
     6  C    0.014588
     7  C   -0.410593
     8  C    0.103229
     9  O   -0.301916
    10  C    0.400933
    11  C   -0.240045
    12  C   -0.097817
    13  C   -0.128736
    14  C   -0.088334
    15  C   -0.200861
    16  H    0.116660
    17  H    0.121604
    18  H    0.110914
    19  H    0.080299
    20  H    0.085644
    21  H    0.106408
    22  H    0.091329
    23  H    0.090858
    24  H    0.085284
    25  H    0.106554
    26  H    0.072672
    27  H    0.130930
    28  H    0.106667
    29  H    0.107668
    30  H    0.071762
    31  H    0.099683
    32  H    0.092556
    33  H    0.089800
    34  H    0.093548
    35  H    0.096391
 Sum of Mulliken charges =  -0.00000

 Dipole moment (field-independent basis, Debye):
    X=             -0.8752    Y=             -0.6796    Z=              0.4575  Tot=              1.1987
 Quadrupole moment (field-independent basis, Debye-Ang):
   XX=            -88.5224   YY=            -90.9502   ZZ=            -91.0168
   XY=             -0.2188   XZ=             -0.9864   YZ=             -2.9458

  Exact polarizability: 188.862  -3.076 135.951  -3.216 -15.845 123.261
 Approx polarizability: 260.672  -7.766 208.204  -8.252 -39.086 197.131

                      1                      2                      3
                      A                      A                      A
 Frequencies --     34.5743                58.7923                74.2118
 Red. masses --      3.9450                 3.7722                 3.1470
 Frc consts  --      0.0028                 0.0077                 0.0102
 IR Inten    --      0.1495                 0.0213                 0.0279

                      4                      5                      6
                      A                      A                      A
 Frequencies --    139.7323               157.6515               177.8174
 Red. masses --      2.7622                 2.7327                 4.0531
 Frc consts  --      0.0318                 0.0400                 0.0755
 IR Inten    --      0.0831                 0.2831                 0.4876

                      7                      8                      9
                      A                      A                      A
 Frequencies --    202.6059               208.8423               220.9296
 Red. masses --      1.2682                 2.1594                 1.0971
 Frc consts  --      0.0307                 0.0555                 0.0315
 IR Inten    --      0.2243                 0.1802                 0.1730

                     10                     11                     12
                      A                      A                      A
 Frequencies --    270.0115               277.0152               315.7175
 Red. masses --      2.3540                 3.4282                 2.5931
 Frc consts  --      0.1011                 0.1550                 0.1523
 IR Inten    --      0.2606                 1.0285                 1.0274

                     13                     14                     15
                      A                      A                      A
 Frequencies --    341.8433               381.6606               423.2277
 Red. masses --      2.8353                 2.3633                 3.1858
 Frc consts  --      0.1952                 0.2028                 0.3362
 IR Inten    --      0.5063                 0.7588                 0.0092

                     16                     17                     18
                      A                      A                      A
 Frequencies --    455.1615               470.9183               496.1431
 Red. masses --      3.2754                 2.4976                 3.1469
 Frc consts  --      0.3998                 0.3263                 0.4564
 IR Inten    --      0.3439                 2.0775                 0.1819

                     19                     20                     21
                      A                      A                      A
 Frequencies --    522.3810               557.7806               619.2407
 Red. masses --      2.9995                 4.8121                 3.0866
 Frc consts  --      0.4823                 0.8821                 0.6973
 IR Inten    --      4.2358                 4.7608                 0.2389

                     22                     23                     24
                      A                      A                      A
 Frequencies --    626.1492               647.8014               710.1480
 Red. masses --      4.7277                 3.0907                 2.1861
 Frc consts  --      1.0921                 0.7642                 0.6496
 IR Inten    --      0.7933                 0.8120                12.1235

                     25                     26                     27
                      A                      A                      A
 Frequencies --    760.0212               773.5738               824.0028
 Red. masses --      2.6793                 1.6278                 2.2322
 Frc consts  --      0.9119                 0.5739                 0.8930
 IR Inten    --      0.4482                42.2428                 3.9617

                     28                     29                     30
                      A                      A                      A
 Frequencies --    831.8289               839.1834               864.6522
 Red. masses --      3.3989                 1.2730                 1.9358
 Frc consts  --      1.3857                 0.5282                 0.8527
 IR Inten    --      3.3977                 0.4060                 1.4769

                     31                     32                     33
                      A                      A                      A
 Frequencies --    869.3701               898.4808               937.6103
 Red. masses --      1.8187                 1.4949                 2.0577
 Frc consts  --      0.8099                 0.7110                 1.0658
 IR Inten    --      3.7450                 5.2301                 2.6336

                     34                     35                     36
                      A                      A                      A
 Frequencies --    948.6444               960.2357               966.4281
 Red. masses --      1.3155                 1.5216                 1.6328
 Frc consts  --      0.6975                 0.8266                 0.8985
 IR Inten    --      0.1053                 2.3371                 8.0891

                     37                     38                     39
                      A                      A                      A
 Frequencies --    975.6300               992.0683              1000.3854
 Red. masses --      1.2248                 1.7749                 3.1980
 Frc consts  --      0.6869                 1.0292                 1.8857
 IR Inten    --      0.4206                 0.9375                56.8955

                     40                     41                     42
                      A                      A                      A
 Frequencies --   1009.1783              1020.5531              1044.3566
 Red. masses --      4.4635                 2.1577                 1.4264
 Frc consts  --      2.6783                 1.3241                 0.9166
 IR Inten    --     16.1296                12.0822                 2.1851

                     43                     44                     45
                      A                      A                      A
 Frequencies --   1051.0304              1074.3210              1103.2428
 Red. masses --      1.9769                 1.7061                 1.6596
 Frc consts  --      1.2867                 1.1602                 1.1901
 IR Inten    --     13.4417                 4.1915                 3.9043

                     46                     47                     48
                      A                      A                      A
 Frequencies --   1107.4974              1120.6784              1163.1541
 Red. masses --      1.9041                 1.6021                 2.3718
 Frc consts  --      1.3760                 1.1855                 1.8906
 IR Inten    --      5.5364                 1.2268                11.3207

                     49                     50                     51
                      A                      A                      A
 Frequencies --   1173.2267              1177.9897              1189.4377
 Red. masses --      1.9228                 1.0907                 1.3536
 Frc consts  --      1.5593                 0.8918                 1.1283
 IR Inten    --      6.2700                 2.6130                 1.6619

                     52                     53                     54
                      A                      A                      A
 Frequencies --   1200.4689              1240.3358              1274.8687
 Red. masses --      1.2731                 1.5657                 3.7972
 Frc consts  --      1.0810                 1.4192                 3.6362
 IR Inten    --     37.7885                 1.1711               281.1068

                     55                     56                     57
                      A                      A                      A
 Frequencies --   1283.7968              1312.2266              1328.4038
 Red. masses --      1.3053                 1.3072                 1.9479
 Frc consts  --      1.2675                 1.3262                 2.0252
 IR Inten    --     15.5242                 2.1582                30.2505

                     58                     59                     60
                      A                      A                      A
 Frequencies --   1334.2154              1343.9787              1355.6508
 Red. masses --      1.2351                 1.4666                 2.2978
 Frc consts  --      1.2954                 1.5608                 2.4880
 IR Inten    --      0.9562                 7.4970                15.2325

                     61                     62                     63
                      A                      A                      A
 Frequencies --   1359.1121              1373.1010              1376.9003
 Red. masses --      1.4086                 1.4428                 1.5185
 Frc consts  --      1.5330                 1.6028                 1.6962
 IR Inten    --      4.1970                 3.6451                 0.3943

                     64                     65                     66
                      A                      A                      A
 Frequencies --   1386.1677              1394.2511              1402.5571
 Red. masses --      1.4778                 1.3699                 1.3382
 Frc consts  --      1.6730                 1.5690                 1.5510
 IR Inten    --      4.3654                10.2542                 2.9299

                     67                     68                     69
                      A                      A                      A
 Frequencies --   1414.5402              1418.2269              1479.5711
 Red. masses --      1.2476                 1.3309                 1.0924
 Frc consts  --      1.4708                 1.5772                 1.4089
 IR Inten    --      7.6854                11.3629                 1.2053

                     70                     71                     72
                      A                      A                      A
 Frequencies --   1485.3364              1486.0360              1493.9686
 Red. masses --      1.3847                 1.5614                 1.0459
 Frc consts  --      1.7999                 2.0315                 1.3754
 IR Inten    --      2.4190                 0.8175                 4.0186

                     73                     74                     75
                      A                      A                      A
 Frequencies --   1498.6494              1500.2687              1505.3699
 Red. masses --      1.0836                 1.0558                 1.0636
 Frc consts  --      1.4340                 1.4002                 1.4200
 IR Inten    --      6.5000                 2.1337                11.3745

                     76                     77                     78
                      A                      A                      A
 Frequencies --   1507.5466              1526.0560              1621.6919
 Red. masses --      1.0681                 2.2954                 6.0160
 Frc consts  --      1.4302                 3.1496                 9.3217
 IR Inten    --      0.8835               134.7402                25.2018

                     79                     80                     81
                      A                      A                      A
 Frequencies --   1642.9555              3005.4621              3014.2670
 Red. masses --      5.8968                 1.0820                 1.0805
 Frc consts  --      9.3782                 5.7585                 5.7843
 IR Inten    --     92.1327                14.2345                20.1422

                     82                     83                     84
                      A                      A                      A
 Frequencies --   3017.3309              3025.7417              3026.9711
 Red. masses --      1.0644                 1.0678                 1.0590
 Frc consts  --      5.7098                 5.7596                 5.7168
 IR Inten    --     22.0446                13.1359                19.3830

                     85                     86                     87
                      A                      A                      A
 Frequencies --   3032.1210              3033.4887              3039.2386
 Red. masses --      1.0426                 1.0404                 1.0724
 Frc consts  --      5.6474                 5.6407                 5.8363
 IR Inten    --     33.0128                51.2454                27.6532

                     88                     89                     90
                      A                      A                      A
 Frequencies --   3058.6282              3066.7559              3074.5820
 Red. masses --      1.0939                 1.1036                 1.1032
 Frc consts  --      6.0296                 6.1155                 6.1442
 IR Inten    --     49.8940                14.2751                65.4099

                     91                     92                     93
                      A                      A                      A
 Frequencies --   3094.3714              3095.1348              3108.0397
 Red. masses --      1.1003                 1.1006                 1.1000
 Frc consts  --      6.2075                 6.2119                 6.2604
 IR Inten    --     17.6492                49.2036                31.6405

                     94                     95                     96
                      A                      A                      A
 Frequencies --   3119.0426              3169.2288              3176.1078
 Red. masses --      1.1001                 1.0839                 1.0882
 Frc consts  --      6.3055                 6.4144                 6.4676
 IR Inten    --     29.4015                 3.9431                12.4263

                     97                     98                     99
                      A                      A                      A
 Frequencies --   3193.5718              3200.9004              3213.4849
 Red. masses --      1.0915                 1.0963                 1.0918
 Frc consts  --      6.5590                 6.6182                 6.6426
 IR Inten    --     23.1078                15.7717                 7.5495

 - Thermochemistry -
 -------------------
 Temperature   298.150 Kelvin.  Pressure   1.00000 Atm.
 Atom     1 has atomic number  6 and mass  12.00000

 Molecular mass:   204.15142 amu.
 Principal axes and moments of inertia in atomic units:
                           1         2         3
     Eigenvalues --  1664.194834935.011635394.20672
           X            1.00000   0.00018  -0.00064
           Y           -0.00018   0.99995  -0.00998
           Z            0.00064   0.00998   0.99995
 This molecule is an asymmetric top.
 Rotational symmetry number  1.
 Warning -- assumption of classical behavior for rotation
           may cause significant error
 Rotational temperatures (Kelvin)      0.05205     0.01755     0.01606
 Rotational constants (GHZ):           1.08445     0.36570     0.33457
 Zero-point vibrational energy     815720.7 (Joules/Mol)
                                  194.96194 (Kcal/Mol)
 Warning -- explicit consideration of  21 degrees of freedom as
           vibrations may cause significant error
 Vibrational temperatures:     49.74    84.59   106.77   201.04   226.83
          (Kelvin)            255.84   291.50   300.48   317.87   388.49
                              398.56   454.25   491.84   549.12   608.93
                              654.88   677.55   713.84   751.59   802.52
                              890.95   900.89   932.04  1021.74  1093.50
                             1113.00  1185.56  1196.82  1207.40  1244.04
                             1250.83  1292.71  1349.01  1364.89  1381.57
                             1390.47  1403.71  1427.37  1439.33  1451.98
                             1468.35  1502.60  1512.20  1545.71  1587.32
                             1593.44  1612.41  1673.52  1688.01  1694.86
                             1711.34  1727.21  1784.57  1834.25  1847.10
                             1888.00  1911.28  1919.64  1933.69  1950.48
                             1955.46  1975.59  1981.05  1994.39  2006.02
                             2017.97  2035.21  2040.51  2128.77  2137.07
                             2138.07  2149.49  2156.22  2158.55  2165.89
                             2169.02  2195.65  2333.25  2363.85  4324.19
                             4336.86  4341.27  4353.37  4355.14  4362.55
                             4364.51  4372.79  4400.68  4412.38  4423.64
                             4452.11  4453.21  4471.78  4487.61  4559.81
                             4569.71  4594.84  4605.38  4623.49

 Zero-point correction=                           0.310692 (Hartree/Particle)
 Thermal correction to Energy=                    0.324850
 Thermal correction to Enthalpy=                  0.325794
 Thermal correction to Gibbs Free Energy=         0.269795
 Sum of electronic and zero-point Energies=           -620.504930
 Sum of electronic and thermal Energies=              -620.490772
 Sum of electronic and thermal Enthalpies=            -620.489828
 Sum of electronic and thermal Free Energies=         -620.545826

                     E (Thermal)             CV                S
                      KCal/Mol        Cal/Mol-Kelvin    Cal/Mol-Kelvin
 Total                  203.846             56.695            117.859
 Electronic               0.000              0.000              0.000
 Translational            0.889              2.981             41.845
 Rotational               0.889              2.981             32.160
 Vibrational            202.069             50.733             43.853
 Vibration     1          0.594              1.983              5.548
 Vibration     2          0.596              1.974              4.497
 Vibration     3          0.599              1.966              4.038
 Vibration     4          0.615              1.914              2.808
 Vibration     5          0.621              1.894              2.578
 Vibration     6          0.628              1.870              2.351
 Vibration     7          0.639              1.836              2.109
 Vibration     8          0.642              1.827              2.054
 Vibration     9          0.648              1.809              1.951
 Vibration    10          0.674              1.728              1.596
 Vibration    11          0.678              1.716              1.552
 Vibration    12          0.703              1.644              1.332
 Vibration    13          0.721              1.592              1.204
 Vibration    14          0.751              1.509              1.033
 Vibration    15          0.785              1.420              0.881
 Vibration    16          0.813              1.349              0.780
 Vibration    17          0.828              1.315              0.735
 Vibration    18          0.852              1.259              0.668
 Vibration    19          0.877              1.200              0.604
 Vibration    20          0.913              1.123              0.528
 Vibration    21          0.979              0.991              0.418

 Optimization completed.
    -- Stationary point found.
 Normal termination of Gaussian 16 at Sun May 28 16:41:31 2023.
