 Gaussian 16, Revision A.03,
 Gaussian 16:  ES64L-G16RevA.03 25-Dec-2016

 -----------------------------
 # opt freq b3lyp/6-31g(2df,p)
 -----------------------------

 -------------------
 Title Card Required
 -------------------
 Symbolic Z-matrix:
 Charge =  0 Multiplicity = 1

 SCF Done:  E(RB3LYP) =  -617.521871908     A.U. after   13 cycles
 SCF Done:  E(RB3LYP) =  -617.525856727     A.U. after   11 cycles
 SCF Done:  E(RB3LYP) =  -617.526537064     A.U. after   11 cycles
 SCF Done:  E(RB3LYP) =  -617.526854618     A.U. after   11 cycles
 SCF Done:  E(RB3LYP) =  -617.526177690     A.U. after   12 cycles
 SCF Done:  E(RB3LYP) =  -617.527258182     A.U. after   11 cycles
 SCF Done:  E(RB3LYP) =  -617.527394210     A.U. after   11 cycles
 SCF Done:  E(RB3LYP) =  -617.527475036     A.U. after   10 cycles
 SCF Done:  E(RB3LYP) =  -617.527479461     A.U. after    8 cycles
 SCF Done:  E(RB3LYP) =  -617.527479846     A.U. after    7 cycles
 SCF Done:  E(RB3LYP) =  -617.527479901     A.U. after    6 cycles
 Optimization completed.
    -- Stationary point found.
 Normal termination of Gaussian 16 at Mon May 22 15:10:43 2023.

 ----------------------------------------------------------------------
 #N Geom=AllCheck Guess=TCheck SCRF=Check GenChk RB3LYP/6-31G(2df,p) Fr
 eq
 ----------------------------------------------------------------------

 Structure from the checkpoint file:  "CC1CC2CCOCC2CC1OO.chk"
 -------------------
 Title Card Required
 -------------------
 Charge =  0 Multiplicity = 1

                         Standard orientation:
 ---------------------------------------------------------------------
 Center     Atomic      Atomic             Coordinates (Angstroms)
 Number     Number       Type             X           Y           Z
 ---------------------------------------------------------------------
      1          6           0       -1.789465    1.985665    1.268743
      2          6           0       -1.708792    1.028806    0.069190
      3          6           0       -0.463944    1.267286   -0.811379
      4          6           0        0.834687    0.776898   -0.158117
      5          6           0        2.079869    0.999115   -1.026904
      6          6           0        3.314417    0.404340   -0.343942
      7          8           0        3.141972   -0.969263   -0.038480
      8          6           0        2.040047   -1.196816    0.822265
      9          6           0        0.723877   -0.715943    0.205169
     10          6           0       -0.481047   -0.969038    1.120285
     11          6           0       -1.790047   -0.444505    0.516069
     12          8           0       -2.046566   -1.324203   -0.587225
     13          8           0       -3.402164   -1.089888   -1.034625
     14          1           0       -1.809151    3.026167    0.928927
     15          1           0       -0.939919    1.880448    1.950568
     16          1           0       -2.701067    1.808872    1.849363
     17          1           0       -2.601097    1.209174   -0.540972
     18          1           0       -0.385313    2.333665   -1.057801
     19          1           0       -0.593615    0.736365   -1.763372
     20          1           0        0.987643    1.333962    0.780080
     21          1           0        2.239913    2.068398   -1.213757
     22          1           0        1.942101    0.515168   -2.002504
     23          1           0        3.536073    0.969909    0.578908
     24          1           0        4.194812    0.463437   -0.990699
     25          1           0        2.203277   -0.690579    1.791984
     26          1           0        2.017073   -2.275320    1.009412
     27          1           0        0.577409   -1.280503   -0.725293
     28          1           0       -0.327768   -0.472742    2.086783
     29          1           0       -0.594697   -2.038774    1.327257
     30          1           0       -2.608106   -0.566917    1.238008
     31          1           0       -3.241118   -0.768740   -1.932534
 ---------------------------------------------------------------------

 SCF Done:  E(RB3LYP) =  -617.527479901     A.U. after    1 cycles

 The electronic state is 1-A.
 Alpha  occ. eigenvalues --  -19.18868 -19.18851 -19.13241 -10.23071 -10.22244
 Alpha  occ. eigenvalues --  -10.22063 -10.18634 -10.18506 -10.18480 -10.18080
 Alpha  occ. eigenvalues --  -10.17854 -10.17816 -10.17800  -1.11109  -1.02682
 Alpha  occ. eigenvalues --   -0.91296  -0.83347  -0.77861  -0.77297  -0.72328
 Alpha  occ. eigenvalues --   -0.68896  -0.64084  -0.62118  -0.60179  -0.56614
 Alpha  occ. eigenvalues --   -0.54325  -0.52374  -0.48893  -0.47394  -0.47146
 Alpha  occ. eigenvalues --   -0.45606  -0.45438  -0.43851  -0.43225  -0.41769
 Alpha  occ. eigenvalues --   -0.40510  -0.39382  -0.38627  -0.38231  -0.36810
 Alpha  occ. eigenvalues --   -0.36266  -0.34647  -0.34313  -0.34061  -0.32584
 Alpha  occ. eigenvalues --   -0.31819  -0.30093  -0.29239  -0.28776  -0.25213
 Alpha  occ. eigenvalues --   -0.24285
 Alpha virt. eigenvalues --    0.03037   0.07004   0.08151   0.10191   0.11011
 Alpha virt. eigenvalues --    0.11406   0.12600   0.13207   0.14262   0.14607
 Alpha virt. eigenvalues --    0.14830   0.16410   0.16963   0.17132   0.17444

 Mulliken charges:
               1
     1  C   -0.408453
     2  C   -0.011668
     3  C   -0.235778
     4  C    0.033604
     5  C   -0.228485
     6  C   -0.081302
     7  O   -0.245886
     8  C   -0.107566
     9  C    0.028755
    10  C   -0.273650
    11  C    0.166623
    12  O   -0.209935
    13  O   -0.327502
    14  H    0.115173
    15  H    0.118096
    16  H    0.117215
    17  H    0.069733
    18  H    0.085202
    19  H    0.091021
    20  H    0.063455
    21  H    0.089015
    22  H    0.100475
    23  H    0.080146
    24  H    0.103725
    25  H    0.076058
    26  H    0.104656
    27  H    0.090071
    28  H    0.101916
    29  H    0.110154
    30  H    0.074441
    31  H    0.310694
 Sum of Mulliken charges =  -0.00000

 Dipole moment (field-independent basis, Debye):
    X=             -0.3740    Y=              2.2658    Z=             -0.0831  Tot=              2.2980
 Quadrupole moment (field-independent basis, Debye-Ang):
   XX=            -86.8267   YY=            -82.0260   ZZ=            -74.2135
   XY=              0.0364   XZ=              2.3581   YZ=             -1.8292

  Exact polarizability: 131.344   0.892 109.391   0.141  -3.014 106.155
 Approx polarizability: 169.822   1.168 161.640   3.394   0.484 165.063

                      1                      2                      3
                      A                      A                      A
 Frequencies --     70.2194                88.1226               125.4145
 Red. masses --      4.4786                 3.8340                 4.6445
 Frc consts  --      0.0130                 0.0175                 0.0430
 IR Inten    --      0.3684                 0.1029                 3.7530

                      4                      5                      6
                      A                      A                      A
 Frequencies --    157.8399               195.3846               211.2249
 Red. masses --      3.3063                 1.8298                 1.3047
 Frc consts  --      0.0485                 0.0412                 0.0343
 IR Inten    --      2.0807                 1.5116                 0.5088

                      7                      8                      9
                      A                      A                      A
 Frequencies --    217.5506               236.9399               273.3407
 Red. masses --      1.7271                 1.5960                 3.2877
 Frc consts  --      0.0482                 0.0528                 0.1447
 IR Inten    --     37.1615                82.0595                 1.0581

                     10                     11                     12
                      A                      A                      A
 Frequencies --    300.8438               333.0469               337.4381
 Red. masses --      2.9080                 2.4707                 2.8167
 Frc consts  --      0.1551                 0.1615                 0.1890
 IR Inten    --      0.5343                 1.0828                 0.1151

                     13                     14                     15
                      A                      A                      A
 Frequencies --    354.4867               394.2945               429.2794
 Red. masses --      2.0934                 2.0896                 4.6053
 Frc consts  --      0.1550                 0.1914                 0.5000
 IR Inten    --      5.5577                 0.1800                 1.2115

                     16                     17                     18
                      A                      A                      A
 Frequencies --    468.9661               493.2445               535.0362
 Red. masses --      3.4951                 2.1898                 4.6507
 Frc consts  --      0.4529                 0.3139                 0.7844
 IR Inten    --      2.6032                 0.3807                 2.5205

                     19                     20                     21
                      A                      A                      A
 Frequencies --    550.9071               604.9223               714.5931
 Red. masses --      3.9386                 2.3796                 2.6627
 Frc consts  --      0.7043                 0.5130                 0.8011
 IR Inten    --      0.5602                12.7001                 2.1223

                     22                     23                     24
                      A                      A                      A
 Frequencies --    765.5640               804.7225               850.8646
 Red. masses --      2.3387                 2.8529                 1.9475
 Frc consts  --      0.8076                 1.0885                 0.8307
 IR Inten    --      0.5493                 1.9629                 7.0975

                     25                     26                     27
                      A                      A                      A
 Frequencies --    885.8321               894.3883               921.4070
 Red. masses --      2.4389                 2.1662                 1.9003
 Frc consts  --      1.1276                 1.0210                 0.9506
 IR Inten    --      4.1106                 0.3568                 0.6954

                     28                     29                     30
                      A                      A                      A
 Frequencies --    935.9205               959.7196               973.8516
 Red. masses --      2.5561                 3.9896                 1.6821
 Frc consts  --      1.3192                 2.1651                 0.9399
 IR Inten    --      7.1296                 6.3588                 2.4655

                     31                     32                     33
                      A                      A                      A
 Frequencies --    985.6194              1000.6106              1014.9578
 Red. masses --      2.3218                 2.2418                 1.6171
 Frc consts  --      1.3289                 1.3224                 0.9815
 IR Inten    --      8.3003                21.1153                13.3039

                     34                     35                     36
                      A                      A                      A
 Frequencies --   1037.1728              1044.3859              1067.7412
 Red. masses --      1.7908                 1.9139                 2.0644
 Frc consts  --      1.1350                 1.2300                 1.3867
 IR Inten    --      2.1439                 3.9367                 1.9463

                     37                     38                     39
                      A                      A                      A
 Frequencies --   1100.1220              1118.1426              1129.0092
 Red. masses --      2.1579                 3.2796                 2.4174
 Frc consts  --      1.5387                 2.4158                 1.8155
 IR Inten    --     14.4015                24.6458                 2.5950

                     40                     41                     42
                      A                      A                      A
 Frequencies --   1150.7351              1164.3170              1179.3373
 Red. masses --      2.5642                 2.4934                 2.0675
 Frc consts  --      2.0006                 1.9915                 1.6942
 IR Inten    --     51.9372                10.1313                 1.0621

                     43                     44                     45
                      A                      A                      A
 Frequencies --   1198.9831              1228.7813              1234.4414
 Red. masses --      1.3474                 1.3773                 1.4310
 Frc consts  --      1.1412                 1.2252                 1.2848
 IR Inten    --     13.3286                14.7143                 2.5931

                     46                     47                     48
                      A                      A                      A
 Frequencies --   1274.1208              1283.6084              1304.6386
 Red. masses --      1.5988                 1.3393                 1.2509
 Frc consts  --      1.5292                 1.3001                 1.2545
 IR Inten    --      3.5811                 8.7043                 5.2466

                     49                     50                     51
                      A                      A                      A
 Frequencies --   1327.7429              1329.2707              1339.6177
 Red. masses --      1.2907                 1.2524                 1.3442
 Frc consts  --      1.3406                 1.3038                 1.4212
 IR Inten    --      3.7416                16.1951                 3.0654

                     52                     53                     54
                      A                      A                      A
 Frequencies --   1347.6945              1365.0002              1375.0002
 Red. masses --      1.2143                 1.4054                 1.3545
 Frc consts  --      1.2994                 1.5428                 1.5088
 IR Inten    --      6.9304                12.6292                 6.7541

                     55                     56                     57
                      A                      A                      A
 Frequencies --   1376.8325              1386.6523              1389.4196
 Red. masses --      1.3380                 1.3366                 1.4275
 Frc consts  --      1.4944                 1.5142                 1.6236
 IR Inten    --      4.7159                 7.0816                25.0782

                     58                     59                     60
                      A                      A                      A
 Frequencies --   1392.6182              1401.8729              1404.9653
 Red. masses --      1.2792                 1.4825                 1.4117
 Frc consts  --      1.4617                 1.7166                 1.6419
 IR Inten    --      7.6683                 1.9836                 2.5883

                     61                     62                     63
                      A                      A                      A
 Frequencies --   1417.3493              1424.6176              1474.4304
 Red. masses --      1.2869                 1.3577                 1.0862
 Frc consts  --      1.5232                 1.6235                 1.3912
 IR Inten    --     11.0243                11.7444                 6.0262

                     64                     65                     66
                      A                      A                      A
 Frequencies --   1475.9607              1485.9662              1492.6798
 Red. masses --      1.0950                 1.0917                 1.0839
 Frc consts  --      1.4055                 1.4203                 1.4229
 IR Inten    --      1.9442                 2.7568                 0.1477

                     67                     68                     69
                      A                      A                      A
 Frequencies --   1500.4952              1502.5787              1505.7933
 Red. masses --      1.0522                 1.1012                 1.0594
 Frc consts  --      1.3958                 1.4648                 1.4153
 IR Inten    --      7.5170                 2.3008                 2.2851

                     70                     71                     72
                      A                      A                      A
 Frequencies --   2932.7634              2946.9172              2975.2983
 Red. masses --      1.0708                 1.0715                 1.0794
 Frc consts  --      5.4263                 5.4825                 5.6298
 IR Inten    --     34.4601                66.0402                19.9118

                     73                     74                     75
                      A                      A                      A
 Frequencies --   3013.3312              3014.4500              3018.3373
 Red. masses --      1.0617                 1.0778                 1.0650
 Frc consts  --      5.6799                 5.7705                 5.7167
 IR Inten    --      4.6704                17.8707                33.0072

                     76                     77                     78
                      A                      A                      A
 Frequencies --   3024.2159              3032.1750              3036.2870
 Red. masses --      1.0748                 1.0486                 1.0575
 Frc consts  --      5.7915                 5.6804                 5.7439
 IR Inten    --     13.5398                16.8742                65.2327

                     79                     80                     81
                      A                      A                      A
 Frequencies --   3041.3723              3052.6184              3063.5835
 Red. masses --      1.0794                 1.1029                 1.1023
 Frc consts  --      5.8824                 6.0551                 6.0954
 IR Inten    --     23.0992                16.9305                57.9001

                     82                     83                     84
                      A                      A                      A
 Frequencies --   3069.7281              3076.0618              3081.2648
 Red. masses --      1.0937                 1.0983                 1.0923
 Frc consts  --      6.0722                 6.1228                 6.1099
 IR Inten    --      7.8910                60.6502                50.2170

                     85                     86                     87
                      A                      A                      A
 Frequencies --   3098.8301              3104.5837              3764.0007
 Red. masses --      1.1012                 1.1002                 1.0687
 Frc consts  --      6.2306                 6.2476                 8.9205
 IR Inten    --     27.7607                36.2814                29.1954

 - Thermochemistry -
 -------------------
 Temperature   298.150 Kelvin.  Pressure   1.00000 Atm.
 Atom     1 has atomic number  6 and mass  12.00000

 Molecular mass:   186.12559 amu.
 Principal axes and moments of inertia in atomic units:
                           1         2         3
     Eigenvalues --  1322.883693533.444063945.95184
           X            0.99992  -0.00933  -0.00851
           Y            0.00916   0.99976  -0.01981
           Z            0.00869   0.01973   0.99977
 This molecule is an asymmetric top.
 Rotational symmetry number  1.
 Warning -- assumption of classical behavior for rotation
           may cause significant error
 Rotational temperatures (Kelvin)      0.06547     0.02451     0.02195
 Rotational constants (GHZ):           1.36425     0.51076     0.45737
 Zero-point vibrational energy     721733.8 (Joules/Mol)
                                  172.49852 (Kcal/Mol)
 Warning -- explicit consideration of  20 degrees of freedom as
           vibrations may cause significant error
 Vibrational temperatures:    101.03   126.79   180.44   227.10   281.11
          (Kelvin)            303.91   313.01   340.90   393.28   432.85
                              479.18   485.50   510.03   567.30   617.64
                              674.74   709.67   769.80   792.63   870.35
                             1028.14  1101.48  1157.82  1224.20  1274.51
                             1286.83  1325.70  1346.58  1380.82  1401.16
                             1418.09  1439.66  1460.30  1492.26  1502.64
                             1536.24  1582.83  1608.76  1624.39  1655.65
                             1675.19  1696.80  1725.07  1767.94  1776.09
                             1833.18  1846.83  1877.08  1910.33  1912.52
                             1927.41  1939.03  1963.93  1978.32  1980.95
                             1995.08  1999.06  2003.67  2016.98  2021.43
                             2039.25  2049.71  2121.38  2123.58  2137.97
                             2147.63  2158.88  2161.88  2166.50  4219.59
                             4239.96  4280.79  4335.51  4337.12  4342.71
                             4351.17  4362.62  4368.54  4375.86  4392.04
                             4407.81  4416.65  4425.77  4433.25  4458.53
                             4466.80  5415.56

 Zero-point correction=                           0.274894 (Hartree/Particle)
 Thermal correction to Energy=                    0.287544
 Thermal correction to Enthalpy=                  0.288488
 Thermal correction to Gibbs Free Energy=         0.236801
 Sum of electronic and zero-point Energies=           -617.252586
 Sum of electronic and thermal Energies=              -617.239936
 Sum of electronic and thermal Enthalpies=            -617.238992
 Sum of electronic and thermal Free Energies=         -617.290679

                     E (Thermal)             CV                S
                      KCal/Mol        Cal/Mol-Kelvin    Cal/Mol-Kelvin
 Total                  180.436             50.249            108.784
 Electronic               0.000              0.000              0.000
 Translational            0.889              2.981             41.570
 Rotational               0.889              2.981             31.290
 Vibrational            178.659             44.287             35.925
 Vibration     1          0.598              1.968              4.147
 Vibration     2          0.601              1.958              3.701
 Vibration     3          0.610              1.928              3.015
 Vibration     4          0.621              1.894              2.576
 Vibration     5          0.636              1.846              2.176
 Vibration     6          0.643              1.824              2.033
 Vibration     7          0.646              1.814              1.979
 Vibration     8          0.656              1.784              1.826
 Vibration     9          0.676              1.723              1.575
 Vibration    10          0.693              1.672              1.412
 Vibration    11          0.715              1.610              1.245
 Vibration    12          0.718              1.601              1.224
 Vibration    13          0.730              1.566              1.146
 Vibration    14          0.761              1.482              0.984
 Vibration    15          0.791              1.406              0.861
 Vibration    16          0.826              1.319              0.740
 Vibration    17          0.849              1.265              0.675
 Vibration    18          0.890              1.173              0.576
 Vibration    19          0.906              1.138              0.542
 Vibration    20          0.963              1.021              0.441

 Optimization completed.
    -- Stationary point found.
 Normal termination of Gaussian 16 at Mon May 22 17:10:36 2023.
