 Gaussian 16, Revision A.03,
 Gaussian 16:  ES64L-G16RevA.03 25-Dec-2016

 -----------------------------
 # opt freq b3lyp/6-31g(2df,p)
 -----------------------------

 -------------------
 Title Card Required
 -------------------
 Symbolic Z-matrix:
 Charge =  0 Multiplicity = 1

 SCF Done:  E(RB3LYP) =  -157.223583030     A.U. after   12 cycles
 SCF Done:  E(RB3LYP) =  -157.224958225     A.U. after   10 cycles
 SCF Done:  E(RB3LYP) =  -157.225375695     A.U. after    9 cycles
 SCF Done:  E(RB3LYP) =  -157.225952744     A.U. after    9 cycles
 SCF Done:  E(RB3LYP) =  -157.225997089     A.U. after    7 cycles
 SCF Done:  E(RB3LYP) =  -157.226011691     A.U. after    7 cycles
 SCF Done:  E(RB3LYP) =  -157.226014315     A.U. after    6 cycles
 SCF Done:  E(RB3LYP) =  -157.226014758     A.U. after    6 cycles
 Optimization completed.
    -- Stationary point found.
 Normal termination of Gaussian 16 at Sun May 28 11:07:39 2023.

 ----------------------------------------------------------------------
 #N Geom=AllCheck Guess=TCheck SCRF=Check GenChk RB3LYP/6-31G(2df,p) Fr
 eq
 ----------------------------------------------------------------------

 Structure from the checkpoint file:  "CC1CC1.chk"
 -------------------
 Title Card Required
 -------------------
 Charge =  0 Multiplicity = 1

                         Standard orientation:
 ---------------------------------------------------------------------
 Center     Atomic      Atomic             Coordinates (Angstroms)
 Number     Number       Type             X           Y           Z
 ---------------------------------------------------------------------
      1          6           0       -1.553448   -0.000001   -0.136588
      2          6           0       -0.181231   -0.000057    0.498345
      3          6           0        0.956943   -0.755244   -0.139756
      4          6           0        0.956877    0.755294   -0.139691
      5          1           0       -2.130152   -0.885059    0.155242
      6          1           0       -1.478713   -0.000193   -1.229697
      7          1           0       -2.129884    0.885309    0.154981
      8          1           0       -0.190484   -0.000164    1.585456
      9          1           0        0.763028   -1.260703   -1.080528
     10          1           0        1.664330   -1.270719    0.500644
     11          1           0        0.762761    1.260611   -1.080502
     12          1           0        1.664267    1.270962    0.500550
 ---------------------------------------------------------------------

 SCF Done:  E(RB3LYP) =  -157.226014758     A.U. after    1 cycles

 The electronic state is 1-A.
 Alpha  occ. eigenvalues --  -10.18560 -10.17723 -10.17699 -10.17299  -0.84858
 Alpha  occ. eigenvalues --   -0.70403  -0.59209  -0.56109  -0.48543  -0.44689
 Alpha  occ. eigenvalues --   -0.40327  -0.38479  -0.35611  -0.34472  -0.28194
 Alpha  occ. eigenvalues --   -0.27268
 Alpha virt. eigenvalues --    0.10116   0.11344   0.14063   0.14561   0.15494
 Alpha virt. eigenvalues --    0.17347   0.17548   0.18838   0.23123   0.25240
 Alpha virt. eigenvalues --    0.25723   0.30572   0.43757   0.46835   0.48813

 Mulliken charges:
               1
     1  C   -0.395226
     2  C    0.049823
     3  C   -0.253359
     4  C   -0.253358
     5  H    0.114602
     6  H    0.111421
     7  H    0.114607
     8  H    0.080237
     9  H    0.107445
    10  H    0.108181
    11  H    0.107441
    12  H    0.108187
 Sum of Mulliken charges =  -0.00000

 Dipole moment (field-independent basis, Debye):
    X=             -0.0780    Y=             -0.0000    Z=              0.0829  Tot=              0.1139
 Quadrupole moment (field-independent basis, Debye-Ang):
   XX=            -26.7211   YY=            -26.6937   ZZ=            -25.4029
   XY=              0.0002   XZ=              0.6530   YZ=              0.0001

  Exact polarizability:  45.963   0.000  40.990   0.048   0.000  38.927
 Approx polarizability:  58.294   0.000  57.759  -0.962   0.000  55.788

                      1                      2                      3
                      A                      A                      A
 Frequencies --    224.9138               338.5514               359.8325
 Red. masses --      1.0664                 1.9833                 2.1146
 Frc consts  --      0.0318                 0.1339                 0.1613
 IR Inten    --      0.0000                 0.4964                 0.1924

                      4                      5                      6
                      A                      A                      A
 Frequencies --    768.0916               795.3525               817.5284
 Red. masses --      1.4353                 1.5637                 1.0887
 Frc consts  --      0.4989                 0.5828                 0.4287
 IR Inten    --      1.7634                 3.6366                 3.7270

                      7                      8                      9
                      A                      A                      A
 Frequencies --    872.5933               940.8225              1002.0375
 Red. masses --      3.2015                 1.2491                 1.8538
 Frc consts  --      1.4362                 0.6514                 1.0967
 IR Inten    --      6.6942                 2.9965                 5.3439

                     10                     11                     12
                      A                      A                      A
 Frequencies --   1059.7780              1075.9578              1110.5627
 Red. masses --      1.5022                 1.3991                 1.3592
 Frc consts  --      0.9940                 0.9543                 0.9877
 IR Inten    --      4.9224                 0.6725                 3.6885

                     13                     14                     15
                      A                      A                      A
 Frequencies --   1147.9845              1198.7056              1211.5625
 Red. masses --      1.2583                 1.3957                 1.7041
 Frc consts  --      0.9770                 1.1816                 1.4738
 IR Inten    --      0.2012                 0.2615                 0.0177

                     16                     17                     18
                      A                      A                      A
 Frequencies --   1235.7519              1393.6304              1423.4446
 Red. masses --      1.8413                 1.3560                 1.4429
 Frc consts  --      1.6566                 1.5517                 1.7225
 IR Inten    --      0.0935                 4.1501                 2.0419

                     19                     20                     21
                      A                      A                      A
 Frequencies --   1469.2075              1492.6134              1499.7567
 Red. masses --      1.0854                 1.0459                 1.0695
 Frc consts  --      1.3804                 1.3729                 1.4174
 IR Inten    --      1.0360                 1.3757                 5.9932

                     22                     23                     24
                      A                      A                      A
 Frequencies --   1510.3230              3022.5728              3084.8801
 Red. masses --      1.3509                 1.0351                 1.1012
 Frc consts  --      1.8155                 5.5715                 6.1744
 IR Inten    --      0.8145                33.4209                29.6209

                     25                     26                     27
                      A                      A                      A
 Frequencies --   3088.8793              3126.0145              3130.7784
 Red. masses --      1.0995                 1.0505                 1.0596
 Frc consts  --      6.1809                 6.0480                 6.1191
 IR Inten    --     19.3569                25.5301                17.8295

                     28                     29                     30
                      A                      A                      A
 Frequencies --   3137.1912              3203.3800              3218.8973
 Red. masses --      1.0885                 1.1175                 1.1151
 Frc consts  --      6.3117                 6.7562                 6.8072
 IR Inten    --     17.7289                 0.2461                26.9217

 - Thermochemistry -
 -------------------
 Temperature   298.150 Kelvin.  Pressure   1.00000 Atm.
 Atom     1 has atomic number  6 and mass  12.00000

 Molecular mass:    56.06260 amu.
 Principal axes and moments of inertia in atomic units:
                           1         2         3
     Eigenvalues --   115.51666 285.97992 325.65065
           X            0.99989  -0.00000   0.01488
           Y            0.00000   1.00000  -0.00001
           Z           -0.01488   0.00001   0.99989
 This molecule is an asymmetric top.
 Rotational symmetry number  1.
 Rotational temperatures (Kelvin)      0.74980     0.30287     0.26597
 Rotational constants (GHZ):          15.62321     6.31073     5.54195
 Zero-point vibrational energy     286874.0 (Joules/Mol)
                                   68.56454 (Kcal/Mol)
 Warning -- explicit consideration of   3 degrees of freedom as
           vibrations may cause significant error
 Vibrational temperatures:    323.60   487.10   517.72  1105.11  1144.33
          (Kelvin)           1176.24  1255.47  1353.63  1441.71  1524.78
                             1548.06  1597.85  1651.69  1724.67  1743.17
                             1777.97  2005.12  2048.02  2113.86  2147.54
                             2157.82  2173.02  4348.81  4438.45  4444.21
                             4497.64  4504.49  4513.72  4608.95  4631.28

 Zero-point correction=                           0.109265 (Hartree/Particle)
 Thermal correction to Energy=                    0.113912
 Thermal correction to Enthalpy=                  0.114856
 Thermal correction to Gibbs Free Energy=         0.082735
 Sum of electronic and zero-point Energies=           -157.116750
 Sum of electronic and thermal Energies=              -157.112103
 Sum of electronic and thermal Enthalpies=            -157.111159
 Sum of electronic and thermal Free Energies=         -157.143280

                     E (Thermal)             CV                S
                      KCal/Mol        Cal/Mol-Kelvin    Cal/Mol-Kelvin
 Total                   71.481             16.494             67.604
 Electronic               0.000              0.000              0.000
 Translational            0.889              2.981             37.993
 Rotational               0.889              2.981             23.890
 Vibrational             69.703             10.532              5.721
 Vibration     1          0.650              1.803              1.919
 Vibration     2          0.719              1.598              1.219
 Vibration     3          0.734              1.555              1.123

 Optimization completed.
    -- Stationary point found.
 Normal termination of Gaussian 16 at Sun May 28 11:12:34 2023.
