 Gaussian 16, Revision A.03,
 Gaussian 16:  ES64L-G16RevA.03 25-Dec-2016

 -----------------------------
 # opt freq b3lyp/6-31g(2df,p)
 -----------------------------

 -------------------
 Title Card Required
 -------------------
 Symbolic Z-matrix:
 Charge =  0 Multiplicity = 1

 SCF Done:  E(RB3LYP) =  -386.252458697     A.U. after   12 cycles
 SCF Done:  E(RB3LYP) =  -386.254870679     A.U. after   11 cycles
 SCF Done:  E(RB3LYP) =  -386.255192178     A.U. after   10 cycles
 SCF Done:  E(RB3LYP) =  -386.255255239     A.U. after   10 cycles
 SCF Done:  E(RB3LYP) =  -386.255279064     A.U. after    9 cycles
 SCF Done:  E(RB3LYP) =  -386.255275325     A.U. after    9 cycles
 SCF Done:  E(RB3LYP) =  -386.255352013     A.U. after   10 cycles
 SCF Done:  E(RB3LYP) =  -386.255482246     A.U. after   12 cycles
 SCF Done:  E(RB3LYP) =  -386.255308134     A.U. after   12 cycles
 SCF Done:  E(RB3LYP) =  -386.256047926     A.U. after   12 cycles
 SCF Done:  E(RB3LYP) =  -386.258714634     A.U. after   11 cycles
 SCF Done:  E(RB3LYP) =  -386.259234828     A.U. after   11 cycles
 SCF Done:  E(RB3LYP) =  -386.259473064     A.U. after   10 cycles
 SCF Done:  E(RB3LYP) =  -386.259501328     A.U. after   10 cycles
 SCF Done:  E(RB3LYP) =  -386.259544685     A.U. after   10 cycles
 SCF Done:  E(RB3LYP) =  -386.259519845     A.U. after   11 cycles
 SCF Done:  E(RB3LYP) =  -386.259566481     A.U. after   10 cycles
 SCF Done:  E(RB3LYP) =  -386.259566905     A.U. after    9 cycles
 SCF Done:  E(RB3LYP) =  -386.259567281     A.U. after    8 cycles
 Optimization completed.
    -- Stationary point found.
 Normal termination of Gaussian 16 at Mon May 22 01:29:18 2023.

 ----------------------------------------------------------------------
 #N Geom=AllCheck Guess=TCheck SCRF=Check GenChk RB3LYP/6-31G(2df,p) Fr
 eq
 ----------------------------------------------------------------------

 Structure from the checkpoint file:  "CC1CCqCrqCrOO1.chk"
 -------------------
 Title Card Required
 -------------------
 Charge =  0 Multiplicity = 1

                         Standard orientation:
 ---------------------------------------------------------------------
 Center     Atomic      Atomic             Coordinates (Angstroms)
 Number     Number       Type             X           Y           Z
 ---------------------------------------------------------------------
      1          6           0        2.685106    0.130421   -0.425603
      2          6           0        1.360947    0.392360    0.272086
      3          6           0        0.204296    0.881011   -0.622036
      4          6           0       -1.003536    0.055508   -0.100191
      5          6           0       -1.415538   -1.041053   -1.086168
      6          6           0       -2.189321    0.905297    0.347850
      7          8           0       -0.491229   -0.554465    1.108305
      8          8           0        0.886381   -0.853044    0.790395
      9          1           0        3.091829    1.065964   -0.820702
     10          1           0        2.552185   -0.569950   -1.255537
     11          1           0        3.414008   -0.290907    0.272221
     12          1           0        1.501007    1.089084    1.111022
     13          1           0        0.398452    0.668113   -1.677043
     14          1           0        0.044286    1.957011   -0.518259
     15          1           0       -1.760632   -0.609113   -2.031567
     16          1           0       -2.223105   -1.648358   -0.667078
     17          1           0       -0.563632   -1.693727   -1.293116
     18          1           0       -2.646155    1.402188   -0.513197
     19          1           0       -1.869669    1.667107    1.063931
     20          1           0       -2.951504    0.281384    0.824093
 ---------------------------------------------------------------------

 SCF Done:  E(RB3LYP) =  -386.259567281     A.U. after    1 cycles

 The electronic state is 1-A.
 Alpha  occ. eigenvalues --  -19.18006 -19.17706 -10.24150 -10.23585 -10.18609
 Alpha  occ. eigenvalues --  -10.18400 -10.18006 -10.17220  -1.11475  -0.90873
 Alpha  occ. eigenvalues --   -0.80684  -0.73521  -0.69749  -0.69265  -0.58973
 Alpha  occ. eigenvalues --   -0.56447  -0.49413  -0.47731  -0.46264  -0.43877
 Alpha  occ. eigenvalues --   -0.42855  -0.41326  -0.40393  -0.38642  -0.38037
 Alpha  occ. eigenvalues --   -0.37405  -0.35531  -0.34172  -0.33583  -0.32807
 Alpha  occ. eigenvalues --   -0.28798  -0.23624
 Alpha virt. eigenvalues --    0.04435   0.08123   0.11209   0.11726   0.12224
 Alpha virt. eigenvalues --    0.14232   0.14983   0.15343   0.16319   0.16874
 Alpha virt. eigenvalues --    0.17722   0.18448   0.19422   0.19781   0.20655

 Mulliken charges:
               1
     1  C   -0.418451
     2  C    0.199777
     3  C   -0.319961
     4  C    0.441853
     5  C   -0.419706
     6  C   -0.440760
     7  O   -0.229384
     8  O   -0.210619
     9  H    0.124099
    10  H    0.127122
    11  H    0.133060
    12  H    0.075619
    13  H    0.103216
    14  H    0.104044
    15  H    0.109788
    16  H    0.119262
    17  H    0.129386
    18  H    0.120425
    19  H    0.122736
    20  H    0.128492
 Sum of Mulliken charges =  -0.00000

 Dipole moment (field-independent basis, Debye):
    X=              0.0292    Y=              1.8478    Z=             -1.8331  Tot=              2.6029
 Quadrupole moment (field-independent basis, Debye-Ang):
   XX=            -45.9443   YY=            -50.1639   ZZ=            -51.3828
   XY=              0.8909   XZ=             -0.0163   YZ=              1.7936

  Exact polarizability:  86.290   0.326  65.608  -0.251   1.462  64.176
 Approx polarizability: 110.746  -1.141  97.408  -1.360  -1.851  96.978

                      1                      2                      3
                      A                      A                      A
 Frequencies --     62.5640               206.7744               212.8339
 Red. masses --      2.6311                 1.5688                 1.1014
 Frc consts  --      0.0061                 0.0395                 0.0294
 IR Inten    --      0.1812                 0.9243                 0.3275

                      4                      5                      6
                      A                      A                      A
 Frequencies --    233.9358               249.1787               275.2144
 Red. masses --      1.5935                 1.4297                 1.4953
 Frc consts  --      0.0514                 0.0523                 0.0667
 IR Inten    --      0.7001                 0.8190                 0.6739

                      7                      8                      9
                      A                      A                      A
 Frequencies --    326.4178               347.3645               409.4007
 Red. masses --      2.3497                 2.6427                 2.5426
 Frc consts  --      0.1475                 0.1879                 0.2511
 IR Inten    --      0.4917                 0.9980                 1.1825

                     10                     11                     12
                      A                      A                      A
 Frequencies --    456.8126               478.1951               587.6688
 Red. masses --      2.0799                 3.7145                 3.2218
 Frc consts  --      0.2557                 0.5004                 0.6556
 IR Inten    --      2.2338                 3.9041                 1.5472

                     13                     14                     15
                      A                      A                      A
 Frequencies --    645.6685               805.5467               852.0883
 Red. masses --      5.6135                 4.8007                 2.7655
 Frc consts  --      1.3788                 1.8354                 1.1830
 IR Inten    --     11.1043                 3.8271                 5.3046

                     16                     17                     18
                      A                      A                      A
 Frequencies --    880.9804               902.7007               905.2531
 Red. masses --      2.5791                 2.7253                 1.6261
 Frc consts  --      1.1794                 1.3084                 0.7851
 IR Inten    --      5.7230                 3.6759                 0.4879

                     19                     20                     21
                      A                      A                      A
 Frequencies --    939.4737               944.4579               974.7720
 Red. masses --      1.4959                 3.8942                 1.7897
 Frc consts  --      0.7779                 2.0466                 1.0019
 IR Inten    --      0.5528                 0.3203                 2.0780

                     22                     23                     24
                      A                      A                      A
 Frequencies --   1016.3416              1054.9681              1089.1969
 Red. masses --      1.3086                 1.5223                 2.1353
 Frc consts  --      0.7964                 0.9982                 1.4925
 IR Inten    --      1.9096                 3.8623                11.2124

                     25                     26                     27
                      A                      A                      A
 Frequencies --   1151.2246              1195.4576              1205.7454
 Red. masses --      2.1888                 2.1310                 2.0950
 Frc consts  --      1.7091                 1.7943                 1.7945
 IR Inten    --      0.2364                23.5791                13.4760

                     28                     29                     30
                      A                      A                      A
 Frequencies --   1245.8182              1292.5429              1308.7229
 Red. masses --      2.1228                 1.8594                 1.7470
 Frc consts  --      1.9412                 1.8302                 1.7630
 IR Inten    --      6.1627                10.3317                17.1607

                     31                     32                     33
                      A                      A                      A
 Frequencies --   1360.9904              1384.5442              1395.5928
 Red. masses --      1.2288                 1.3986                 1.3059
 Frc consts  --      1.3411                 1.5797                 1.4985
 IR Inten    --     10.9185                13.3553                12.9503

                     34                     35                     36
                      A                      A                      A
 Frequencies --   1409.0171              1413.0321              1477.1408
 Red. masses --      1.3451                 1.2571                 1.0537
 Frc consts  --      1.5734                 1.4789                 1.3545
 IR Inten    --     11.8150                 2.3509                 0.4062

                     37                     38                     39
                      A                      A                      A
 Frequencies --   1484.1407              1485.8351              1493.1417
 Red. masses --      1.0509                 1.0489                 1.0588
 Frc consts  --      1.3638                 1.3643                 1.3908
 IR Inten    --      0.7852                 2.7993                 3.8523

                     40                     41                     42
                      A                      A                      A
 Frequencies --   1497.6022              1500.0774              1509.5245
 Red. masses --      1.0647                 1.0647                 1.0641
 Frc consts  --      1.4069                 1.4116                 1.4286
 IR Inten    --      4.3130                 3.4229                 2.4866

                     43                     44                     45
                      A                      A                      A
 Frequencies --   2997.1123              3036.2608              3042.2151
 Red. masses --      1.0838                 1.0352                 1.0353
 Frc consts  --      5.7361                 5.6229                 5.6451
 IR Inten    --     42.0516                14.2669                14.7490

                     46                     47                     48
                      A                      A                      A
 Frequencies --   3042.9925              3059.4095              3104.0172
 Red. masses --      1.0347                 1.0595                 1.1043
 Frc consts  --      5.6451                 5.8426                 6.2687
 IR Inten    --     16.1491                16.5206                13.9955

                     49                     50                     51
                      A                      A                      A
 Frequencies --   3108.6048              3115.9631              3118.4593
 Red. masses --      1.1028                 1.1013                 1.1014
 Frc consts  --      6.2790                 6.2999                 6.3109
 IR Inten    --      7.7264                25.3532                19.1955

                     52                     53                     54
                      A                      A                      A
 Frequencies --   3120.5430              3121.3523              3125.2925
 Red. masses --      1.1024                 1.1024                 1.1018
 Frc consts  --      6.3251                 6.3279                 6.3409
 IR Inten    --      3.7193                47.2584                18.4976

 - Thermochemistry -
 -------------------
 Temperature   298.150 Kelvin.  Pressure   1.00000 Atm.
 Atom     1 has atomic number  6 and mass  12.00000

 Molecular mass:   116.08373 amu.
 Principal axes and moments of inertia in atomic units:
                           1         2         3
     Eigenvalues --   487.521561218.723021250.60563
           X            0.99998   0.00648  -0.00100
           Y           -0.00409   0.73595   0.67703
           Z            0.00512  -0.67701   0.73596
 This molecule is an asymmetric top.
 Rotational symmetry number  1.
 Warning -- assumption of classical behavior for rotation
           may cause significant error
 Rotational temperatures (Kelvin)      0.17766     0.07107     0.06926
 Rotational constants (GHZ):           3.70187     1.48085     1.44309
 Zero-point vibrational energy     458529.7 (Joules/Mol)
                                  109.59123 (Kcal/Mol)
 Warning -- explicit consideration of  12 degrees of freedom as
           vibrations may cause significant error
 Vibrational temperatures:     90.02   297.50   306.22   336.58   358.51
          (Kelvin)            395.97   469.64   499.78   589.04   657.25
                              688.02   845.52   928.97  1159.00  1225.96
                             1267.53  1298.78  1302.46  1351.69  1358.86
                             1402.48  1462.29  1517.86  1567.11  1656.36
                             1720.00  1734.80  1792.45  1859.68  1882.96
                             1958.16  1992.05  2007.95  2027.26  2033.04
                             2125.28  2135.35  2137.79  2148.30  2154.72
                             2158.28  2171.87  4312.18  4368.50  4377.07
                             4378.19  4401.81  4465.99  4472.59  4483.18
                             4486.77  4489.77  4490.93  4496.60

 Zero-point correction=                           0.174645 (Hartree/Particle)
 Thermal correction to Energy=                    0.183374
 Thermal correction to Enthalpy=                  0.184318
 Thermal correction to Gibbs Free Energy=         0.141859
 Sum of electronic and zero-point Energies=           -386.084923
 Sum of electronic and thermal Energies=              -386.076193
 Sum of electronic and thermal Enthalpies=            -386.075249
 Sum of electronic and thermal Free Energies=         -386.117708

                     E (Thermal)             CV                S
                      KCal/Mol        Cal/Mol-Kelvin    Cal/Mol-Kelvin
 Total                  115.069             33.346             89.363
 Electronic               0.000              0.000              0.000
 Translational            0.889              2.981             40.163
 Rotational               0.889              2.981             28.098
 Vibrational            113.292             27.385             21.102
 Vibration     1          0.597              1.972              4.375
 Vibration     2          0.641              1.830              2.072
 Vibration     3          0.644              1.821              2.019
 Vibration     4          0.654              1.789              1.849
 Vibration     5          0.662              1.764              1.736
 Vibration     6          0.677              1.719              1.563
 Vibration     7          0.710              1.623              1.278
 Vibration     8          0.725              1.581              1.178
 Vibration     9          0.774              1.450              0.929
 Vibration    10          0.815              1.346              0.775
 Vibration    11          0.835              1.298              0.715
 Vibration    12          0.945              1.058              0.471

 Optimization completed.
    -- Stationary point found.
 Normal termination of Gaussian 16 at Mon May 22 02:09:18 2023.
