 Gaussian 16, Revision A.03,
 Gaussian 16:  ES64L-G16RevA.03 25-Dec-2016

 -----------------------------
 # opt freq b3lyp/6-31g(2df,p)
 -----------------------------

 -------------------
 Title Card Required
 -------------------
 Symbolic Z-matrix:
 Charge =  0 Multiplicity = 1

 SCF Done:  E(RB3LYP) =  -734.391568342     A.U. after   18 cycles
 SCF Done:  E(RB3LYP) =  -734.463901124     A.U. after   15 cycles
 SCF Done:  E(RB3LYP) =  -734.558007274     A.U. after   15 cycles
 SCF Done:  E(RB3LYP) =  -734.631188056     A.U. after   14 cycles
 SCF Done:  E(RB3LYP) =  -734.674007873     A.U. after   13 cycles
 SCF Done:  E(RB3LYP) =  -734.678949776     A.U. after   11 cycles
 SCF Done:  E(RB3LYP) =  -734.739747693     A.U. after   13 cycles
 SCF Done:  E(RB3LYP) =  -734.782900995     A.U. after   13 cycles
 SCF Done:  E(RB3LYP) =  -734.801451679     A.U. after   12 cycles
 SCF Done:  E(RB3LYP) =  -734.812074764     A.U. after   12 cycles
 SCF Done:  E(RB3LYP) =  -734.847478557     A.U. after    9 cycles
 SCF Done:  E(RB3LYP) =  -734.847480010     A.U. after    9 cycles
 SCF Done:  E(RB3LYP) =  -734.847481207     A.U. after    9 cycles
 SCF Done:  E(RB3LYP) =  -734.847482945     A.U. after    9 cycles
 SCF Done:  E(RB3LYP) =  -734.847484463     A.U. after    8 cycles
 SCF Done:  E(RB3LYP) =  -734.847484870     A.U. after    9 cycles
 SCF Done:  E(RB3LYP) =  -734.847485046     A.U. after    8 cycles
 SCF Done:  E(RB3LYP) =  -734.847485093     A.U. after    7 cycles
 SCF Done:  E(RB3LYP) =  -734.847485099     A.U. after    6 cycles
 Optimization completed.
    -- Stationary point found.
 Normal termination of Gaussian 16 at Mon May 22 13:46:41 2023.

 ----------------------------------------------------------------------
 #N Geom=AllCheck Guess=TCheck SCRF=Check GenChk RB3LYP/6-31G(2df,p) Fr
 eq
 ----------------------------------------------------------------------

 Structure from the checkpoint file:  "CC1CCC2dCC23CdCC3C2CdC2CCCC1dO.chk"
 -------------------
 Title Card Required
 -------------------
 Charge =  0 Multiplicity = 1

                         Standard orientation:
 ---------------------------------------------------------------------
 Center     Atomic      Atomic             Coordinates (Angstroms)
 Number     Number       Type             X           Y           Z
 ---------------------------------------------------------------------
      1          6           0        2.506667   -1.293008    1.726639
      2          6           0        2.334836   -1.429688    0.206573
      3          6           0        0.865523   -1.445185   -0.314460
      4          6           0       -0.213637   -2.038337    0.612151
      5          6           0       -1.566975   -1.776163    0.049765
      6          6           0       -2.681894   -2.476386   -0.228259
      7          6           0       -2.221150   -0.470404   -0.414872
      8          6           0       -3.464238   -1.239714   -0.733851
      9          6           0       -3.511156   -0.123349    0.273471
     10          6           0       -2.673808    0.957327   -0.406077
     11          6           0       -2.042623    2.016262    0.481907
     12          6           0       -1.397400    3.232900   -0.126045
     13          6           0       -0.575456    2.373394    0.384952
     14          6           0        0.783723    1.895622    0.738868
     15          6           0        1.796544    1.915114   -0.426773
     16          6           0        3.097622    1.113591   -0.145571
     17          6           0        3.072153   -0.353578   -0.606086
     18          8           0        3.612548   -0.656195   -1.646940
     19          1           0        2.092543   -2.165996    2.238854
     20          1           0        2.019124   -0.407357    2.142706
     21          1           0        3.568936   -1.237776    1.987223
     22          1           0        2.803274   -2.371622   -0.096560
     23          1           0        0.854868   -1.976732   -1.271138
     24          1           0        0.545678   -0.428456   -0.552707
     25          1           0       -0.141711   -1.569747    1.603735
     26          1           0       -0.069400   -3.114655    0.761188
     27          1           0       -2.954867   -3.516347   -0.116900
     28          1           0       -3.990215   -1.205175   -1.684538
     29          1           0       -3.684735   -0.180370    1.341163
     30          1           0       -3.010778    1.349469   -1.371459
     31          1           0       -2.530931    2.113313    1.456379
     32          1           0       -1.580964    4.161077   -0.639778
     33          1           0        0.692828    0.888322    1.148469
     34          1           0        1.177583    2.514433    1.556976
     35          1           0        2.066406    2.956055   -0.631308
     36          1           0        1.325053    1.545533   -1.342800
     37          1           0        3.345594    1.181426    0.919844
     38          1           0        3.918950    1.563757   -0.707824
 ---------------------------------------------------------------------

 SCF Done:  E(RB3LYP) =  -734.847485099     A.U. after    1 cycles

 The electronic state is 1-A.
 Alpha  occ. eigenvalues --  -19.12502 -10.26526 -10.20786 -10.20732 -10.20564
 Alpha  occ. eigenvalues --  -10.20265 -10.20200 -10.19901 -10.19808 -10.19491
 Alpha  occ. eigenvalues --  -10.19451 -10.19408 -10.19219 -10.19167 -10.19163
 Alpha  occ. eigenvalues --  -10.19121 -10.18841 -10.17565  -1.03602  -0.93362
 Alpha  occ. eigenvalues --   -0.87821  -0.82484  -0.80246  -0.79120  -0.74538
 Alpha  occ. eigenvalues --   -0.72666  -0.68186  -0.65253  -0.63220  -0.60181
 Alpha  occ. eigenvalues --   -0.58757  -0.56756  -0.56240  -0.53938  -0.53089
 Alpha  occ. eigenvalues --   -0.49685  -0.49270  -0.48218  -0.46967  -0.46392
 Alpha  occ. eigenvalues --   -0.45220  -0.44972  -0.43713  -0.43255  -0.41707
 Alpha  occ. eigenvalues --   -0.41499  -0.40865  -0.39498  -0.38960  -0.38076
 Alpha  occ. eigenvalues --   -0.37239  -0.36349  -0.35817  -0.35366  -0.34315
 Alpha  occ. eigenvalues --   -0.33289  -0.32923  -0.32809  -0.31412  -0.30007
 Alpha  occ. eigenvalues --   -0.27522  -0.24925  -0.24499  -0.23641  -0.19392
 Alpha virt. eigenvalues --   -0.01535  -0.00308   0.01147   0.06947   0.07804
 Alpha virt. eigenvalues --    0.09729   0.09864   0.10983   0.11641   0.12122
 Alpha virt. eigenvalues --    0.12390   0.13035   0.13502   0.13877   0.14064

 Mulliken charges:
               1
     1  C   -0.429482
     2  C   -0.074004
     3  C   -0.198441
     4  C   -0.374545
     5  C    0.248232
     6  C   -0.271791
     7  C    0.213446
     8  C   -0.173792
     9  C   -0.123837
    10  C   -0.169376
    11  C   -0.148262
    12  C   -0.253107
    13  C    0.299817
    14  C   -0.362943
    15  C   -0.195850
    16  C   -0.299280
    17  C    0.367966
    18  O   -0.314318
    19  H    0.128189
    20  H    0.124529
    21  H    0.120926
    22  H    0.099161
    23  H    0.123362
    24  H    0.123499
    25  H    0.111234
    26  H    0.111467
    27  H    0.102625
    28  H    0.091520
    29  H    0.102811
    30  H    0.081366
    31  H    0.078666
    32  H    0.138412
    33  H    0.127938
    34  H    0.122869
    35  H    0.113241
    36  H    0.126819
    37  H    0.107455
    38  H    0.123478
 Sum of Mulliken charges =  -0.00000

 Dipole moment (field-independent basis, Debye):
    X=              0.2364    Y=              1.2412    Z=              2.5947  Tot=              2.8860
 Quadrupole moment (field-independent basis, Debye-Ang):
   XX=           -118.4598   YY=           -100.1331   ZZ=           -109.9356
   XY=              2.8488   XZ=              9.2797   YZ=             -3.4121

  Exact polarizability: 196.118   2.730 184.947   3.991  -2.957 133.222
 Approx polarizability: 276.711   0.325 271.201   2.174  -1.302 226.575

                      1                      2                      3
                      A                      A                      A
 Frequencies --     18.2183                55.4021                66.9648
 Red. masses --      3.1959                 8.0636                 2.9039
 Frc consts  --      0.0006                 0.0146                 0.0077
 IR Inten    --      0.8336                 3.0608                 0.1629

                      4                      5                      6
                      A                      A                      A
 Frequencies --     90.4613               115.8035               136.2770
 Red. masses --      3.2640                 4.2638                 2.8591
 Frc consts  --      0.0157                 0.0337                 0.0313
 IR Inten    --      0.4357                 0.5519                 0.6286

                      7                      8                      9
                      A                      A                      A
 Frequencies --    158.5185               178.3547               206.8036
 Red. masses --      3.5422                 3.1524                 2.8002
 Frc consts  --      0.0524                 0.0591                 0.0706
 IR Inten    --      1.1197                 0.8725                 0.5387

                     10                     11                     12
                      A                      A                      A
 Frequencies --    219.4562               234.9109               238.7749
 Red. masses --      2.7484                 3.1409                 2.8020
 Frc consts  --      0.0780                 0.1021                 0.0941
 IR Inten    --      0.6897                 0.6602                 0.0763

                     13                     14                     15
                      A                      A                      A
 Frequencies --    256.4121               262.0741               302.2289
 Red. masses --      1.7554                 1.6431                 3.1636
 Frc consts  --      0.0680                 0.0665                 0.1703
 IR Inten    --      2.2656                 1.1481                 0.6842

                     16                     17                     18
                      A                      A                      A
 Frequencies --    351.7428               358.9816               383.2471
 Red. masses --      3.0842                 2.9879                 2.9431
 Frc consts  --      0.2248                 0.2269                 0.2547
 IR Inten    --      1.6727                 0.5339                 1.5667

                     19                     20                     21
                      A                      A                      A
 Frequencies --    391.1159               425.0109               456.7358
 Red. masses --      4.3861                 3.8221                 2.9804
 Frc consts  --      0.3953                 0.4068                 0.3663
 IR Inten    --      3.0265                 2.8912                 4.0517

                     22                     23                     24
                      A                      A                      A
 Frequencies --    486.6102               539.3925               551.6256
 Red. masses --      2.2585                 3.5145                 2.9331
 Frc consts  --      0.3151                 0.6025                 0.5259
 IR Inten    --      2.3953                 6.6475                 8.5313

                     25                     26                     27
                      A                      A                      A
 Frequencies --    594.9096               634.2885               670.3357
 Red. masses --      2.5757                 3.4010                 2.7426
 Frc consts  --      0.5371                 0.8062                 0.7261
 IR Inten    --      1.5661                 2.3904                 0.6551

                     28                     29                     30
                      A                      A                      A
 Frequencies --    712.5559               726.8248               740.5198
 Red. masses --      2.7187                 2.1278                 1.4788
 Frc consts  --      0.8133                 0.6623                 0.4778
 IR Inten    --      8.2885                 4.4147                20.7535

                     31                     32                     33
                      A                      A                      A
 Frequencies --    745.9579               765.3464               780.9297
 Red. masses --      2.0091                 1.4146                 3.3631
 Frc consts  --      0.6587                 0.4882                 1.2084
 IR Inten    --      4.3475                33.3597                 7.0016

                     34                     35                     36
                      A                      A                      A
 Frequencies --    797.7156               814.7147               865.1443
 Red. masses --      2.3844                 2.2710                 2.7545
 Frc consts  --      0.8940                 0.8881                 1.2147
 IR Inten    --      6.4397                 2.4985                 7.5007

                     37                     38                     39
                      A                      A                      A
 Frequencies --    872.2945               875.2935               881.0019
 Red. masses --      2.2491                 2.8100                 2.3717
 Frc consts  --      1.0083                 1.2684                 1.0846
 IR Inten    --     14.2534                 0.7054                 2.2768

                     40                     41                     42
                      A                      A                      A
 Frequencies --    942.8158               958.4550               968.8833
 Red. masses --      1.9354                 1.9919                 1.4800
 Frc consts  --      1.0136                 1.0781                 0.8186
 IR Inten    --     20.6572                 2.9989                16.5994

                     43                     44                     45
                      A                      A                      A
 Frequencies --    976.3906               980.1123              1009.8800
 Red. masses --      1.7034                 1.7584                 2.4351
 Frc consts  --      0.9568                 0.9952                 1.4632
 IR Inten    --      6.6206                16.9415                 1.3168

                     46                     47                     48
                      A                      A                      A
 Frequencies --   1026.8887              1029.3420              1044.2768
 Red. masses --      2.2969                 2.3355                 2.4963
 Frc consts  --      1.4270                 1.4580                 1.6039
 IR Inten    --      4.3353                 3.9471                 6.6647

                     49                     50                     51
                      A                      A                      A
 Frequencies --   1045.1817              1049.3141              1058.0429
 Red. masses --      1.9063                 2.3705                 1.9860
 Frc consts  --      1.2270                 1.5378                 1.3099
 IR Inten    --      1.0318                 7.6694                 9.7864

                     52                     53                     54
                      A                      A                      A
 Frequencies --   1070.6999              1084.7816              1112.5630
 Red. masses --      2.1528                 1.9924                 1.4995
 Frc consts  --      1.4541                 1.3814                 1.0936
 IR Inten    --      1.9687                13.5301                 1.2570

                     55                     56                     57
                      A                      A                      A
 Frequencies --   1117.3361              1142.3216              1163.2071
 Red. masses --      2.9444                 1.6889                 1.5977
 Frc consts  --      2.1657                 1.2985                 1.2737
 IR Inten    --      0.7711                 3.3197                13.0947

                     58                     59                     60
                      A                      A                      A
 Frequencies --   1167.9198              1168.8044              1186.6497
 Red. masses --      1.4026                 1.5582                 1.8763
 Frc consts  --      1.1272                 1.2542                 1.5567
 IR Inten    --      3.4645                 5.7000                17.8218

                     61                     62                     63
                      A                      A                      A
 Frequencies --   1210.0109              1213.2691              1234.9982
 Red. masses --      2.4407                 1.5192                 1.5303
 Frc consts  --      2.1054                 1.3176                 1.3751
 IR Inten    --     10.7790                 0.8614                10.1748

                     64                     65                     66
                      A                      A                      A
 Frequencies --   1273.2959              1276.2088              1294.5565
 Red. masses --      1.3359                 1.3963                 2.4278
 Frc consts  --      1.2761                 1.3399                 2.3972
 IR Inten    --      7.4423                22.0682                 8.3281

                     67                     68                     69
                      A                      A                      A
 Frequencies --   1299.2529              1307.7693              1325.3348
 Red. masses --      1.2879                 1.3602                 1.2480
 Frc consts  --      1.2809                 1.3707                 1.2915
 IR Inten    --      1.2850                 2.6394                 3.5779

                     70                     71                     72
                      A                      A                      A
 Frequencies --   1330.7498              1337.2114              1343.7753
 Red. masses --      1.3513                 1.6260                 1.3667
 Frc consts  --      1.4099                 1.7130                 1.4540
 IR Inten    --      2.8811                32.3882                 3.8220

                     73                     74                     75
                      A                      A                      A
 Frequencies --   1362.7635              1365.0722              1380.2468
 Red. masses --      2.1373                 1.2982                 1.4702
 Frc consts  --      2.3386                 1.4252                 1.6502
 IR Inten    --     26.0971                 2.4070                 0.9341

                     76                     77                     78
                      A                      A                      A
 Frequencies --   1390.4979              1403.2473              1413.9635
 Red. masses --      1.2852                 1.9995                 1.2284
 Frc consts  --      1.4641                 2.3198                 1.4469
 IR Inten    --      1.0420                16.4457                 5.5295

                     79                     80                     81
                      A                      A                      A
 Frequencies --   1467.4324              1473.9558              1479.6850
 Red. masses --      1.0799                 1.0890                 1.0860
 Frc consts  --      1.3700                 1.3940                 1.4009
 IR Inten    --      1.6648                10.3370                 2.7069

                     82                     83                     84
                      A                      A                      A
 Frequencies --   1498.0162              1502.3666              1504.2749
 Red. masses --      1.0661                 1.0653                 1.0458
 Frc consts  --      1.4095                 1.4166                 1.3943
 IR Inten    --      1.6394                 5.2601                 4.7210

                     85                     86                     87
                      A                      A                      A
 Frequencies --   1507.8086              1666.0725              1790.7149
 Red. masses --      1.0822                 8.1478                11.1039
 Frc consts  --      1.4496                13.3254                20.9787
 IR Inten    --      0.9216                 9.5834               167.3155

                     88                     89                     90
                      A                      A                      A
 Frequencies --   1854.0945              3006.0846              3017.0579
 Red. masses --      7.4299                 1.0636                 1.0725
 Frc consts  --     15.0486                 5.6630                 5.7519
 IR Inten    --     11.9550                15.0386                12.6154

                     91                     92                     93
                      A                      A                      A
 Frequencies --   3028.2123              3037.7885              3039.9364
 Red. masses --      1.0872                 1.0836                 1.0411
 Frc consts  --      5.8738                 5.8915                 5.6684
 IR Inten    --     46.7579                52.2206                 7.3960

                     94                     95                     96
                      A                      A                      A
 Frequencies --   3044.4217              3048.8003              3050.9095
 Red. masses --      1.0591                 1.0615                 1.0840
 Frc consts  --      5.7835                 5.8135                 5.9449
 IR Inten    --     22.2847                12.0314                10.3903

                     97                     98                     99
                      A                      A                      A
 Frequencies --   3060.4205              3066.1061              3085.5455
 Red. masses --      1.0924                 1.0674                 1.0992
 Frc consts  --      6.0285                 5.9125                 6.1661
 IR Inten    --      9.8394                12.5932                21.6077

                    100                    101                    102
                      A                      A                      A
 Frequencies --   3102.7945              3106.6527              3108.7475
 Red. masses --      1.0996                 1.0990                 1.0950
 Frc consts  --      6.2370                 6.2491                 6.2353
 IR Inten    --     27.2785                 8.0413                62.2272

                    103                    104                    105
                      A                      A                      A
 Frequencies --   3113.0117              3122.3810              3138.5016
 Red. masses --      1.0964                 1.0949                 1.0902
 Frc consts  --      6.2600                 6.2890                 6.3271
 IR Inten    --      7.1842                16.0181                31.2105

                    106                    107                    108
                      A                      A                      A
 Frequencies --   3186.4756              3227.5306              3277.2193
 Red. masses --      1.0925                 1.0988                 1.1165
 Frc consts  --      6.5359                 6.7440                 7.0651
 IR Inten    --     11.7549                 9.4095                 0.2482

 - Thermochemistry -
 -------------------
 Temperature   298.150 Kelvin.  Pressure   1.00000 Atm.
 Atom     1 has atomic number  6 and mass  12.00000

 Molecular mass:   240.15142 amu.
 Principal axes and moments of inertia in atomic units:
                           1         2         3
     Eigenvalues --  3050.752165484.651637462.14042
           X            0.99988   0.00587   0.01421
           Y           -0.00566   0.99987  -0.01486
           Z           -0.01429   0.01477   0.99979
 This molecule is an asymmetric top.
 Rotational symmetry number  1.
 Warning -- assumption of classical behavior for rotation
           may cause significant error
 Rotational temperatures (Kelvin)      0.02839     0.01579     0.01161
 Rotational constants (GHZ):           0.59157     0.32905     0.24185
 Zero-point vibrational energy     847207.7 (Joules/Mol)
                                  202.48750 (Kcal/Mol)
 Warning -- explicit consideration of  25 degrees of freedom as
           vibrations may cause significant error
 Vibrational temperatures:     26.21    79.71    96.35   130.15   166.62
          (Kelvin)            196.07   228.07   256.61   297.54   315.75
                              337.98   343.54   368.92   377.07   434.84
                              506.08   516.49   551.41   562.73   611.50
                              657.14   700.12   776.07   793.67   855.94
                              912.60   964.46  1025.21  1045.74  1065.44
                             1073.27  1101.16  1123.58  1147.73  1172.19
                             1244.75  1255.04  1259.35  1267.57  1356.50
                             1379.00  1394.01  1404.81  1410.16  1452.99
                             1477.46  1480.99  1502.48  1503.78  1509.73
                             1522.29  1540.50  1560.76  1600.73  1607.60
                             1643.55  1673.60  1680.38  1681.65  1707.32
                             1740.94  1745.62  1776.89  1831.99  1836.18
                             1862.58  1869.34  1881.59  1906.86  1914.65
                             1923.95  1933.39  1960.71  1964.03  1985.87
                             2000.62  2018.96  2034.38  2111.31  2120.69
                             2128.94  2155.31  2161.57  2164.32  2169.40
                             2397.11  2576.44  2667.63  4325.09  4340.87
                             4356.92  4370.70  4373.79  4380.24  4386.54
                             4389.58  4403.26  4411.44  4439.41  4464.23
                             4469.78  4472.79  4478.93  4492.41  4515.60
                             4584.63  4643.70  4715.19

 Zero-point correction=                           0.322684 (Hartree/Particle)
 Thermal correction to Energy=                    0.339629
 Thermal correction to Enthalpy=                  0.340574
 Thermal correction to Gibbs Free Energy=         0.277907
 Sum of electronic and zero-point Energies=           -734.524801
 Sum of electronic and thermal Energies=              -734.507856
 Sum of electronic and thermal Enthalpies=            -734.506911
 Sum of electronic and thermal Free Energies=         -734.569578

                     E (Thermal)             CV                S
                      KCal/Mol        Cal/Mol-Kelvin    Cal/Mol-Kelvin
 Total                  213.121             66.998            131.893
 Electronic               0.000              0.000              0.000
 Translational            0.889              2.981             42.329
 Rotational               0.889              2.981             33.190
 Vibrational            211.343             61.037             56.373
 Vibration     1          0.593              1.986              6.819
 Vibration     2          0.596              1.975              4.615
 Vibration     3          0.598              1.970              4.241
 Vibration     4          0.602              1.956              3.650
 Vibration     5          0.608              1.936              3.169
 Vibration     6          0.614              1.917              2.855
 Vibration     7          0.621              1.893              2.567
 Vibration     8          0.629              1.869              2.346
 Vibration     9          0.641              1.830              2.072
 Vibration    10          0.647              1.811              1.964
 Vibration    11          0.655              1.787              1.841
 Vibration    12          0.657              1.781              1.812
 Vibration    13          0.666              1.752              1.686
 Vibration    14          0.669              1.742              1.648
 Vibration    15          0.694              1.669              1.405
 Vibration    16          0.728              1.572              1.158
 Vibration    17          0.734              1.557              1.127
 Vibration    18          0.752              1.506              1.026
 Vibration    19          0.759              1.489              0.996
 Vibration    20          0.787              1.416              0.875
 Vibration    21          0.815              1.346              0.776
 Vibration    22          0.843              1.280              0.692
 Vibration    23          0.894              1.163              0.567
 Vibration    24          0.907              1.136              0.541
 Vibration    25          0.953              1.043              0.458

 Optimization completed on the basis of negligible forces.
    -- Stationary point found.
 Normal termination of Gaussian 16 at Mon May 22 19:14:43 2023.
