 Gaussian 16, Revision A.03,
 Gaussian 16:  ES64L-G16RevA.03 25-Dec-2016

 -----------------------------
 # opt freq b3lyp/6-31g(2df,p)
 -----------------------------

 -------------------
 Title Card Required
 -------------------
 Symbolic Z-matrix:
 Charge =  0 Multiplicity = 1

 SCF Done:  E(RB3LYP) =  -353.832147009     A.U. after   12 cycles
 SCF Done:  E(RB3LYP) =  -353.834779094     A.U. after   10 cycles
 SCF Done:  E(RB3LYP) =  -353.835639539     A.U. after    9 cycles
 SCF Done:  E(RB3LYP) =  -353.835894093     A.U. after    9 cycles
 SCF Done:  E(RB3LYP) =  -353.836040637     A.U. after    9 cycles
 SCF Done:  E(RB3LYP) =  -353.836160268     A.U. after    9 cycles
 SCF Done:  E(RB3LYP) =  -353.836293487     A.U. after    9 cycles
 SCF Done:  E(RB3LYP) =  -353.836460682     A.U. after   10 cycles
 SCF Done:  E(RB3LYP) =  -353.836299744     A.U. after   10 cycles
 SCF Done:  E(RB3LYP) =  -353.835942000     A.U. after   10 cycles
 SCF Done:  E(RB3LYP) =  -353.837182513     A.U. after   10 cycles
 SCF Done:  E(RB3LYP) =  -353.838452680     A.U. after   11 cycles
 SCF Done:  E(RB3LYP) =  -353.839470877     A.U. after    9 cycles
 SCF Done:  E(RB3LYP) =  -353.839919529     A.U. after    9 cycles
 SCF Done:  E(RB3LYP) =  -353.839931401     A.U. after    9 cycles
 SCF Done:  E(RB3LYP) =  -353.839950205     A.U. after    8 cycles
 SCF Done:  E(RB3LYP) =  -353.839953792     A.U. after    7 cycles
 SCF Done:  E(RB3LYP) =  -353.839954215     A.U. after    6 cycles
 SCF Done:  E(RB3LYP) =  -353.839954292     A.U. after    5 cycles
 Optimization completed.
    -- Stationary point found.
 Normal termination of Gaussian 16 at Sun May 28 13:29:04 2023.

 ----------------------------------------------------------------------
 #N Geom=AllCheck Guess=TCheck SCRF=Check GenChk RB3LYP/6-31G(2df,p) Fr
 eq
 ----------------------------------------------------------------------

 Structure from the checkpoint file:  "CC1CCCCCqCrC1.chk"
 -------------------
 Title Card Required
 -------------------
 Charge =  0 Multiplicity = 1

                         Standard orientation:
 ---------------------------------------------------------------------
 Center     Atomic      Atomic             Coordinates (Angstroms)
 Number     Number       Type             X           Y           Z
 ---------------------------------------------------------------------
      1          6           0        2.311973   -1.556572    0.131315
      2          6           0        1.133844   -0.575666    0.232815
      3          6           0        1.635866    0.864051    0.001675
      4          6           0        0.660661    2.000676    0.338022
      5          6           0       -0.727189    1.934396   -0.320059
      6          6           0       -1.611758    0.801055    0.226582
      7          6           0       -1.428868   -0.591581   -0.413709
      8          6           0       -2.071147   -1.660471    0.483440
      9          6           0        0.028564   -0.962144   -0.776278
     10          1           0        3.109217   -1.300147    0.837084
     11          1           0        2.745143   -1.543590   -0.876488
     12          1           0        1.993769   -2.583261    0.340271
     13          1           0        0.731494   -0.646000    1.253730
     14          1           0        1.941632    0.948591   -1.051554
     15          1           0        2.549022    1.019983    0.590595
     16          1           0        1.140347    2.949522    0.066696
     17          1           0        0.517454    2.038685    1.427236
     18          1           0       -0.630463    1.853912   -1.411290
     19          1           0       -1.231274    2.890446   -0.134743
     20          1           0       -2.668164    1.076028    0.119703
     21          1           0       -1.440374    0.725894    1.309612
     22          1           0       -1.985432   -0.587455   -1.361288
     23          1           0       -1.517384   -1.772175    1.423421
     24          1           0       -2.090206   -2.638018   -0.009720
     25          1           0       -3.102205   -1.394492    0.741316
     26          1           0        0.288308   -0.514174   -1.744090
     27          1           0        0.057439   -2.046208   -0.943306
 ---------------------------------------------------------------------

 SCF Done:  E(RB3LYP) =  -353.839954292     A.U. after    1 cycles

 The electronic state is 1-A.
 Alpha  occ. eigenvalues --  -10.17865 -10.17860 -10.17210 -10.17189 -10.17007
 Alpha  occ. eigenvalues --  -10.16986 -10.16789 -10.16648 -10.16630  -0.82427
 Alpha  occ. eigenvalues --   -0.77397  -0.76285  -0.69286  -0.67021  -0.63606
 Alpha  occ. eigenvalues --   -0.59425  -0.55471  -0.52858  -0.46233  -0.45733
 Alpha  occ. eigenvalues --   -0.44333  -0.42909  -0.41186  -0.39444  -0.39088
 Alpha  occ. eigenvalues --   -0.38196  -0.37594  -0.36173  -0.34867  -0.34277
 Alpha  occ. eigenvalues --   -0.31802  -0.31336  -0.30365  -0.29863  -0.29580
 Alpha  occ. eigenvalues --   -0.29035
 Alpha virt. eigenvalues --    0.07893   0.09796   0.10644   0.11398   0.13541
 Alpha virt. eigenvalues --    0.14370   0.14934   0.15727   0.16523   0.16845
 Alpha virt. eigenvalues --    0.17406   0.18058   0.18634   0.19024   0.19826

 Mulliken charges:
               1
     1  C   -0.399586
     2  C    0.047355
     3  C   -0.170508
     4  C   -0.196501
     5  C   -0.202426
     6  C   -0.178341
     7  C    0.031174
     8  C   -0.390483
     9  C   -0.195870
    10  H    0.106018
    11  H    0.110661
    12  H    0.107484
    13  H    0.066322
    14  H    0.087430
    15  H    0.084290
    16  H    0.086938
    17  H    0.090287
    18  H    0.089396
    19  H    0.088836
    20  H    0.087296
    21  H    0.087847
    22  H    0.066754
    23  H    0.113010
    24  H    0.106766
    25  H    0.107478
    26  H    0.086046
    27  H    0.082328
 Sum of Mulliken charges =  -0.00000

 Dipole moment (field-independent basis, Debye):
    X=             -0.0685    Y=              0.1071    Z=             -0.0325  Tot=              0.1312
 Quadrupole moment (field-independent basis, Debye-Ang):
   XX=            -60.2329   YY=            -60.1181   ZZ=            -59.3275
   XY=              0.0279   XZ=              0.3120   YZ=              0.0568

  Exact polarizability: 102.537   0.119 100.806   0.187   0.201  82.469
 Approx polarizability: 133.254   0.586 133.034   0.149   0.106 132.953

                      1                      2                      3
                      A                      A                      A
 Frequencies --     86.3256               122.9958               178.1132
 Red. masses --      2.4204                 2.4692                 2.0180
 Frc consts  --      0.0106                 0.0220                 0.0377
 IR Inten    --      0.0065                 0.0349                 0.0115

                      4                      5                      6
                      A                      A                      A
 Frequencies --    228.8468               243.0781               284.9564
 Red. masses --      1.1937                 1.0532                 2.4267
 Frc consts  --      0.0368                 0.0367                 0.1161
 IR Inten    --      0.0174                 0.0366                 0.0385

                      7                      8                      9
                      A                      A                      A
 Frequencies --    293.8531               336.8248               354.0779
 Red. masses --      2.2149                 2.2517                 2.1685
 Frc consts  --      0.1127                 0.1505                 0.1602
 IR Inten    --      0.0498                 0.0233                 0.0083

                     10                     11                     12
                      A                      A                      A
 Frequencies --    356.2424               439.1697               456.8099
 Red. masses --      2.1458                 2.3071                 2.0386
 Frc consts  --      0.1604                 0.2622                 0.2506
 IR Inten    --      0.0436                 0.0801                 0.0420

                     13                     14                     15
                      A                      A                      A
 Frequencies --    503.0813               551.0407               748.5139
 Red. masses --      1.6084                 2.5103                 2.5125
 Frc consts  --      0.2398                 0.4491                 0.8294
 IR Inten    --      0.2071                 0.6327                 0.2949

                     16                     17                     18
                      A                      A                      A
 Frequencies --    789.1191               821.6598               833.4193
 Red. masses --      1.8544                 1.9964                 1.7463
 Frc consts  --      0.6803                 0.7941                 0.7147
 IR Inten    --      0.1629                 0.9422                 0.7123

                     19                     20                     21
                      A                      A                      A
 Frequencies --    894.3338               903.8150               938.9778
 Red. masses --      1.4936                 1.6989                 2.0390
 Frc consts  --      0.7038                 0.8177                 1.0592
 IR Inten    --      1.5626                 0.8124                 0.2458

                     22                     23                     24
                      A                      A                      A
 Frequencies --    954.2838               961.9457               984.5170
 Red. masses --      1.8655                 1.8760                 1.5167
 Frc consts  --      1.0009                 1.0228                 0.8662
 IR Inten    --      1.4885                 1.0681                 0.7813

                     25                     26                     27
                      A                      A                      A
 Frequencies --   1030.5979              1050.4733              1067.8563
 Red. masses --      1.5567                 1.8294                 1.4298
 Frc consts  --      0.9742                 1.1894                 0.9606
 IR Inten    --      0.5486                 0.4741                 0.2181

                     28                     29                     30
                      A                      A                      A
 Frequencies --   1074.1624              1085.4065              1116.3044
 Red. masses --      2.8676                 1.5178                 1.8874
 Frc consts  --      1.9494                 1.0535                 1.3858
 IR Inten    --      0.4252                 0.6861                 0.1831

                     31                     32                     33
                      A                      A                      A
 Frequencies --   1162.9638              1190.7064              1213.4210
 Red. masses --      2.0710                 2.0282                 1.8088
 Frc consts  --      1.6503                 1.6942                 1.5692
 IR Inten    --      1.4849                 1.7822                 0.3970

                     34                     35                     36
                      A                      A                      A
 Frequencies --   1230.4256              1261.3330              1278.9880
 Red. masses --      1.2187                 1.2740                 1.2951
 Frc consts  --      1.0870                 1.1942                 1.2482
 IR Inten    --      1.0261                 2.9737                 2.0689

                     37                     38                     39
                      A                      A                      A
 Frequencies --   1308.2859              1323.1418              1341.6085
 Red. masses --      1.1102                 1.3701                 1.2532
 Frc consts  --      1.1196                 1.4132                 1.3290
 IR Inten    --      0.4775                 2.1820                 1.2585

                     40                     41                     42
                      A                      A                      A
 Frequencies --   1343.9736              1368.2512              1377.0693
 Red. masses --      1.2623                 1.3433                 1.4041
 Frc consts  --      1.3434                 1.4817                 1.5687
 IR Inten    --      3.0352                 1.8066                 2.1136

                     43                     44                     45
                      A                      A                      A
 Frequencies --   1387.8694              1389.4828              1396.1994
 Red. masses --      1.4401                 1.4122                 1.4498
 Frc consts  --      1.6344                 1.6064                 1.6651
 IR Inten    --      1.5528                 1.4261                 2.0151

                     46                     47                     48
                      A                      A                      A
 Frequencies --   1402.2303              1410.2652              1420.4151
 Red. masses --      1.3541                 1.2322                 1.3021
 Frc consts  --      1.5687                 1.4439                 1.5479
 IR Inten    --      0.2930                 2.4888                 4.5963

                     49                     50                     51
                      A                      A                      A
 Frequencies --   1477.8006              1486.4828              1486.5556
 Red. masses --      1.0768                 1.0930                 1.0897
 Frc consts  --      1.3855                 1.4229                 1.4188
 IR Inten    --      0.4750                 1.3050                 2.6452

                     52                     53                     54
                      A                      A                      A
 Frequencies --   1494.3797              1498.3275              1499.2581
 Red. masses --      1.0656                 1.0511                 1.0564
 Frc consts  --      1.4021                 1.3903                 1.3991
 IR Inten    --      2.2514                 2.9144                 1.2149

                     55                     56                     57
                      A                      A                      A
 Frequencies --   1501.7583              1502.2670              1506.7196
 Red. masses --      1.0693                 1.0665                 1.0691
 Frc consts  --      1.4209                 1.4181                 1.4299
 IR Inten    --      3.5473                 5.0810                 8.9387

                     58                     59                     60
                      A                      A                      A
 Frequencies --   2990.7009              2993.8100              3001.5533
 Red. masses --      1.0783                 1.0721                 1.0737
 Frc consts  --      5.6826                 5.6616                 5.6994
 IR Inten    --      7.4553                 2.5188                20.0715

                     61                     62                     63
                      A                      A                      A
 Frequencies --   3003.0856              3007.4077              3012.6593
 Red. masses --      1.0640                 1.0636                 1.0627
 Frc consts  --      5.6534                 5.6680                 5.6829
 IR Inten    --     11.6192                22.5318                 7.6558

                     64                     65                     66
                      A                      A                      A
 Frequencies --   3015.7189              3022.2621              3023.3712
 Red. masses --      1.0583                 1.0372                 1.0420
 Frc consts  --      5.6705                 5.5820                 5.6116
 IR Inten    --     30.5461                43.8091                36.5110

                     67                     68                     69
                      A                      A                      A
 Frequencies --   3038.3065              3044.0072              3044.7590
 Red. masses --      1.0955                 1.1010                 1.1011
 Frc consts  --      5.9581                 6.0107                 6.0141
 IR Inten    --     62.5603                29.9577                12.1373

                     70                     71                     72
                      A                      A                      A
 Frequencies --   3052.5995              3055.7804              3086.4935
 Red. masses --      1.0941                 1.1017                 1.1001
 Frc consts  --      6.0070                 6.0613                 6.1744
 IR Inten    --     79.6286                78.3169                23.3019

                     73                     74                     75
                      A                      A                      A
 Frequencies --   3087.6500              3094.6614              3096.7579
 Red. masses --      1.1002                 1.1015                 1.1016
 Frc consts  --      6.1799                 6.2155                 6.2241
 IR Inten    --     70.3496                28.2492                45.5108

 - Thermochemistry -
 -------------------
 Temperature   298.150 Kelvin.  Pressure   1.00000 Atm.
 Atom     1 has atomic number  6 and mass  12.00000

 Molecular mass:   126.14085 amu.
 Principal axes and moments of inertia in atomic units:
                           1         2         3
     Eigenvalues --  1009.865271181.920791941.44272
           X            0.99997  -0.00547  -0.00521
           Y            0.00546   0.99998  -0.00256
           Z            0.00523   0.00253   0.99998
 This molecule is an asymmetric top.
 Rotational symmetry number  1.
 Warning -- assumption of classical behavior for rotation
           may cause significant error
 Rotational temperatures (Kelvin)      0.08577     0.07328     0.04461
 Rotational constants (GHZ):           1.78711     1.52696     0.92959
 Zero-point vibrational energy     667651.2 (Joules/Mol)
                                  159.57247 (Kcal/Mol)
 Warning -- explicit consideration of  14 degrees of freedom as
           vibrations may cause significant error
 Vibrational temperatures:    124.20   176.96   256.27   329.26   349.74
          (Kelvin)            409.99   422.79   484.62   509.44   512.55
                              631.87   657.25   723.82   792.82  1076.94
                             1135.37  1182.19  1199.10  1286.75  1300.39
                             1350.98  1373.00  1384.03  1416.50  1482.80
                             1511.40  1536.41  1545.48  1561.66  1606.11
                             1673.25  1713.16  1745.84  1770.31  1814.78
                             1840.18  1882.33  1903.71  1930.28  1933.68
                             1968.61  1981.30  1996.83  1999.16  2008.82
                             2017.50  2029.06  2043.66  2126.23  2138.72
                             2138.82  2150.08  2155.76  2157.10  2160.70
                             2161.43  2167.83  4302.95  4307.42  4318.57
                             4320.77  4326.99  4334.54  4338.95  4348.36
                             4349.96  4371.45  4379.65  4380.73  4392.01
                             4396.59  4440.78  4442.44  4452.53  4455.54

 Zero-point correction=                           0.254295 (Hartree/Particle)
 Thermal correction to Energy=                    0.264092
 Thermal correction to Enthalpy=                  0.265036
 Thermal correction to Gibbs Free Energy=         0.220239
 Sum of electronic and zero-point Energies=           -353.585659
 Sum of electronic and thermal Energies=              -353.575862
 Sum of electronic and thermal Enthalpies=            -353.574918
 Sum of electronic and thermal Free Energies=         -353.619716

                     E (Thermal)             CV                S
                      KCal/Mol        Cal/Mol-Kelvin    Cal/Mol-Kelvin
 Total                  165.720             38.922             94.284
 Electronic               0.000              0.000              0.000
 Translational            0.889              2.981             40.410
 Rotational               0.889              2.981             29.229
 Vibrational            163.943             32.960             24.645
 Vibration     1          0.601              1.959              3.742
 Vibration     2          0.610              1.930              3.053
 Vibration     3          0.629              1.869              2.348
 Vibration     4          0.652              1.797              1.888
 Vibration     5          0.659              1.774              1.780
 Vibration     6          0.683              1.702              1.504
 Vibration     7          0.689              1.685              1.452
 Vibration     8          0.718              1.602              1.227
 Vibration     9          0.730              1.567              1.148
 Vibration    10          0.732              1.562              1.138
 Vibration    11          0.799              1.385              0.829
 Vibration    12          0.815              1.346              0.775
 Vibration    13          0.858              1.243              0.650
 Vibration    14          0.906              1.137              0.542

 Optimization completed.
    -- Stationary point found.
 Normal termination of Gaussian 16 at Sun May 28 14:16:41 2023.
