 Gaussian 16, Revision A.03,
 Gaussian 16:  ES64L-G16RevA.03 25-Dec-2016

 -----------------------------
 # opt freq b3lyp/6-31g(2df,p)
 -----------------------------

 -------------------
 Title Card Required
 -------------------
 Symbolic Z-matrix:
 Charge =  0 Multiplicity = 1

 SCF Done:  E(RB3LYP) =  -352.625857308     A.U. after   12 cycles
 SCF Done:  E(RB3LYP) =  -352.628788830     A.U. after   10 cycles
 SCF Done:  E(RB3LYP) =  -352.628975695     A.U. after    9 cycles
 SCF Done:  E(RB3LYP) =  -352.629016442     A.U. after    8 cycles
 SCF Done:  E(RB3LYP) =  -352.629023790     A.U. after    8 cycles
 SCF Done:  E(RB3LYP) =  -352.629027852     A.U. after    8 cycles
 SCF Done:  E(RB3LYP) =  -352.629030331     A.U. after    8 cycles
 SCF Done:  E(RB3LYP) =  -352.629031195     A.U. after    7 cycles
 SCF Done:  E(RB3LYP) =  -352.629031298     A.U. after    6 cycles
 Optimization completed.
    -- Stationary point found.
 Normal termination of Gaussian 16 at Sun May 28 20:13:14 2023.

 ----------------------------------------------------------------------
 #N Geom=AllCheck Guess=TCheck SCRF=Check GenChk RB3LYP/6-31G(2df,p) Fr
 eq
 ----------------------------------------------------------------------

 Structure from the checkpoint file:  "CC1CCC2CCCC12.chk"
 -------------------
 Title Card Required
 -------------------
 Charge =  0 Multiplicity = 1

                         Standard orientation:
 ---------------------------------------------------------------------
 Center     Atomic      Atomic             Coordinates (Angstroms)
 Number     Number       Type             X           Y           Z
 ---------------------------------------------------------------------
      1          6           0       -2.604063   -0.497071   -0.527854
      2          6           0       -1.345201   -0.590843    0.345836
      3          6           0       -1.080496    0.713857    1.124600
      4          6           0       -0.351822    1.624518    0.115162
      5          6           0        0.442068    0.678639   -0.833792
      6          6           0        1.962114    0.645677   -0.575430
      7          6           0        2.131781   -0.352316    0.579361
      8          6           0        1.119841   -1.463843    0.238842
      9          6           0       -0.063262   -0.771507   -0.502706
     10          1           0       -3.497130   -0.331046    0.084250
     11          1           0       -2.756180   -1.419034   -1.099248
     12          1           0       -2.538743    0.326954   -1.247175
     13          1           0       -1.472679   -1.436332    1.032069
     14          1           0       -0.433237    0.506912    1.984366
     15          1           0       -1.997185    1.164412    1.519224
     16          1           0        0.300282    2.350908    0.610668
     17          1           0       -1.079629    2.205549   -0.460304
     18          1           0        0.241373    0.949416   -1.873632
     19          1           0        2.377001    1.636052   -0.362061
     20          1           0        2.479032    0.265033   -1.465586
     21          1           0        1.873275    0.126329    1.531338
     22          1           0        3.155491   -0.725584    0.678891
     23          1           0        0.787896   -2.016748    1.123373
     24          1           0        1.592628   -2.193804   -0.427617
     25          1           0       -0.297964   -1.331685   -1.412679
 ---------------------------------------------------------------------

 SCF Done:  E(RB3LYP) =  -352.629031298     A.U. after    1 cycles

 The electronic state is 1-A.
 Alpha  occ. eigenvalues --  -10.17511 -10.17300 -10.17134 -10.17054 -10.16945
 Alpha  occ. eigenvalues --  -10.16922 -10.16904 -10.16862 -10.16676  -0.84714
 Alpha  occ. eigenvalues --   -0.78066  -0.73358  -0.68879  -0.68223  -0.62767
 Alpha  occ. eigenvalues --   -0.56722  -0.54137  -0.52265  -0.48507  -0.46251
 Alpha  occ. eigenvalues --   -0.45082  -0.42525  -0.40616  -0.39612  -0.38149
 Alpha  occ. eigenvalues --   -0.37301  -0.35066  -0.33256  -0.32818  -0.30957
 Alpha  occ. eigenvalues --   -0.30695  -0.30428  -0.30177  -0.29813  -0.29533
 Alpha virt. eigenvalues --    0.07226   0.08644   0.11159   0.12491   0.14024
 Alpha virt. eigenvalues --    0.14275   0.15419   0.15750   0.16823   0.16874
 Alpha virt. eigenvalues --    0.17847   0.18261   0.19869   0.20681   0.21303

 Mulliken charges:
               1
     1  C   -0.403371
     2  C    0.026921
     3  C   -0.214021
     4  C   -0.215087
     5  C    0.008233
     6  C   -0.210760
     7  C   -0.201002
     8  C   -0.225233
     9  C    0.013501
    10  H    0.107686
    11  H    0.109361
    12  H    0.113979
    13  H    0.060058
    14  H    0.094505
    15  H    0.085822
    16  H    0.089522
    17  H    0.095946
    18  H    0.059863
    19  H    0.088567
    20  H    0.088850
    21  H    0.098513
    22  H    0.088738
    23  H    0.089517
    24  H    0.093121
    25  H    0.056771
 Sum of Mulliken charges =  -0.00000

 Dipole moment (field-independent basis, Debye):
    X=              0.0175    Y=             -0.0422    Z=             -0.0575  Tot=              0.0735
 Quadrupole moment (field-independent basis, Debye-Ang):
   XX=            -58.4222   YY=            -58.0926   ZZ=            -57.7236
   XY=             -0.1922   XZ=             -0.2079   YZ=              0.1442

  Exact polarizability: 100.434  -0.272  88.216  -0.211   0.400  82.597
 Approx polarizability: 129.789  -0.562 128.051  -0.455   0.627 127.225

                      1                      2                      3
                      A                      A                      A
 Frequencies --     43.9893               168.5046               199.2307
 Red. masses --      2.4459                 2.3614                 1.9131
 Frc consts  --      0.0028                 0.0395                 0.0447
 IR Inten    --      0.0023                 0.0014                 0.0428

                      4                      5                      6
                      A                      A                      A
 Frequencies --    221.9838               254.4156               325.1228
 Red. masses --      1.2593                 1.7329                 2.2039
 Frc consts  --      0.0366                 0.0661                 0.1373
 IR Inten    --      0.0085                 0.0560                 0.0073

                      7                      8                      9
                      A                      A                      A
 Frequencies --    388.7438               427.7597               540.5555
 Red. masses --      1.8727                 2.2437                 2.8475
 Frc consts  --      0.1667                 0.2419                 0.4902
 IR Inten    --      0.0451                 0.1903                 0.3978

                     10                     11                     12
                      A                      A                      A
 Frequencies --    583.6093               650.4852               756.7125
 Red. masses --      2.0162                 2.3552                 2.4468
 Frc consts  --      0.4046                 0.5871                 0.8255
 IR Inten    --      1.0418                 0.9810                 0.6545

                     13                     14                     15
                      A                      A                      A
 Frequencies --    760.1513               797.7416               825.3601
 Red. masses --      2.2060                 3.2113                 2.1726
 Frc consts  --      0.7510                 1.2041                 0.8720
 IR Inten    --      0.3041                 0.1471                 0.0274

                     16                     17                     18
                      A                      A                      A
 Frequencies --    850.0378               886.6025               906.9059
 Red. masses --      2.1785                 2.0090                 1.9115
 Frc consts  --      0.9275                 0.9305                 0.9263
 IR Inten    --      0.4248                 0.7692                 1.0642

                     19                     20                     21
                      A                      A                      A
 Frequencies --    916.7814               941.1701               962.4870
 Red. masses --      2.0929                 2.3449                 1.5127
 Frc consts  --      1.0364                 1.2238                 0.8257
 IR Inten    --      2.0788                 0.1791                 0.2854

                     22                     23                     24
                      A                      A                      A
 Frequencies --    972.0593              1000.4125              1024.1927
 Red. masses --      1.9163                 2.1824                 1.9174
 Frc consts  --      1.0668                 1.2869                 1.1850
 IR Inten    --      0.4206                 0.8953                 0.0524

                     25                     26                     27
                      A                      A                      A
 Frequencies --   1038.6838              1058.3933              1073.3138
 Red. masses --      1.4159                 1.5663                 1.6879
 Frc consts  --      0.9000                 1.0337                 1.1456
 IR Inten    --      0.3826                 0.1033                 0.2497

                     28                     29                     30
                      A                      A                      A
 Frequencies --   1103.6675              1149.2110              1160.0094
 Red. masses --      1.3542                 1.2081                 1.9992
 Frc consts  --      0.9719                 0.9400                 1.5850
 IR Inten    --      0.4411                 0.1157                 0.1068

                     31                     32                     33
                      A                      A                      A
 Frequencies --   1178.4761              1197.2204              1213.0947
 Red. masses --      1.5172                 1.3313                 1.7707
 Frc consts  --      1.2415                 1.1243                 1.5353
 IR Inten    --      0.9443                 0.6103                 1.4874

                     34                     35                     36
                      A                      A                      A
 Frequencies --   1226.2478              1272.7221              1292.2313
 Red. masses --      1.4817                 1.4302                 1.3549
 Frc consts  --      1.3127                 1.3649                 1.3330
 IR Inten    --      1.2894                 0.4069                 0.0769

                     37                     38                     39
                      A                      A                      A
 Frequencies --   1310.0126              1312.0855              1317.8621
 Red. masses --      1.3091                 1.3534                 1.3191
 Frc consts  --      1.3236                 1.3728                 1.3498
 IR Inten    --      0.3638                 0.1081                 0.4705

                     40                     41                     42
                      A                      A                      A
 Frequencies --   1333.3045              1337.0975              1341.4211
 Red. masses --      1.3338                 1.2934                 1.4119
 Frc consts  --      1.3970                 1.3624                 1.4969
 IR Inten    --      3.0375                 2.3607                 0.6830

                     43                     44                     45
                      A                      A                      A
 Frequencies --   1361.1400              1367.8242              1384.1067
 Red. masses --      1.4380                 1.4318                 1.5147
 Frc consts  --      1.5697                 1.5783                 1.7096
 IR Inten    --      0.4827                 1.3530                 2.7057

                     46                     47                     48
                      A                      A                      A
 Frequencies --   1409.4755              1483.3151              1488.0458
 Red. masses --      1.2393                 1.0800                 1.0849
 Frc consts  --      1.4506                 1.4001                 1.4153
 IR Inten    --      3.1256                 0.2118                 0.5918

                     49                     50                     51
                      A                      A                      A
 Frequencies --   1493.8300              1495.8384              1502.0895
 Red. masses --      1.0770                 1.0683                 1.0719
 Frc consts  --      1.4160                 1.4083                 1.4249
 IR Inten    --      0.5997                 6.6907                 4.3751

                     52                     53                     54
                      A                      A                      A
 Frequencies --   1504.0366              1514.2520              3021.8243
 Red. masses --      1.0695                 1.0978                 1.0668
 Frc consts  --      1.4255                 1.4831                 5.7397
 IR Inten    --      3.2899                 3.5113                24.5686

                     55                     56                     57
                      A                      A                      A
 Frequencies --   3024.1043              3025.8086              3031.9965
 Red. masses --      1.0707                 1.0412                 1.0692
 Frc consts  --      5.7694                 5.6165                 5.7912
 IR Inten    --     13.2348                20.0737                19.3328

                     58                     59                     60
                      A                      A                      A
 Frequencies --   3034.7573              3037.3773              3042.4158
 Red. masses --      1.0647                 1.0627                 1.0690
 Frc consts  --      5.7775                 5.7765                 5.8301
 IR Inten    --     13.0974                31.3607                33.6870

                     61                     62                     63
                      A                      A                      A
 Frequencies --   3049.6913              3066.0980              3069.7896
 Red. masses --      1.0795                 1.0907                 1.0962
 Frc consts  --      5.9157                 6.0413                 6.0863
 IR Inten    --     60.1789                11.3169                23.7301

                     64                     65                     66
                      A                      A                      A
 Frequencies --   3074.0760              3075.7634              3084.8322
 Red. masses --      1.0953                 1.0985                 1.1038
 Frc consts  --      6.0981                 6.1228                 6.1889
 IR Inten    --     26.1718                32.2458                88.5474

                     67                     68                     69
                      A                      A                      A
 Frequencies --   3091.0253              3094.3458              3095.0502
 Red. masses --      1.1036                 1.1013                 1.1010
 Frc consts  --      6.2123                 6.2129                 6.2143
 IR Inten    --     45.4202                46.9132                51.4269

 - Thermochemistry -
 -------------------
 Temperature   298.150 Kelvin.  Pressure   1.00000 Atm.
 Atom     1 has atomic number  6 and mass  12.00000

 Molecular mass:   124.12520 amu.
 Principal axes and moments of inertia in atomic units:
                           1         2         3
     Eigenvalues --   657.930951295.318871503.01592
           X            0.99997   0.00088   0.00778
           Y           -0.00092   0.99998   0.00569
           Z           -0.00778  -0.00570   0.99995
 This molecule is an asymmetric top.
 Rotational symmetry number  1.
 Warning -- assumption of classical behavior for rotation
           may cause significant error
 Rotational temperatures (Kelvin)      0.13165     0.06687     0.05763
 Rotational constants (GHZ):           2.74306     1.39328     1.20075
 Zero-point vibrational energy     611548.8 (Joules/Mol)
                                  146.16368 (Kcal/Mol)
 Warning -- explicit consideration of  10 degrees of freedom as
           vibrations may cause significant error
 Vibrational temperatures:     63.29   242.44   286.65   319.39   366.05
          (Kelvin)            467.78   559.32   615.45   777.74   839.68
                              935.90  1088.74  1093.69  1147.77  1187.51
                             1223.01  1275.62  1304.84  1319.04  1354.13
                             1384.80  1398.58  1439.37  1473.58  1494.43
                             1522.79  1544.26  1587.93  1653.46  1668.99
                             1695.56  1722.53  1745.37  1764.30  1831.16
                             1859.23  1884.82  1887.80  1896.11  1918.33
                             1923.79  1930.01  1958.38  1967.99  1991.42
                             2027.92  2134.16  2140.97  2149.29  2152.18
                             2161.17  2163.97  2178.67  4347.73  4351.01
                             4353.46  4362.37  4366.34  4370.11  4377.36
                             4387.83  4411.43  4416.74  4422.91  4425.34
                             4438.39  4447.30  4452.07  4453.09

 Zero-point correction=                           0.232927 (Hartree/Particle)
 Thermal correction to Energy=                    0.241410
 Thermal correction to Enthalpy=                  0.242355
 Thermal correction to Gibbs Free Energy=         0.199702
 Sum of electronic and zero-point Energies=           -352.396105
 Sum of electronic and thermal Energies=              -352.387621
 Sum of electronic and thermal Enthalpies=            -352.386677
 Sum of electronic and thermal Free Energies=         -352.429330

                     E (Thermal)             CV                S
                      KCal/Mol        Cal/Mol-Kelvin    Cal/Mol-Kelvin
 Total                  151.487             34.314             89.771
 Electronic               0.000              0.000              0.000
 Translational            0.889              2.981             40.362
 Rotational               0.889              2.981             28.640
 Vibrational            149.710             28.353             20.769
 Vibration     1          0.595              1.980              5.071
 Vibration     2          0.625              1.881              2.452
 Vibration     3          0.637              1.841              2.140
 Vibration     4          0.648              1.808              1.943
 Vibration     5          0.665              1.755              1.700
 Vibration     6          0.709              1.625              1.284
 Vibration     7          0.757              1.494              1.005
 Vibration     8          0.789              1.410              0.866
 Vibration     9          0.896              1.160              0.564
 Vibration    10          0.940              1.067              0.479

 Optimization completed.
    -- Stationary point found.
 Normal termination of Gaussian 16 at Sun May 28 20:58:03 2023.
