 Gaussian 16, Revision A.03,
 Gaussian 16:  ES64L-G16RevA.03 25-Dec-2016

 -----------------------------
 # opt freq b3lyp/6-31g(2df,p)
 -----------------------------

 -------------------
 Title Card Required
 -------------------
 Symbolic Z-matrix:
 Charge =  0 Multiplicity = 1

 SCF Done:  E(RB3LYP) =  -193.121595162     A.U. after   13 cycles
 SCF Done:  E(RB3LYP) =  -193.124153957     A.U. after   11 cycles
 SCF Done:  E(RB3LYP) =  -193.124465616     A.U. after    9 cycles
 SCF Done:  E(RB3LYP) =  -193.124684099     A.U. after    9 cycles
 SCF Done:  E(RB3LYP) =  -193.124810093     A.U. after    9 cycles
 SCF Done:  E(RB3LYP) =  -193.124859065     A.U. after    8 cycles
 SCF Done:  E(RB3LYP) =  -193.124872399     A.U. after    8 cycles
 SCF Done:  E(RB3LYP) =  -193.124872974     A.U. after    7 cycles
 Optimization completed.
    -- Stationary point found.
 Normal termination of Gaussian 16 at Sun May 28 22:59:40 2023.

 ----------------------------------------------------------------------
 #N Geom=AllCheck Guess=TCheck SCRF=Check GenChk RB3LYP/6-31G(2df,p) Fr
 eq
 ----------------------------------------------------------------------

 Structure from the checkpoint file:  "CC1CO1.chk"
 -------------------
 Title Card Required
 -------------------
 Charge =  0 Multiplicity = 1

                         Standard orientation:
 ---------------------------------------------------------------------
 Center     Atomic      Atomic             Coordinates (Angstroms)
 Number     Number       Type             X           Y           Z
 ---------------------------------------------------------------------
      1          6           0       -1.509869   -0.101051   -0.147951
      2          6           0       -0.151362    0.041327    0.486802
      3          6           0        1.044138   -0.613669   -0.058434
      4          8           0        0.826042    0.785929   -0.244441
      5          1           0       -2.079551   -0.901922    0.335961
      6          1           0       -1.416000   -0.332262   -1.212601
      7          1           0       -2.083067    0.826590   -0.048277
      8          1           0       -0.155286    0.260505    1.556287
      9          1           0        0.956213   -1.223253   -0.957413
     10          1           0        1.871913   -0.876728    0.599070
 ---------------------------------------------------------------------

 SCF Done:  E(RB3LYP) =  -193.124872974     A.U. after    1 cycles

 The electronic state is 1-A.
 Alpha  occ. eigenvalues --  -19.14467 -10.23741 -10.22981 -10.18322  -1.06512
 Alpha  occ. eigenvalues --   -0.74368  -0.65683  -0.59310  -0.50318  -0.46444
 Alpha  occ. eigenvalues --   -0.42397  -0.40129  -0.37194  -0.36467  -0.29705
 Alpha  occ. eigenvalues --   -0.26329
 Alpha virt. eigenvalues --    0.10520   0.10908   0.12744   0.13315   0.14094
 Alpha virt. eigenvalues --    0.17158   0.17581   0.18188   0.24768   0.31125
 Alpha virt. eigenvalues --    0.41270   0.45150   0.46647   0.51534   0.52104

 Mulliken charges:
               1
     1  C   -0.409063
     2  C    0.120628
     3  C   -0.170086
     4  O   -0.233046
     5  H    0.121162
     6  H    0.126879
     7  H    0.129609
     8  H    0.090067
     9  H    0.111033
    10  H    0.112818
 Sum of Mulliken charges =  -0.00000

 Dipole moment (field-independent basis, Debye):
    X=             -0.8040    Y=             -1.5017    Z=              0.6178  Tot=              1.8120
 Quadrupole moment (field-independent basis, Debye-Ang):
   XX=            -24.0955   YY=            -25.8118   ZZ=            -23.9087
   XY=             -2.0782   XZ=              0.3783   YZ=              0.9834

  Exact polarizability:  40.875  -3.348  31.421  -0.596   1.729  32.724
 Approx polarizability:  52.016  -3.026  47.930  -2.986   0.801  46.163

                      1                      2                      3
                      A                      A                      A
 Frequencies --    208.0555               363.4430               405.8926
 Red. masses --      1.0928                 2.3463                 2.4021
 Frc consts  --      0.0279                 0.1826                 0.2332
 IR Inten    --      0.4159                 3.0382                 3.9501

                      4                      5                      6
                      A                      A                      A
 Frequencies --    780.2271               854.3743               903.8772
 Red. masses --      3.3230                 3.0463                 1.2545
 Frc consts  --      1.1918                 1.3101                 0.6038
 IR Inten    --      5.9314                32.8815                 2.3012

                      7                      8                      9
                      A                      A                      A
 Frequencies --    979.8238              1041.1088              1132.0879
 Red. masses --      2.5845                 1.1849                 1.4569
 Frc consts  --      1.4619                 0.7567                 1.1001
 IR Inten    --     13.3109                 8.0795                 6.7644

                     10                     11                     12
                      A                      A                      A
 Frequencies --   1157.7712              1164.2238              1186.6729
 Red. masses --      1.3765                 1.7135                 1.5692
 Frc consts  --      1.0871                 1.3684                 1.3019
 IR Inten    --      0.3208                 4.8071                 1.4131

                     13                     14                     15
                      A                      A                      A
 Frequencies --   1298.7455              1403.4292              1439.8074
 Red. masses --      1.5384                 1.2472                 1.6388
 Frc consts  --      1.5289                 1.4474                 2.0017
 IR Inten    --      4.6207                 2.8050                19.9541

                     16                     17                     18
                      A                      A                      A
 Frequencies --   1483.4773              1497.2788              1532.8280
 Red. masses --      1.0502                 1.0576                 1.3986
 Frc consts  --      1.3617                 1.3970                 1.9361
 IR Inten    --      3.4750                 4.0806                 5.0174

                     19                     20                     21
                      A                      A                      A
 Frequencies --   3035.0060              3078.0013              3088.6286
 Red. masses --      1.0355                 1.0505                 1.0877
 Frc consts  --      5.6200                 5.8636                 6.1134
 IR Inten    --     17.1171                28.2338                16.0374

                     22                     23                     24
                      A                      A                      A
 Frequencies --   3100.0025              3121.6285              3163.8200
 Red. masses --      1.1007                 1.1013                 1.1192
 Frc consts  --      6.2322                 6.3232                 6.6004
 IR Inten    --     19.8624                28.6837                33.4165

 - Thermochemistry -
 -------------------
 Temperature   298.150 Kelvin.  Pressure   1.00000 Atm.
 Atom     1 has atomic number  6 and mass  12.00000

 Molecular mass:    58.04186 amu.
 Principal axes and moments of inertia in atomic units:
                           1         2         3
     Eigenvalues --    99.06697 271.79934 304.55492
           X            0.99886  -0.04562   0.01413
           Y            0.04369   0.99237   0.11532
           Z           -0.01928  -0.11457   0.99323
 This molecule is an asymmetric top.
 Rotational symmetry number  1.
 Rotational temperatures (Kelvin)      0.87430     0.31867     0.28440
 Rotational constants (GHZ):          18.21739     6.63998     5.92583
 Zero-point vibrational energy     223822.6 (Joules/Mol)
                                   53.49488 (Kcal/Mol)
 Warning -- explicit consideration of   3 degrees of freedom as
           vibrations may cause significant error
 Vibrational temperatures:    299.35   522.91   583.99  1122.57  1229.25
          (Kelvin)           1300.48  1409.75  1497.92  1628.82  1665.77
                             1675.06  1707.36  1868.61  2019.22  2071.56
                             2134.39  2154.25  2205.40  4366.70  4428.56
                             4443.85  4460.21  4491.33  4552.03

 Zero-point correction=                           0.085250 (Hartree/Particle)
 Thermal correction to Energy=                    0.089672
 Thermal correction to Enthalpy=                  0.090616
 Thermal correction to Gibbs Free Energy=         0.058864
 Sum of electronic and zero-point Energies=           -193.039623
 Sum of electronic and thermal Energies=              -193.035201
 Sum of electronic and thermal Enthalpies=            -193.034257
 Sum of electronic and thermal Free Energies=         -193.066009

                     E (Thermal)             CV                S
                      KCal/Mol        Cal/Mol-Kelvin    Cal/Mol-Kelvin
 Total                   56.270             14.772             66.827
 Electronic               0.000              0.000              0.000
 Translational            0.889              2.981             38.096
 Rotational               0.889              2.981             23.621
 Vibrational             54.492              8.811              5.109
 Vibration     1          0.641              1.828              2.061
 Vibration     2          0.737              1.548              1.107
 Vibration     3          0.771              1.457              0.941

                           ! Non-Optimized Parameters !
 Normal termination of Gaussian 16 at Sun May 28 23:03:38 2023.
