 Gaussian 16, Revision A.03,
 Gaussian 16:  ES64L-G16RevA.03 25-Dec-2016

 -----------------------------
 # opt freq b3lyp/6-31g(2df,p)
 -----------------------------

 -------------------
 Title Card Required
 -------------------
 Symbolic Z-matrix:
 Charge =  0 Multiplicity = 1

 SCF Done:  E(RB3LYP) =  -353.837636811     A.U. after   12 cycles
 SCF Done:  E(RB3LYP) =  -353.840070184     A.U. after   10 cycles
 SCF Done:  E(RB3LYP) =  -353.840333442     A.U. after    8 cycles
 SCF Done:  E(RB3LYP) =  -353.840365944     A.U. after    8 cycles
 SCF Done:  E(RB3LYP) =  -353.840369210     A.U. after    7 cycles
 SCF Done:  E(RB3LYP) =  -353.840370067     A.U. after    6 cycles
 SCF Done:  E(RB3LYP) =  -353.840370143     A.U. after    6 cycles
 Optimization completed.
    -- Stationary point found.
 Normal termination of Gaussian 16 at Sun May 28 07:36:38 2023.

 ----------------------------------------------------------------------
 #N Geom=AllCheck Guess=TCheck SCRF=Check GenChk RB3LYP/6-31G(2df,p) Fr
 eq
 ----------------------------------------------------------------------

 Structure from the checkpoint file:  "CC1CCCCqCrCC1.chk"
 -------------------
 Title Card Required
 -------------------
 Charge =  0 Multiplicity = 1

                         Standard orientation:
 ---------------------------------------------------------------------
 Center     Atomic      Atomic             Coordinates (Angstroms)
 Number     Number       Type             X           Y           Z
 ---------------------------------------------------------------------
      1          6           0       -3.122526   -0.400240    0.008748
      2          6           0       -1.643918   -0.196921   -0.351535
      3          6           0       -1.239988    1.264200   -0.088002
      4          6           0        0.230234    1.640537   -0.334147
      5          6           0        1.203504    1.046481    0.700780
      6          6           0        1.720683   -0.384710    0.421332
      7          6           0        2.974318   -0.361951   -0.465947
      8          6           0        0.673380   -1.341087   -0.187166
      9          6           0       -0.761774   -1.242844    0.359712
     10          1           0       -3.763460    0.317823   -0.514007
     11          1           0       -3.285912   -0.265714    1.084935
     12          1           0       -3.462773   -1.407334   -0.254408
     13          1           0       -1.537146   -0.378679   -1.432097
     14          1           0       -1.486960    1.515146    0.954545
     15          1           0       -1.879207    1.906342   -0.707765
     16          1           0        0.304209    2.733704   -0.292841
     17          1           0        0.529549    1.362250   -1.353456
     18          1           0        0.708368    1.070434    1.679668
     19          1           0        2.075966    1.703596    0.799673
     20          1           0        2.017802   -0.803087    1.392992
     21          1           0        2.765974    0.115882   -1.430867
     22          1           0        3.333174   -1.376053   -0.673673
     23          1           0        3.790396    0.191993    0.009834
     24          1           0        1.044606   -2.363873   -0.049375
     25          1           0        0.637836   -1.191779   -1.275313
     26          1           0       -0.750208   -1.051675    1.442102
     27          1           0       -1.245689   -2.219767    0.237402
 ---------------------------------------------------------------------

 SCF Done:  E(RB3LYP) =  -353.840370143     A.U. after    1 cycles

 The electronic state is 1-A.
 Alpha  occ. eigenvalues --  -10.17829 -10.17814 -10.17206 -10.17047 -10.17028
 Alpha  occ. eigenvalues --  -10.16978 -10.16930 -10.16620 -10.16607  -0.82382
 Alpha  occ. eigenvalues --   -0.78074  -0.75229  -0.70292  -0.66680  -0.62424
 Alpha  occ. eigenvalues --   -0.60668  -0.54982  -0.52931  -0.47001  -0.45315
 Alpha  occ. eigenvalues --   -0.43880  -0.43117  -0.41160  -0.39484  -0.38723
 Alpha  occ. eigenvalues --   -0.38200  -0.37308  -0.36237  -0.35346  -0.34680
 Alpha  occ. eigenvalues --   -0.31400  -0.30797  -0.30610  -0.30039  -0.29528
 Alpha  occ. eigenvalues --   -0.29165
 Alpha virt. eigenvalues --    0.07947   0.09547   0.10021   0.12726   0.13483
 Alpha virt. eigenvalues --    0.13834   0.14622   0.15370   0.16744   0.17137
 Alpha virt. eigenvalues --    0.17485   0.18155   0.18587   0.19315   0.19708

 Mulliken charges:
               1
     1  C   -0.398079
     2  C    0.051397
     3  C   -0.169106
     4  C   -0.208414
     5  C   -0.192506
     6  C    0.045699
     7  C   -0.390150
     8  C   -0.195933
     9  C   -0.199256
    10  H    0.106851
    11  H    0.110499
    12  H    0.106457
    13  H    0.066069
    14  H    0.086574
    15  H    0.085098
    16  H    0.089527
    17  H    0.090986
    18  H    0.087152
    19  H    0.084762
    20  H    0.066465
    21  H    0.112549
    22  H    0.107159
    23  H    0.106740
    24  H    0.087631
    25  H    0.088069
    26  H    0.087312
    27  H    0.086449
 Sum of Mulliken charges =   0.00000

 Dipole moment (field-independent basis, Debye):
    X=              0.0117    Y=             -0.0090    Z=              0.0161  Tot=              0.0218
 Quadrupole moment (field-independent basis, Debye-Ang):
   XX=            -60.9314   YY=            -59.4468   ZZ=            -59.3584
   XY=             -0.0520   XZ=              0.4912   YZ=             -0.0396

  Exact polarizability: 109.722  -0.033  94.259   0.051   0.001  82.376
 Approx polarizability: 133.543  -0.289 132.621   0.119   0.219 132.839

                      1                      2                      3
                      A                      A                      A
 Frequencies --     75.0329               121.5484               219.9878
 Red. masses --      2.6113                 2.3063                 1.4055
 Frc consts  --      0.0087                 0.0201                 0.0401
 IR Inten    --      0.0170                 0.0071                 0.0347

                      4                      5                      6
                      A                      A                      A
 Frequencies --    234.0908               240.3213               263.9643
 Red. masses --      1.4965                 1.1102                 1.9812
 Frc consts  --      0.0483                 0.0378                 0.0813
 IR Inten    --      0.0179                 0.0107                 0.0368

                      7                      8                      9
                      A                      A                      A
 Frequencies --    288.7211               309.7383               333.6704
 Red. masses --      2.2250                 2.2243                 3.0652
 Frc consts  --      0.1093                 0.1257                 0.2011
 IR Inten    --      0.0369                 0.0274                 0.0052

                     10                     11                     12
                      A                      A                      A
 Frequencies --    376.2925               410.0932               462.4833
 Red. masses --      1.9786                 1.9354                 1.9299
 Frc consts  --      0.1651                 0.1918                 0.2432
 IR Inten    --      0.0497                 0.0881                 0.1617

                     13                     14                     15
                      A                      A                      A
 Frequencies --    529.5582               543.5723               707.4465
 Red. masses --      1.9270                 2.4307                 2.4611
 Frc consts  --      0.3184                 0.4231                 0.7257
 IR Inten    --      0.5105                 0.0118                 0.0514

                     16                     17                     18
                      A                      A                      A
 Frequencies --    789.4794               822.3786               832.6857
 Red. masses --      2.4597                 1.8253                 1.4817
 Frc consts  --      0.9033                 0.7273                 0.6053
 IR Inten    --      0.2749                 1.2148                 1.1948

                     19                     20                     21
                      A                      A                      A
 Frequencies --    903.5219               917.3347               921.5064
 Red. masses --      1.9715                 1.9146                 1.5553
 Frc consts  --      0.9483                 0.9492                 0.7781
 IR Inten    --      0.7654                 0.9291                 0.0840

                     22                     23                     24
                      A                      A                      A
 Frequencies --    960.7879               969.3109               991.4313
 Red. masses --      1.4249                 1.6157                 1.6353
 Frc consts  --      0.7750                 0.8944                 0.9471
 IR Inten    --      0.5642                 1.2819                 2.4635

                     25                     26                     27
                      A                      A                      A
 Frequencies --   1030.9494              1049.2358              1061.7074
 Red. masses --      2.4578                 2.0723                 1.4859
 Frc consts  --      1.5391                 1.3442                 0.9868
 IR Inten    --      1.5272                 0.3759                 0.7157

                     28                     29                     30
                      A                      A                      A
 Frequencies --   1070.6886              1091.5261              1113.1884
 Red. masses --      1.9823                 1.7578                 1.7235
 Frc consts  --      1.3389                 1.2340                 1.2583
 IR Inten    --      1.3732                 0.2749                 0.7036

                     31                     32                     33
                      A                      A                      A
 Frequencies --   1174.8765              1184.6205              1214.6996
 Red. masses --      2.0292                 1.9381                 1.7939
 Frc consts  --      1.6503                 1.6025                 1.5595
 IR Inten    --      0.1201                 1.5728                 0.3850

                     34                     35                     36
                      A                      A                      A
 Frequencies --   1226.1182              1260.8252              1277.2018
 Red. masses --      1.3327                 1.2184                 1.2237
 Frc consts  --      1.1805                 1.1412                 1.1761
 IR Inten    --      0.5144                 2.2025                 0.8048

                     37                     38                     39
                      A                      A                      A
 Frequencies --   1308.4293              1326.0566              1342.4654
 Red. masses --      1.1638                 1.2668                 1.2649
 Frc consts  --      1.1739                 1.3124                 1.3432
 IR Inten    --      2.2892                 3.8610                 2.6206

                     40                     41                     42
                      A                      A                      A
 Frequencies --   1351.4937              1366.6584              1368.6421
 Red. masses --      1.2790                 1.4032                 1.3764
 Frc consts  --      1.3764                 1.5442                 1.5191
 IR Inten    --      0.5726                 2.9388                 1.5121

                     43                     44                     45
                      A                      A                      A
 Frequencies --   1385.9378              1390.6614              1398.8781
 Red. masses --      1.4100                 1.4282                 1.4151
 Frc consts  --      1.5957                 1.6274                 1.6315
 IR Inten    --      1.0701                 2.1105                 1.0481

                     46                     47                     48
                      A                      A                      A
 Frequencies --   1400.6164              1413.3802              1414.9138
 Red. masses --      1.4175                 1.2576                 1.2693
 Frc consts  --      1.6383                 1.4801                 1.4972
 IR Inten    --      0.1979                 4.5980                 1.3016

                     49                     50                     51
                      A                      A                      A
 Frequencies --   1479.5302              1484.6175              1485.5476
 Red. masses --      1.0842                 1.0827                 1.0913
 Frc consts  --      1.3983                 1.4060                 1.4189
 IR Inten    --      0.1547                 2.6584                 1.2515

                     52                     53                     54
                      A                      A                      A
 Frequencies --   1493.7702              1497.9039              1499.0229
 Red. masses --      1.0694                 1.0491                 1.0595
 Frc consts  --      1.4059                 1.3869                 1.4027
 IR Inten    --      2.8491                 4.2774                 3.2756

                     55                     56                     57
                      A                      A                      A
 Frequencies --   1501.5028              1502.2900              1506.2317
 Red. masses --      1.0743                 1.0668                 1.0658
 Frc consts  --      1.4271                 1.4186                 1.4247
 IR Inten    --      0.2858                 1.5448                13.9820

                     58                     59                     60
                      A                      A                      A
 Frequencies --   2979.6235              2993.9089              2995.4260
 Red. masses --      1.0803                 1.0800                 1.0643
 Frc consts  --      5.6510                 5.7037                 5.6262
 IR Inten    --      5.8841                10.2009                24.9466

                     61                     62                     63
                      A                      A                      A
 Frequencies --   3006.9912              3008.3090              3015.0054
 Red. masses --      1.0652                 1.0596                 1.0631
 Frc consts  --      5.6748                 5.6499                 5.6940
 IR Inten    --      6.4174                23.2431                13.2613

                     64                     65                     66
                      A                      A                      A
 Frequencies --   3019.1177              3022.7307              3023.5529
 Red. masses --      1.0566                 1.0376                 1.0457
 Frc consts  --      5.6743                 5.5857                 5.6324
 IR Inten    --     26.8100                64.5538                 2.2149

                     67                     68                     69
                      A                      A                      A
 Frequencies --   3039.1919              3043.5436              3049.4335
 Red. masses --      1.0970                 1.1028                 1.0955
 Frc consts  --      5.9697                 6.0186                 6.0018
 IR Inten    --     29.6136                46.1929                78.1147

                     70                     71                     72
                      A                      A                      A
 Frequencies --   3054.0719              3055.4760              3087.1432
 Red. masses --      1.0976                 1.1002                 1.1003
 Frc consts  --      6.0320                 6.0515                 6.1782
 IR Inten    --     46.4462                58.0180                36.1445

                     73                     74                     75
                      A                      A                      A
 Frequencies --   3087.6722              3094.6623              3095.4289
 Red. masses --      1.1002                 1.1015                 1.1015
 Frc consts  --      6.1798                 6.2152                 6.2181
 IR Inten    --     57.1123                30.1022                46.2553

 - Thermochemistry -
 -------------------
 Temperature   298.150 Kelvin.  Pressure   1.00000 Atm.
 Atom     1 has atomic number  6 and mass  12.00000

 Molecular mass:   126.14085 amu.
 Principal axes and moments of inertia in atomic units:
                           1         2         3
     Eigenvalues --   650.641501664.022082070.37612
           X            0.99998   0.00111  -0.00547
           Y           -0.00109   1.00000   0.00260
           Z            0.00547  -0.00259   0.99998
 This molecule is an asymmetric top.
 Rotational symmetry number  1.
 Warning -- assumption of classical behavior for rotation
           may cause significant error
 Rotational temperatures (Kelvin)      0.13312     0.05205     0.04183
 Rotational constants (GHZ):           2.77379     1.08457     0.87170
 Zero-point vibrational energy     667339.4 (Joules/Mol)
                                  159.49794 (Kcal/Mol)
 Warning -- explicit consideration of  14 degrees of freedom as
           vibrations may cause significant error
 Vibrational temperatures:    107.96   174.88   316.51   336.80   345.77
          (Kelvin)            379.79   415.41   445.64   480.08   541.40
                              590.03   665.41   761.92   782.08  1017.86
                             1135.88  1183.22  1198.05  1299.97  1319.84
                             1325.84  1382.36  1394.62  1426.45  1483.31
                             1509.62  1527.56  1540.48  1570.46  1601.63
                             1690.39  1704.40  1747.68  1764.11  1814.05
                             1837.61  1882.54  1907.90  1931.51  1944.50
                             1966.32  1969.17  1994.06  2000.85  2012.67
                             2015.17  2033.54  2035.75  2128.71  2136.03
                             2137.37  2149.20  2155.15  2156.76  2160.33
                             2161.46  2167.13  4287.01  4307.57  4309.75
                             4326.39  4328.29  4337.92  4343.84  4349.04
                             4350.22  4372.72  4378.98  4387.45  4394.13
                             4396.15  4441.71  4442.47  4452.53  4453.63

 Zero-point correction=                           0.254176 (Hartree/Particle)
 Thermal correction to Energy=                    0.264016
 Thermal correction to Enthalpy=                  0.264960
 Thermal correction to Gibbs Free Energy=         0.220053
 Sum of electronic and zero-point Energies=           -353.586194
 Sum of electronic and thermal Energies=              -353.576354
 Sum of electronic and thermal Enthalpies=            -353.575410
 Sum of electronic and thermal Free Energies=         -353.620317

                     E (Thermal)             CV                S
                      KCal/Mol        Cal/Mol-Kelvin    Cal/Mol-Kelvin
 Total                  165.672             39.025             94.514
 Electronic               0.000              0.000              0.000
 Translational            0.889              2.981             40.410
 Rotational               0.889              2.981             29.196
 Vibrational            163.895             33.063             24.908
 Vibration     1          0.599              1.966              4.017
 Vibration     2          0.609              1.931              3.076
 Vibration     3          0.647              1.811              1.959
 Vibration     4          0.654              1.789              1.847
 Vibration     5          0.657              1.779              1.800
 Vibration     6          0.671              1.739              1.635
 Vibration     7          0.685              1.695              1.481
 Vibration     8          0.699              1.655              1.364
 Vibration     9          0.715              1.608              1.242
 Vibration    10          0.747              1.521              1.054
 Vibration    11          0.774              1.448              0.926
 Vibration    12          0.820              1.333              0.759
 Vibration    13          0.885              1.185              0.588
 Vibration    14          0.899              1.154              0.558

 Optimization completed.
    -- Stationary point found.
 Normal termination of Gaussian 16 at Sun May 28 08:24:34 2023.
