 Gaussian 16, Revision A.03,
 Gaussian 16:  ES64L-G16RevA.03 25-Dec-2016

 -----------------------------
 # opt freq b3lyp/6-31g(2df,p)
 -----------------------------

 -------------------
 Title Card Required
 -------------------
 Symbolic Z-matrix:
 Charge =  0 Multiplicity = 1

 SCF Done:  E(RB3LYP) =  -586.287855097     A.U. after   12 cycles
 SCF Done:  E(RB3LYP) =  -586.292718569     A.U. after   10 cycles
 SCF Done:  E(RB3LYP) =  -586.293565597     A.U. after   10 cycles
 SCF Done:  E(RB3LYP) =  -586.293781325     A.U. after   10 cycles
 SCF Done:  E(RB3LYP) =  -586.293952170     A.U. after    9 cycles
 SCF Done:  E(RB3LYP) =  -586.293961967     A.U. after    9 cycles
 SCF Done:  E(RB3LYP) =  -586.293985714     A.U. after    8 cycles
 SCF Done:  E(RB3LYP) =  -586.293989902     A.U. after    7 cycles
 SCF Done:  E(RB3LYP) =  -586.293991212     A.U. after    7 cycles
 SCF Done:  E(RB3LYP) =  -586.293991852     A.U. after    6 cycles
 SCF Done:  E(RB3LYP) =  -586.293992071     A.U. after    6 cycles
 SCF Done:  E(RB3LYP) =  -586.293992122     A.U. after    6 cycles
 Optimization completed.
    -- Stationary point found.
 Normal termination of Gaussian 16 at Mon May 22 17:11:17 2023.

 ----------------------------------------------------------------------
 #N Geom=AllCheck Guess=TCheck SCRF=Check GenChk RB3LYP/6-31G(2df,p) Fr
 eq
 ----------------------------------------------------------------------

 Structure from the checkpoint file:  "CC1CCCqCrqCrCqCrqCrCqCOrC1.chk"
 -------------------
 Title Card Required
 -------------------
 Charge =  0 Multiplicity = 1

                         Standard orientation:
 ---------------------------------------------------------------------
 Center     Atomic      Atomic             Coordinates (Angstroms)
 Number     Number       Type             X           Y           Z
 ---------------------------------------------------------------------
      1          6           0        3.132045   -1.635979    0.497595
      2          6           0        1.967182   -0.836355   -0.104997
      3          6           0        0.966834   -1.796895   -0.767357
      4          6           0       -0.367549   -1.219792   -1.269912
      5          6           0       -1.416386   -0.771558   -0.209297
      6          6           0       -1.471807   -1.825706    0.925560
      7          6           0       -2.800151   -0.870112   -0.901325
      8          6           0       -1.166180    0.716866    0.332518
      9          6           0       -1.792251    0.872553    1.740236
     10          6           0       -1.895169    1.753863   -0.558583
     11          6           0        0.351353    1.160563    0.463830
     12          6           0        0.942720    1.928348   -0.745598
     13          8           0        2.287612    2.337568   -0.515163
     14          6           0        1.360990    0.095411    0.959724
     15          1           0        3.590086   -2.293487   -0.249317
     16          1           0        2.790988   -2.267124    1.327684
     17          1           0        3.912930   -0.971810    0.882076
     18          1           0        2.394850   -0.196840   -0.885192
     19          1           0        0.756478   -2.621959   -0.075874
     20          1           0        1.469415   -2.264267   -1.624311
     21          1           0       -0.840997   -2.011608   -1.864714
     22          1           0       -0.187697   -0.403642   -1.979529
     23          1           0       -1.532292   -2.827847    0.486815
     24          1           0       -2.362803   -1.695057    1.544669
     25          1           0       -0.605585   -1.815163    1.587336
     26          1           0       -3.015145   -1.918963   -1.130971
     27          1           0       -2.839286   -0.316712   -1.843013
     28          1           0       -3.610290   -0.508161   -0.260299
     29          1           0       -2.836770    0.545756    1.757723
     30          1           0       -1.778205    1.925843    2.039976
     31          1           0       -1.252383    0.306757    2.503890
     32          1           0       -2.978641    1.632903   -0.501069
     33          1           0       -1.609965    1.693042   -1.612775
     34          1           0       -1.674750    2.768829   -0.213094
     35          1           0        0.323442    1.919031    1.262359
     36          1           0        0.326299    2.800841   -0.985858
     37          1           0        0.985200    1.309942   -1.644872
     38          1           0        2.286210    2.935287    0.239666
     39          1           0        0.920861   -0.491424    1.773297
     40          1           0        2.197363    0.638041    1.412343
 ---------------------------------------------------------------------

 SCF Done:  E(RB3LYP) =  -586.293992122     A.U. after    1 cycles

 The electronic state is 1-A.
 Alpha  occ. eigenvalues --  -19.13162 -10.21722 -10.19654 -10.19283 -10.18174
 Alpha  occ. eigenvalues --  -10.17200 -10.17092 -10.16847 -10.16817 -10.16764
 Alpha  occ. eigenvalues --  -10.16741 -10.16646 -10.16524 -10.16264  -1.01125
 Alpha  occ. eigenvalues --   -0.83957  -0.79343  -0.78115  -0.72238  -0.71166
 Alpha  occ. eigenvalues --   -0.69349  -0.66874  -0.65843  -0.63284  -0.60109
 Alpha  occ. eigenvalues --   -0.58756  -0.53512  -0.50298  -0.49098  -0.47587
 Alpha  occ. eigenvalues --   -0.46688  -0.44449  -0.43866  -0.42987  -0.42350
 Alpha  occ. eigenvalues --   -0.41293  -0.40242  -0.39427  -0.38998  -0.38168
 Alpha  occ. eigenvalues --   -0.37527  -0.37120  -0.36585  -0.36153  -0.35765
 Alpha  occ. eigenvalues --   -0.35107  -0.34328  -0.34187  -0.32525  -0.30583
 Alpha  occ. eigenvalues --   -0.30267  -0.30194  -0.29497  -0.28430  -0.28312
 Alpha  occ. eigenvalues --   -0.25684
 Alpha virt. eigenvalues --    0.06431   0.07673   0.09667   0.09920   0.11424
 Alpha virt. eigenvalues --    0.11552   0.12461   0.13451   0.13792   0.14744
 Alpha virt. eigenvalues --    0.15123   0.15363   0.16530   0.16566   0.17396

 Mulliken charges:
               1
     1  C   -0.401041
     2  C    0.040345
     3  C   -0.199260
     4  C   -0.246930
     5  C    0.263626
     6  C   -0.426488
     7  C   -0.420869
     8  C    0.213862
     9  C   -0.416281
    10  C   -0.420110
    11  C   -0.045677
    12  C   -0.102799
    13  O   -0.419118
    14  C   -0.208118
    15  H    0.105568
    16  H    0.105514
    17  H    0.110101
    18  H    0.091672
    19  H    0.091187
    20  H    0.086170
    21  H    0.085506
    22  H    0.090815
    23  H    0.107627
    24  H    0.107323
    25  H    0.117051
    26  H    0.104903
    27  H    0.110597
    28  H    0.107955
    29  H    0.109979
    30  H    0.103303
    31  H    0.113757
    32  H    0.109552
    33  H    0.114823
    34  H    0.105757
    35  H    0.051954
    36  H    0.089473
    37  H    0.114734
    38  H    0.279722
    39  H    0.086985
    40  H    0.086829
 Sum of Mulliken charges =  -0.00000

 Dipole moment (field-independent basis, Debye):
    X=             -1.0762    Y=              0.4714    Z=              0.7751  Tot=              1.4075
 Quadrupole moment (field-independent basis, Debye-Ang):
   XX=            -95.7475   YY=            -88.6460   ZZ=            -91.4274
   XY=             -0.4229   XZ=              2.5157   YZ=              3.3881

  Exact polarizability: 153.044  -1.586 142.588   1.767   2.708 125.854
 Approx polarizability: 205.171   2.326 204.456   0.006   3.171 199.181

                      1                      2                      3
                      A                      A                      A
 Frequencies --     67.7989                89.6615               112.9349
 Red. masses --      3.3641                 2.8141                 3.5887
 Frc consts  --      0.0091                 0.0133                 0.0270
 IR Inten    --      0.0157                 0.3347                 2.4153

                      4                      5                      6
                      A                      A                      A
 Frequencies --    190.5276               212.0979               240.7785
 Red. masses --      2.4009                 2.2460                 1.2766
 Frc consts  --      0.0513                 0.0595                 0.0436
 IR Inten    --      2.4653                 0.1235                 1.3620

                      7                      8                      9
                      A                      A                      A
 Frequencies --    248.2847               265.9494               271.9537
 Red. masses --      2.6740                 2.7817                 2.1349
 Frc consts  --      0.0971                 0.1159                 0.0930
 IR Inten    --      0.5960                 0.4257                 5.7636

                     10                     11                     12
                      A                      A                      A
 Frequencies --    295.0316               305.1132               309.2275
 Red. masses --      2.0238                 1.8218                 1.3119
 Frc consts  --      0.1038                 0.0999                 0.0739
 IR Inten    --      5.9033                22.6211                50.1281

                     13                     14                     15
                      A                      A                      A
 Frequencies --    312.9197               325.5254               337.3970
 Red. masses --      1.2496                 1.4265                 1.8886
 Frc consts  --      0.0721                 0.0891                 0.1267
 IR Inten    --      5.2061                 6.4088                 0.5621

                     16                     17                     18
                      A                      A                      A
 Frequencies --    351.2568               354.8126               360.6655
 Red. masses --      2.5376                 1.3955                 1.7867
 Frc consts  --      0.1845                 0.1035                 0.1369
 IR Inten    --      1.6777                 2.5128                 6.5638

                     19                     20                     21
                      A                      A                      A
 Frequencies --    379.0155               388.2021               416.8414
 Red. masses --      1.8915                 1.9062                 1.5155
 Frc consts  --      0.1601                 0.1693                 0.1552
 IR Inten    --      5.5307                 0.0765                 0.1120

                     22                     23                     24
                      A                      A                      A
 Frequencies --    423.6079               443.2609               463.0398
 Red. masses --      1.6799                 2.2246                 2.2866
 Frc consts  --      0.1776                 0.2575                 0.2888
 IR Inten    --      4.4751                 0.1114                 0.4715

                     25                     26                     27
                      A                      A                      A
 Frequencies --    482.4925               523.2816               576.7097
 Red. masses --      2.9212                 2.4017                 2.4883
 Frc consts  --      0.4007                 0.3875                 0.4876
 IR Inten    --      0.8334                 1.8937                 1.1108

                     28                     29                     30
                      A                      A                      A
 Frequencies --    600.5720               656.8942               754.5496
 Red. masses --      2.6598                 2.8601                 2.2614
 Frc consts  --      0.5652                 0.7271                 0.7586
 IR Inten    --      1.5233                 2.2507                 0.2789

                     31                     32                     33
                      A                      A                      A
 Frequencies --    789.2078               823.9825               866.8082
 Red. masses --      2.2751                 2.3086                 1.9531
 Frc consts  --      0.8349                 0.9235                 0.8646
 IR Inten    --      0.4763                 0.3048                 1.6024

                     34                     35                     36
                      A                      A                      A
 Frequencies --    889.4530               903.9280               930.4124
 Red. masses --      1.9165                 2.1053                 1.8887
 Frc consts  --      0.8933                 1.0135                 0.9633
 IR Inten    --      4.6637                 1.0199                 5.1225

                     37                     38                     39
                      A                      A                      A
 Frequencies --    941.5160               942.1409               955.0742
 Red. masses --      1.6239                 1.5354                 1.6285
 Frc consts  --      0.8482                 0.8030                 0.8752
 IR Inten    --      0.5410                 0.6566                 0.0335

                     40                     41                     42
                      A                      A                      A
 Frequencies --    965.3838               973.0813               996.2836
 Red. masses --      1.7593                 1.5476                 1.8170
 Frc consts  --      0.9660                 0.8634                 1.0626
 IR Inten    --      0.0378                 1.1433                25.3504

                     43                     44                     45
                      A                      A                      A
 Frequencies --   1019.7573              1031.2727              1056.4427
 Red. masses --      1.3002                 1.3834                 2.4524
 Frc consts  --      0.7966                 0.8668                 1.6126
 IR Inten    --      1.7270                 2.4716                35.1762

                     46                     47                     48
                      A                      A                      A
 Frequencies --   1061.4338              1078.4598              1092.7883
 Red. masses --      2.7356                 2.3415                 1.8280
 Frc consts  --      1.8159                 1.6045                 1.2862
 IR Inten    --     22.5394                27.0960                 2.7911

                     49                     50                     51
                      A                      A                      A
 Frequencies --   1098.0953              1132.4056              1153.4739
 Red. masses --      2.2453                 1.7188                 1.7904
 Frc consts  --      1.5951                 1.2986                 1.4035
 IR Inten    --      4.8759                14.2019                 3.5038

                     52                     53                     54
                      A                      A                      A
 Frequencies --   1167.0902              1182.0606              1197.2681
 Red. masses --      2.0244                 1.8804                 2.0288
 Frc consts  --      1.6247                 1.5480                 1.7134
 IR Inten    --      2.3516                 5.5538                 0.5628

                     55                     56                     57
                      A                      A                      A
 Frequencies --   1210.1409              1224.5093              1228.9089
 Red. masses --      1.8526                 2.2813                 2.3643
 Frc consts  --      1.5985                 2.0154                 2.1037
 IR Inten    --     10.6572                 0.6142                 0.5211

                     58                     59                     60
                      A                      A                      A
 Frequencies --   1259.3514              1291.7654              1310.3025
 Red. masses --      2.1299                 1.3785                 1.3142
 Frc consts  --      1.9902                 1.3552                 1.3294
 IR Inten    --      0.5628                 3.3819                 1.5190

                     61                     62                     63
                      A                      A                      A
 Frequencies --   1323.8023              1354.7558              1367.5205
 Red. masses --      1.2698                 1.2954                 1.2583
 Frc consts  --      1.3111                 1.4008                 1.3865
 IR Inten    --      0.5999                 1.5082                 2.1522

                     64                     65                     66
                      A                      A                      A
 Frequencies --   1368.8165              1378.8387              1394.9870
 Red. masses --      1.1916                 1.3465                 1.3224
 Frc consts  --      1.3155                 1.5083                 1.5162
 IR Inten    --      3.4822                 1.3846                 1.3884

                     67                     68                     69
                      A                      A                      A
 Frequencies --   1398.0723              1401.9982              1403.5033
 Red. masses --      1.2484                 1.3168                 1.2925
 Frc consts  --      1.4377                 1.5250                 1.5001
 IR Inten    --      1.2309                 1.2433                13.5379

                     70                     71                     72
                      A                      A                      A
 Frequencies --   1405.3235              1412.7777              1418.6333
 Red. masses --      1.2368                 1.2306                 1.2244
 Frc consts  --      1.4392                 1.4471                 1.4518
 IR Inten    --     15.9747                17.3202                 5.2034

                     73                     74                     75
                      A                      A                      A
 Frequencies --   1419.5764              1436.4534              1474.8756
 Red. masses --      1.3159                 1.2212                 1.0796
 Frc consts  --      1.5624                 1.4846                 1.3836
 IR Inten    --      1.1812                 9.4896                 2.0171

                     76                     77                     78
                      A                      A                      A
 Frequencies --   1481.7503              1484.2106              1490.4686
 Red. masses --      1.0509                 1.0765                 1.0551
 Frc consts  --      1.3595                 1.3972                 1.3810
 IR Inten    --      0.9972                 2.6284                 0.7827

                     79                     80                     81
                      A                      A                      A
 Frequencies --   1494.6328              1497.8988              1498.0843
 Red. masses --      1.0608                 1.0554                 1.0558
 Frc consts  --      1.3962                 1.3952                 1.3961
 IR Inten    --      0.5960                 5.6808                10.2898

                     82                     83                     84
                      A                      A                      A
 Frequencies --   1500.0530              1502.2782              1510.8724
 Red. masses --      1.0640                 1.0597                 1.0641
 Frc consts  --      1.4106                 1.4091                 1.4312
 IR Inten    --      3.4538                 7.7405                 1.9405

                     85                     86                     87
                      A                      A                      A
 Frequencies --   1515.8249              1518.8683              1525.3106
 Red. masses --      1.0531                 1.0660                 1.0481
 Frc consts  --      1.4257                 1.4489                 1.4367
 IR Inten    --      1.4774                 3.5809                 7.8810

                     88                     89                     90
                      A                      A                      A
 Frequencies --   1532.6568              2959.4207              3009.9658
 Red. masses --      1.0593                 1.0824                 1.0646
 Frc consts  --      1.4661                 5.5851                 5.6828
 IR Inten    --      1.6948                31.2267                10.0467

                     91                     92                     93
                      A                      A                      A
 Frequencies --   3018.9091              3023.8804              3031.7028
 Red. masses --      1.0410                 1.0565                 1.0401
 Frc consts  --      5.5897                 5.6916                 5.6323
 IR Inten    --     27.5116                46.8652                11.8740

                     94                     95                     96
                      A                      A                      A
 Frequencies --   3032.0141              3033.4720              3036.8873
 Red. masses --      1.0383                 1.0723                 1.0542
 Frc consts  --      5.6239                 5.8138                 5.7286
 IR Inten    --     18.2528                24.5043                 0.3622

                     97                     98                     99
                      A                      A                      A
 Frequencies --   3041.9372              3044.4591              3048.5739
 Red. masses --      1.0530                 1.0581                 1.0623
 Frc consts  --      5.7411                 5.7784                 5.8171
 IR Inten    --     13.8988                46.4561                31.8144

                    100                    101                    102
                      A                      A                      A
 Frequencies --   3050.3780              3061.8856              3072.4855
 Red. masses --      1.0818                 1.0955                 1.1007
 Frc consts  --      5.9306                 6.0515                 6.1223
 IR Inten    --     14.5852                51.5400                25.5905

                    103                    104                    105
                      A                      A                      A
 Frequencies --   3087.2019              3091.1140              3093.0724
 Red. masses --      1.0993                 1.1008                 1.1003
 Frc consts  --      6.1728                 6.1971                 6.2022
 IR Inten    --     58.4924                 3.5908                45.3758

                    106                    107                    108
                      A                      A                      A
 Frequencies --   3097.0613              3099.9902              3104.5498
 Red. masses --      1.1011                 1.0992                 1.0963
 Frc consts  --      6.2225                 6.2235                 6.2253
 IR Inten    --     39.0816                34.4293                33.4657

                    109                    110                    111
                      A                      A                      A
 Frequencies --   3107.5004              3112.7372              3114.0484
 Red. masses --      1.0976                 1.1003                 1.0996
 Frc consts  --      6.2445                 6.2814                 6.2826
 IR Inten    --     39.7075                15.8911                39.4620

                    112                    113                    114
                      A                      A                      A
 Frequencies --   3122.9620              3138.8938              3808.9095
 Red. masses --      1.0991                 1.0977                 1.0661
 Frc consts  --      6.3159                 6.3724                 9.1127
 IR Inten    --     39.5548                30.7333                16.2885

 - Thermochemistry -
 -------------------
 Temperature   298.150 Kelvin.  Pressure   1.00000 Atm.
 Atom     1 has atomic number  6 and mass  12.00000

 Molecular mass:   198.19837 amu.
 Principal axes and moments of inertia in atomic units:
                           1         2         3
     Eigenvalues --  2164.206372956.922683931.45249
           X            0.99866  -0.05102   0.00846
           Y            0.05099   0.99869   0.00338
           Z           -0.00862  -0.00294   0.99996
 This molecule is an asymmetric top.
 Rotational symmetry number  1.
 Warning -- assumption of classical behavior for rotation
           may cause significant error
 Rotational temperatures (Kelvin)      0.04002     0.02929     0.02203
 Rotational constants (GHZ):           0.83390     0.61034     0.45905
 Zero-point vibrational energy     977887.7 (Joules/Mol)
                                  233.72077 (Kcal/Mol)
 Warning -- explicit consideration of  28 degrees of freedom as
           vibrations may cause significant error
 Vibrational temperatures:     97.55   129.00   162.49   274.13   305.16
          (Kelvin)            346.43   357.23   382.64   391.28   424.48
                              438.99   444.91   450.22   468.36   485.44
                              505.38   510.50   518.92   545.32   558.54
                              599.74   609.48   637.75   666.21   694.20
                              752.89   829.76   864.09   945.12  1085.63
                             1135.49  1185.53  1247.14  1279.72  1300.55
                             1338.66  1354.63  1355.53  1374.14  1388.97
                             1400.05  1433.43  1467.20  1483.77  1519.99
                             1527.17  1551.66  1572.28  1579.91  1629.28
                             1659.59  1679.18  1700.72  1722.60  1741.12
                             1761.80  1768.13  1811.93  1858.56  1885.23
                             1904.66  1949.19  1967.56  1969.42  1983.84
                             2007.08  2011.51  2017.16  2019.33  2021.95
                             2032.67  2041.10  2042.45  2066.74  2122.02
                             2131.91  2135.45  2144.45  2150.44  2155.14
                             2155.41  2158.24  2161.44  2173.81  2180.93
                             2185.31  2194.58  2205.15  4257.95  4330.67
                             4343.54  4350.69  4361.94  4362.39  4364.49
                             4369.40  4376.67  4380.30  4386.22  4388.81
                             4405.37  4420.62  4441.80  4447.42  4450.24
                             4455.98  4460.19  4466.75  4471.00  4478.53
                             4480.42  4493.25  4516.17  5480.17

 Zero-point correction=                           0.372458 (Hartree/Particle)
 Thermal correction to Energy=                    0.388006
 Thermal correction to Enthalpy=                  0.388950
 Thermal correction to Gibbs Free Energy=         0.332793
 Sum of electronic and zero-point Energies=           -585.921534
 Sum of electronic and thermal Energies=              -585.905986
 Sum of electronic and thermal Enthalpies=            -585.905042
 Sum of electronic and thermal Free Energies=         -585.961200

                     E (Thermal)             CV                S
                      KCal/Mol        Cal/Mol-Kelvin    Cal/Mol-Kelvin
 Total                  243.477             64.668            118.193
 Electronic               0.000              0.000              0.000
 Translational            0.889              2.981             41.757
 Rotational               0.889              2.981             31.598
 Vibrational            241.700             58.707             44.838
 Vibration     1          0.598              1.970              4.216
 Vibration     2          0.602              1.956              3.667
 Vibration     3          0.607              1.939              3.218
 Vibration     4          0.634              1.853              2.223
 Vibration     5          0.643              1.822              2.026
 Vibration     6          0.658              1.778              1.797
 Vibration     7          0.662              1.766              1.743
 Vibration     8          0.672              1.736              1.622
 Vibration     9          0.675              1.725              1.584
 Vibration    10          0.689              1.683              1.445
 Vibration    11          0.696              1.664              1.389
 Vibration    12          0.699              1.656              1.366
 Vibration    13          0.701              1.649              1.347
 Vibration    14          0.710              1.624              1.282
 Vibration    15          0.718              1.601              1.224
 Vibration    16          0.728              1.573              1.161
 Vibration    17          0.731              1.565              1.145
 Vibration    18          0.735              1.553              1.119
 Vibration    19          0.749              1.515              1.043
 Vibration    20          0.756              1.495              1.007
 Vibration    21          0.780              1.434              0.903
 Vibration    22          0.786              1.419              0.880
 Vibration    23          0.803              1.376              0.816
 Vibration    24          0.821              1.332              0.757
 Vibration    25          0.839              1.289              0.703
 Vibration    26          0.878              1.198              0.602
 Vibration    27          0.933              1.082              0.491
 Vibration    28          0.959              1.031              0.449

 Optimization completed.
    -- Stationary point found.
 Normal termination of Gaussian 16 at Mon May 22 21:38:49 2023.
