 Gaussian 16, Revision A.03,
 Gaussian 16:  ES64L-G16RevA.03 25-Dec-2016

 -----------------------------
 # opt freq b3lyp/6-31g(2df,p)
 -----------------------------

 -------------------
 Title Card Required
 -------------------
 Symbolic Z-matrix:
 Charge =  0 Multiplicity = 1

 SCF Done:  E(RB3LYP) =  -542.362323962     A.U. after   13 cycles
 SCF Done:  E(RB3LYP) =  -542.368523010     A.U. after   12 cycles
 SCF Done:  E(RB3LYP) =  -542.372144749     A.U. after   12 cycles
 SCF Done:  E(RB3LYP) =  -542.373001449     A.U. after   12 cycles
 SCF Done:  E(RB3LYP) =  -542.373858496     A.U. after   11 cycles
 SCF Done:  E(RB3LYP) =  -542.374306600     A.U. after   11 cycles
 SCF Done:  E(RB3LYP) =  -542.374731977     A.U. after   11 cycles
 SCF Done:  E(RB3LYP) =  -542.374921990     A.U. after   12 cycles
 SCF Done:  E(RB3LYP) =  -542.374936460     A.U. after    9 cycles
 SCF Done:  E(RB3LYP) =  -542.374939796     A.U. after    8 cycles
 SCF Done:  E(RB3LYP) =  -542.374940158     A.U. after    7 cycles
 SCF Done:  E(RB3LYP) =  -542.374940230     A.U. after    7 cycles
 Optimization completed.
    -- Stationary point found.
 Normal termination of Gaussian 16 at Sun May 28 01:37:56 2023.

 ----------------------------------------------------------------------
 #N Geom=AllCheck Guess=TCheck SCRF=Check GenChk RB3LYP/6-31G(2df,p) Fr
 eq
 ----------------------------------------------------------------------

 Structure from the checkpoint file:  "CC1CCCqdOrCCCqOrCC1.chk"
 -------------------
 Title Card Required
 -------------------
 Charge =  0 Multiplicity = 1

                         Standard orientation:
 ---------------------------------------------------------------------
 Center     Atomic      Atomic             Coordinates (Angstroms)
 Number     Number       Type             X           Y           Z
 ---------------------------------------------------------------------
      1          6           0        1.349302    1.574037    1.388032
      2          6           0        1.564057    1.393112   -0.124981
      3          6           0        2.312539    0.066318   -0.464485
      4          6           0        1.496953   -1.175875   -0.867690
      5          6           0        0.569438   -1.717699    0.214391
      6          8           0        0.943070   -1.828626    1.361688
      7          6           0       -0.840669   -2.102783   -0.209758
      8          6           0       -1.637447   -0.899062   -0.760995
      9          6           0       -1.668719    0.306472    0.213749
     10          8           0       -2.984828    0.538066    0.716392
     11          6           0       -1.113792    1.618610   -0.370800
     12          6           0        0.298582    1.678932   -0.997589
     13          1           0        2.316930    1.574389    1.900310
     14          1           0        0.755989    0.773958    1.834030
     15          1           0        0.862488    2.529373    1.609875
     16          1           0        2.280086    2.175537   -0.404584
     17          1           0        2.937462   -0.204952    0.392363
     18          1           0        2.998726    0.264379   -1.296154
     19          1           0        2.205918   -1.986563   -1.086333
     20          1           0        0.945084   -1.006905   -1.796071
     21          1           0       -1.343536   -2.525838    0.664101
     22          1           0       -0.778242   -2.881062   -0.982054
     23          1           0       -2.669247   -1.222495   -0.928804
     24          1           0       -1.241523   -0.601741   -1.737689
     25          1           0       -1.103293    0.043669    1.111527
     26          1           0       -3.518502    0.880001   -0.009751
     27          1           0       -1.197783    2.371595    0.419734
     28          1           0       -1.813910    1.936259   -1.159903
     29          1           0        0.389530    2.702289   -1.379804
     30          1           0        0.326430    1.050227   -1.894682
 ---------------------------------------------------------------------

 SCF Done:  E(RB3LYP) =  -542.374940230     A.U. after    1 cycles

 The electronic state is 1-A.
 Alpha  occ. eigenvalues --  -19.13128 -19.12558 -10.26483 -10.22945 -10.19014
 Alpha  occ. eigenvalues --  -10.18973 -10.18941 -10.18880 -10.18457 -10.18361
 Alpha  occ. eigenvalues --  -10.18309 -10.16546  -1.03579  -1.01357  -0.81946
 Alpha  occ. eigenvalues --   -0.79133  -0.77182  -0.72443  -0.68756  -0.66262
 Alpha  occ. eigenvalues --   -0.62261  -0.59861  -0.54759  -0.51773  -0.49191
 Alpha  occ. eigenvalues --   -0.47672  -0.46969  -0.45811  -0.44919  -0.44052
 Alpha  occ. eigenvalues --   -0.42140  -0.41466  -0.40065  -0.39378  -0.38320
 Alpha  occ. eigenvalues --   -0.38055  -0.36362  -0.35966  -0.35510  -0.35082
 Alpha  occ. eigenvalues --   -0.33638  -0.32030  -0.31331  -0.30403  -0.30223
 Alpha  occ. eigenvalues --   -0.26234  -0.23812
 Alpha virt. eigenvalues --   -0.01548   0.07020   0.07878   0.08705   0.11048
 Alpha virt. eigenvalues --    0.11652   0.12102   0.13546   0.14443   0.14945
 Alpha virt. eigenvalues --    0.15394   0.16251   0.16900   0.17384   0.18489

 Mulliken charges:
               1
     1  C   -0.410463
     2  C    0.047284
     3  C   -0.210406
     4  C   -0.299024
     5  C    0.406210
     6  O   -0.324037
     7  C   -0.302715
     8  C   -0.239376
     9  C    0.140667
    10  O   -0.438783
    11  C   -0.212670
    12  C   -0.241424
    13  H    0.111684
    14  H    0.147160
    15  H    0.107183
    16  H    0.078100
    17  H    0.117663
    18  H    0.092803
    19  H    0.126900
    20  H    0.100513
    21  H    0.126609
    22  H    0.109607
    23  H    0.107983
    24  H    0.098350
    25  H    0.106132
    26  H    0.271575
    27  H    0.111470
    28  H    0.077673
    29  H    0.100441
    30  H    0.092892
 Sum of Mulliken charges =  -0.00000

 Dipole moment (field-independent basis, Debye):
    X=             -0.1674    Y=              0.7723    Z=             -3.7058  Tot=              3.7891
 Quadrupole moment (field-independent basis, Debye-Ang):
   XX=            -73.6801   YY=            -73.2714   ZZ=            -78.4679
   XY=              0.9430   XZ=              2.5240   YZ=              3.5992

  Exact polarizability: 118.529   1.103 109.264   2.096   0.514  99.612
 Approx polarizability: 160.859  -0.663 149.845   5.322  -2.477 165.276

                      1                      2                      3
                      A                      A                      A
 Frequencies --     68.9031                80.8957               125.1592
 Red. masses --      4.3496                 5.5071                 3.5864
 Frc consts  --      0.0122                 0.0212                 0.0331
 IR Inten    --      0.5261                 3.5402                 1.0698

                      4                      5                      6
                      A                      A                      A
 Frequencies --    149.7510               165.5913               212.8625
 Red. masses --      2.8827                 2.7546                 2.3409
 Frc consts  --      0.0381                 0.0445                 0.0625
 IR Inten    --      0.4358                 2.3314                 1.6515

                      7                      8                      9
                      A                      A                      A
 Frequencies --    233.3386               273.1568               289.5829
 Red. masses --      1.3922                 1.9713                 2.3560
 Frc consts  --      0.0447                 0.0867                 0.1164
 IR Inten    --      1.9260                 2.1111                17.4293

                     10                     11                     12
                      A                      A                      A
 Frequencies --    300.1803               338.1066               340.4768
 Red. masses --      1.2745                 2.1994                 1.9666
 Frc consts  --      0.0677                 0.1481                 0.1343
 IR Inten    --     53.5185                 3.0472                 6.0617

                     13                     14                     15
                      A                      A                      A
 Frequencies --    367.5339               390.4191               420.0696
 Red. masses --      2.1472                 2.5199                 2.7220
 Frc consts  --      0.1709                 0.2263                 0.2830
 IR Inten    --      7.2310                 6.1058                13.2343

                     16                     17                     18
                      A                      A                      A
 Frequencies --    483.7858               496.2983               553.6710
 Red. masses --      2.8817                 2.8894                 3.0624
 Frc consts  --      0.3974                 0.4193                 0.5531
 IR Inten    --      0.5947                 4.5114                 4.6881

                     19                     20                     21
                      A                      A                      A
 Frequencies --    587.5538               616.8457               693.6540
 Red. masses --      2.1087                 2.5783                 2.9491
 Frc consts  --      0.4289                 0.5780                 0.8360
 IR Inten    --      4.1809                 0.7091                 1.0528

                     22                     23                     24
                      A                      A                      A
 Frequencies --    735.3570               764.4506               812.3010
 Red. masses --      2.3901                 2.1221                 1.6021
 Frc consts  --      0.7615                 0.7307                 0.6228
 IR Inten    --      1.5780                 1.9646                 0.4895

                     25                     26                     27
                      A                      A                      A
 Frequencies --    858.9380               901.4487               921.1848
 Red. masses --      2.1994                 1.9075                 2.1096
 Frc consts  --      0.9561                 0.9132                 1.0548
 IR Inten    --      2.4657                10.0785                 3.7580

                     28                     29                     30
                      A                      A                      A
 Frequencies --    943.5391               970.2818               988.3022
 Red. masses --      1.8079                 2.6511                 1.8775
 Frc consts  --      0.9483                 1.4705                 1.0805
 IR Inten    --      3.8330                 4.2156                 1.6132

                     31                     32                     33
                      A                      A                      A
 Frequencies --   1002.2790              1035.1164              1039.5863
 Red. masses --      2.2002                 3.1448                 2.2335
 Frc consts  --      1.3022                 1.9853                 1.4222
 IR Inten    --      4.1002                46.6798                65.1138

                     34                     35                     36
                      A                      A                      A
 Frequencies --   1054.2487              1070.4510              1089.0879
 Red. masses --      2.1322                 1.8251                 1.8776
 Frc consts  --      1.3963                 1.2321                 1.3121
 IR Inten    --     26.7643                15.2212                11.8858

                     37                     38                     39
                      A                      A                      A
 Frequencies --   1124.5215              1147.7676              1171.5454
 Red. masses --      2.4780                 1.5210                 2.4546
 Frc consts  --      1.8462                 1.1806                 1.9850
 IR Inten    --      3.3277                 7.0259                 3.1269

                     40                     41                     42
                      A                      A                      A
 Frequencies --   1181.2442              1206.5227              1231.2839
 Red. masses --      1.4111                 1.3502                 1.3608
 Frc consts  --      1.1601                 1.1580                 1.2155
 IR Inten    --      3.1015                16.1613                 2.5263

                     43                     44                     45
                      A                      A                      A
 Frequencies --   1243.8954              1254.0817              1279.8093
 Red. masses --      1.3099                 1.1847                 1.3167
 Frc consts  --      1.1942                 1.0978                 1.2706
 IR Inten    --     14.4201                 6.9929                17.3340

                     46                     47                     48
                      A                      A                      A
 Frequencies --   1314.0601              1337.7431              1341.5755
 Red. masses --      1.2778                 1.3051                 1.3402
 Frc consts  --      1.3000                 1.3760                 1.4212
 IR Inten    --     19.1588                 2.6598                 0.6407

                     49                     50                     51
                      A                      A                      A
 Frequencies --   1350.8217              1360.1433              1381.0682
 Red. masses --      1.2259                 1.3439                 1.3778
 Frc consts  --      1.3180                 1.4649                 1.5484
 IR Inten    --      3.8231                 1.6488                14.8404

                     52                     53                     54
                      A                      A                      A
 Frequencies --   1388.0005              1392.2538              1400.4170
 Red. masses --      1.3077                 1.4320                 1.3393
 Frc consts  --      1.4843                 1.6354                 1.5475
 IR Inten    --      5.7723                 0.1083                 5.0532

                     55                     56                     57
                      A                      A                      A
 Frequencies --   1401.8218              1420.4557              1443.5934
 Red. masses --      1.3652                 1.2497                 1.1768
 Frc consts  --      1.5807                 1.4856                 1.4449
 IR Inten    --      1.8879                 8.7146                33.3926

                     58                     59                     60
                      A                      A                      A
 Frequencies --   1463.2534              1468.6617              1478.1915
 Red. masses --      1.0841                 1.0963                 1.0818
 Frc consts  --      1.3676                 1.3933                 1.3927
 IR Inten    --      3.4824                 3.9762                 2.7834

                     61                     62                     63
                      A                      A                      A
 Frequencies --   1480.9475              1483.0487              1500.2524
 Red. masses --      1.0909                 1.0963                 1.0538
 Frc consts  --      1.4096                 1.4207                 1.3974
 IR Inten    --      8.6083                 9.7743                 3.0770

                     64                     65                     66
                      A                      A                      A
 Frequencies --   1504.3625              1509.6143              1798.5610
 Red. masses --      1.0735                 1.0583                10.7488
 Frc consts  --      1.4314                 1.4210                20.4862
 IR Inten    --      6.5504                 7.7955               115.4557

                     67                     68                     69
                      A                      A                      A
 Frequencies --   2982.3187              3003.1058              3020.3031
 Red. masses --      1.0708                 1.0813                 1.0676
 Frc consts  --      5.6115                 5.7458                 5.7378
 IR Inten    --     33.1348                 7.1411                 4.1445

                     70                     71                     72
                      A                      A                      A
 Frequencies --   3023.8939              3032.6245              3037.9399
 Red. masses --      1.0648                 1.0632                 1.0492
 Frc consts  --      5.7364                 5.7611                 5.7051
 IR Inten    --     23.2376                25.0848                41.7376

                     73                     74                     75
                      A                      A                      A
 Frequencies --   3043.2636              3045.7865              3055.0433
 Red. masses --      1.0567                 1.0625                 1.0949
 Frc consts  --      5.7660                 5.8074                 6.0208
 IR Inten    --     23.9435                30.2339                12.5499

                     76                     77                     78
                      A                      A                      A
 Frequencies --   3071.5557              3075.5749              3082.9037
 Red. masses --      1.0892                 1.0961                 1.0983
 Frc consts  --      6.0545                 6.1088                 6.1503
 IR Inten    --     28.4688                 4.7495                 4.8810

                     79                     80                     81
                      A                      A                      A
 Frequencies --   3083.7219              3094.0645              3097.8691
 Red. masses --      1.0928                 1.0940                 1.0993
 Frc consts  --      6.1226                 6.1709                 6.2157
 IR Inten    --     41.7395                26.1888                41.1037

                     82                     83                     84
                      A                      A                      A
 Frequencies --   3105.1123              3138.8424              3792.4710
 Red. masses --      1.0984                 1.0969                 1.0659
 Frc consts  --      6.2398                 6.3675                 9.0325
 IR Inten    --     32.7859                20.4398                12.0218

 - Thermochemistry -
 -------------------
 Temperature   298.150 Kelvin.  Pressure   1.00000 Atm.
 Atom     1 has atomic number  6 and mass  12.00000

 Molecular mass:   170.13068 amu.
 Principal axes and moments of inertia in atomic units:
                           1         2         3
     Eigenvalues --  1681.806412082.544282876.56884
           X            0.99760   0.06851   0.01004
           Y           -0.06881   0.99708   0.03321
           Z           -0.00773  -0.03382   0.99940
 This molecule is an asymmetric top.
 Rotational symmetry number  1.
 Warning -- assumption of classical behavior for rotation
           may cause significant error
 Rotational temperatures (Kelvin)      0.05150     0.04159     0.03011
 Rotational constants (GHZ):           1.07310     0.86660     0.62739
 Zero-point vibrational energy     707114.6 (Joules/Mol)
                                  169.00444 (Kcal/Mol)
 Warning -- explicit consideration of  20 degrees of freedom as
           vibrations may cause significant error
 Vibrational temperatures:     99.14   116.39   180.08   215.46   238.25
          (Kelvin)            306.26   335.72   393.01   416.65   431.89
                              486.46   489.87   528.80   561.73   604.39
                              696.06   714.06   796.61   845.36   887.50
                              998.01  1058.01  1099.87  1168.72  1235.82
                             1296.98  1325.38  1357.54  1396.02  1421.95
                             1442.06  1489.30  1495.73  1516.83  1540.14
                             1566.95  1617.94  1651.38  1685.59  1699.55
                             1735.92  1771.54  1789.69  1804.34  1841.36
                             1890.64  1924.71  1930.23  1943.53  1956.94
                             1987.05  1997.02  2003.14  2014.89  2016.91
                             2043.72  2077.01  2105.30  2113.08  2126.79
                             2130.75  2133.78  2158.53  2164.44  2172.00
                             2587.73  4290.89  4320.80  4345.54  4350.71
                             4363.27  4370.92  4378.58  4382.21  4395.53
                             4419.28  4425.07  4435.61  4436.79  4451.67
                             4457.14  4467.56  4516.09  5456.52

 Zero-point correction=                           0.269326 (Hartree/Particle)
 Thermal correction to Energy=                    0.281848
 Thermal correction to Enthalpy=                  0.282792
 Thermal correction to Gibbs Free Energy=         0.231610
 Sum of electronic and zero-point Energies=           -542.105615
 Sum of electronic and thermal Energies=              -542.093093
 Sum of electronic and thermal Enthalpies=            -542.092148
 Sum of electronic and thermal Free Energies=         -542.143330

                     E (Thermal)             CV                S
                      KCal/Mol        Cal/Mol-Kelvin    Cal/Mol-Kelvin
 Total                  176.862             49.251            107.721
 Electronic               0.000              0.000              0.000
 Translational            0.889              2.981             41.302
 Rotational               0.889              2.981             30.689
 Vibrational            175.085             43.290             35.730
 Vibration     1          0.598              1.969              4.184
 Vibration     2          0.600              1.962              3.869
 Vibration     3          0.610              1.928              3.019
 Vibration     4          0.618              1.903              2.675
 Vibration     5          0.624              1.885              2.485
 Vibration     6          0.644              1.821              2.019
 Vibration     7          0.654              1.790              1.853
 Vibration     8          0.676              1.723              1.576
 Vibration     9          0.686              1.693              1.476
 Vibration    10          0.693              1.673              1.416
 Vibration    11          0.718              1.599              1.221
 Vibration    12          0.720              1.595              1.210
 Vibration    13          0.740              1.539              1.090
 Vibration    14          0.758              1.491              0.999
 Vibration    15          0.783              1.427              0.892
 Vibration    16          0.840              1.286              0.700
 Vibration    17          0.852              1.258              0.667
 Vibration    18          0.909              1.132              0.537
 Vibration    19          0.945              1.058              0.472
 Vibration    20          0.977              0.996              0.422

 Optimization completed.
    -- Stationary point found.
 Normal termination of Gaussian 16 at Sun May 28 03:15:19 2023.
