 Gaussian 16, Revision A.03,
 Gaussian 16:  ES64L-G16RevA.03 25-Dec-2016

 -----------------------------
 # opt freq b3lyp/6-31g(2df,p)
 -----------------------------

 -------------------
 Title Card Required
 -------------------
 Symbolic Z-matrix:
 Charge =  0 Multiplicity = 1

 SCF Done:  E(RB3LYP) =  -353.838390789     A.U. after   12 cycles
 SCF Done:  E(RB3LYP) =  -353.840208316     A.U. after   10 cycles
 SCF Done:  E(RB3LYP) =  -353.840349551     A.U. after    9 cycles
 SCF Done:  E(RB3LYP) =  -353.840595473     A.U. after    9 cycles
 SCF Done:  E(RB3LYP) =  -353.840707843     A.U. after    9 cycles
 SCF Done:  E(RB3LYP) =  -353.840817567     A.U. after    9 cycles
 SCF Done:  E(RB3LYP) =  -353.840871985     A.U. after    9 cycles
 SCF Done:  E(RB3LYP) =  -353.840890448     A.U. after    9 cycles
 SCF Done:  E(RB3LYP) =  -353.840886851     A.U. after    6 cycles
 SCF Done:  E(RB3LYP) =  -353.840916051     A.U. after    9 cycles
 SCF Done:  E(RB3LYP) =  -353.842656205     A.U. after   10 cycles
 SCF Done:  E(RB3LYP) =  -353.842733219     A.U. after    9 cycles
 SCF Done:  E(RB3LYP) =  -353.842750861     A.U. after   10 cycles
 SCF Done:  E(RB3LYP) =  -353.842799051     A.U. after    9 cycles
 SCF Done:  E(RB3LYP) =  -353.842810169     A.U. after    9 cycles
 SCF Done:  E(RB3LYP) =  -353.842811842     A.U. after    8 cycles
 SCF Done:  E(RB3LYP) =  -353.842812299     A.U. after    8 cycles
 SCF Done:  E(RB3LYP) =  -353.842812293     A.U. after    6 cycles
 SCF Done:  E(RB3LYP) =  -353.842812306     A.U. after    5 cycles
 Optimization completed.
    -- Stationary point found.
 Normal termination of Gaussian 16 at Sun May 28 10:49:15 2023.

 ----------------------------------------------------------------------
 #N Geom=AllCheck Guess=TCheck SCRF=Check GenChk RB3LYP/6-31G(2df,p) Fr
 eq
 ----------------------------------------------------------------------

 Structure from the checkpoint file:  "CC1CCCqCqCrCrC1.chk"
 -------------------
 Title Card Required
 -------------------
 Charge =  0 Multiplicity = 1

                         Standard orientation:
 ---------------------------------------------------------------------
 Center     Atomic      Atomic             Coordinates (Angstroms)
 Number     Number       Type             X           Y           Z
 ---------------------------------------------------------------------
      1          6           0       -3.236713   -0.791582    0.110820
      2          6           0       -1.951476   -0.134965   -0.391141
      3          6           0       -1.675633    1.264873    0.189121
      4          6           0       -0.176102    1.464406   -0.055289
      5          6           0        0.443839    0.095985    0.310318
      6          6           0        1.823975   -0.183438   -0.312473
      7          6           0        2.834309    0.929743    0.001467
      8          6           0        2.381329   -1.541809    0.139049
      9          6           0       -0.658195   -0.938742   -0.075099
     10          1           0       -4.116954   -0.186093   -0.132078
     11          1           0       -3.210068   -0.919204    1.199699
     12          1           0       -3.381894   -1.781552   -0.335228
     13          1           0       -2.026776   -0.027219   -1.481607
     14          1           0       -1.881423    1.267967    1.268578
     15          1           0       -2.300329    2.042896   -0.261307
     16          1           0        0.248413    2.292403    0.519197
     17          1           0        0.000189    1.682972   -1.117936
     18          1           0        0.568359    0.073231    1.402827
     19          1           0        1.687698   -0.218314   -1.404583
     20          1           0        2.979182    1.031203    1.084175
     21          1           0        2.508447    1.900150   -0.383381
     22          1           0        3.810908    0.707018   -0.441444
     23          1           0        2.541033   -1.553794    1.224315
     24          1           0        3.344989   -1.749510   -0.338046
     25          1           0        1.704102   -2.365255   -0.105669
     26          1           0       -0.833160   -1.646177    0.742547
     27          1           0       -0.354709   -1.537550   -0.940697
 ---------------------------------------------------------------------

 SCF Done:  E(RB3LYP) =  -353.842812306     A.U. after    1 cycles

 The electronic state is 1-A.
 Alpha  occ. eigenvalues --  -10.17983 -10.17729 -10.17465 -10.16932 -10.16908
 Alpha  occ. eigenvalues --  -10.16766 -10.16749 -10.16585 -10.16582  -0.83617
 Alpha  occ. eigenvalues --   -0.78516  -0.72881  -0.69648  -0.67370  -0.64406
 Alpha  occ. eigenvalues --   -0.58264  -0.55465  -0.53483  -0.47015  -0.46247
 Alpha  occ. eigenvalues --   -0.43487  -0.42333  -0.40951  -0.39741  -0.39644
 Alpha  occ. eigenvalues --   -0.37853  -0.37390  -0.36604  -0.34517  -0.32971
 Alpha  occ. eigenvalues --   -0.32045  -0.31541  -0.30860  -0.30123  -0.29795
 Alpha  occ. eigenvalues --   -0.29625
 Alpha virt. eigenvalues --    0.08329   0.09226   0.10392   0.12304   0.13902
 Alpha virt. eigenvalues --    0.14612   0.14982   0.15667   0.15762   0.16846
 Alpha virt. eigenvalues --    0.17488   0.17937   0.18369   0.19241   0.19633

 Mulliken charges:
               1
     1  C   -0.407400
     2  C    0.059694
     3  C   -0.215269
     4  C   -0.231708
     5  C    0.078373
     6  C    0.021938
     7  C   -0.391979
     8  C   -0.389991
     9  C   -0.239699
    10  H    0.108679
    11  H    0.109414
    12  H    0.110023
    13  H    0.065879
    14  H    0.088693
    15  H    0.087340
    16  H    0.091703
    17  H    0.089748
    18  H    0.059659
    19  H    0.063910
    20  H    0.108544
    21  H    0.113443
    22  H    0.105906
    23  H    0.108566
    24  H    0.106504
    25  H    0.113498
    26  H    0.091800
    27  H    0.092732
 Sum of Mulliken charges =  -0.00000

 Dipole moment (field-independent basis, Debye):
    X=             -0.0436    Y=              0.0359    Z=             -0.0832  Tot=              0.1006
 Quadrupole moment (field-independent basis, Debye-Ang):
   XX=            -60.8292   YY=            -60.3448   ZZ=            -58.8041
   XY=             -0.1989   XZ=              0.0868   YZ=              0.0754

  Exact polarizability: 112.181   0.274  94.220  -0.054  -0.060  82.039
 Approx polarizability: 134.008  -0.472 131.414   0.048  -0.060 132.674

                      1                      2                      3
                      A                      A                      A
 Frequencies --     36.0674                97.5901               159.9634
 Red. masses --      2.5473                 2.3166                 2.7696
 Frc consts  --      0.0020                 0.0130                 0.0418
 IR Inten    --      0.0030                 0.0001                 0.0109

                      4                      5                      6
                      A                      A                      A
 Frequencies --    192.0363               227.1129               243.1395
 Red. masses --      1.9511                 1.0461                 1.0893
 Frc consts  --      0.0424                 0.0318                 0.0379
 IR Inten    --      0.0062                 0.0026                 0.0025

                      7                      8                      9
                      A                      A                      A
 Frequencies --    252.8923               298.8171               323.1334
 Red. masses --      1.1543                 2.3143                 2.3337
 Frc consts  --      0.0435                 0.1218                 0.1436
 IR Inten    --      0.0015                 0.0068                 0.0403

                     10                     11                     12
                      A                      A                      A
 Frequencies --    348.9390               411.8223               437.4159
 Red. masses --      1.8969                 2.2624                 2.4445
 Frc consts  --      0.1361                 0.2261                 0.2756
 IR Inten    --      0.0987                 0.0631                 0.0291

                     13                     14                     15
                      A                      A                      A
 Frequencies --    455.2083               548.7873               592.5029
 Red. masses --      2.1210                 2.5104                 2.4565
 Frc consts  --      0.2589                 0.4455                 0.5081
 IR Inten    --      0.0127                 0.4509                 0.0642

                     16                     17                     18
                      A                      A                      A
 Frequencies --    783.6701               821.8476               861.1422
 Red. masses --      1.7662                 2.9379                 2.0415
 Frc consts  --      0.6391                 1.1691                 0.8920
 IR Inten    --      0.1060                 0.2340                 0.4910

                     19                     20                     21
                      A                      A                      A
 Frequencies --    885.4926               919.3273               928.8715
 Red. masses --      2.4384                 1.4519                 1.1896
 Frc consts  --      1.1265                 0.7230                 0.6048
 IR Inten    --      1.1023                 0.0604                 0.4704

                     22                     23                     24
                      A                      A                      A
 Frequencies --    930.8062               962.2063               965.9404
 Red. masses --      1.8574                 1.4079                 1.3508
 Frc consts  --      0.9481                 0.7680                 0.7426
 IR Inten    --      0.1149                 1.3413                 1.0134

                     25                     26                     27
                      A                      A                      A
 Frequencies --    983.3848              1007.3502              1033.9367
 Red. masses --      1.7931                 1.4738                 1.8537
 Frc consts  --      1.0216                 0.8812                 1.1675
 IR Inten    --      1.7008                 1.3339                 0.5628

                     28                     29                     30
                      A                      A                      A
 Frequencies --   1056.9629              1097.4590              1104.8418
 Red. masses --      2.0745                 1.4825                 2.1314
 Frc consts  --      1.3654                 1.0520                 1.5329
 IR Inten    --      0.2005                 0.1146                 1.0035

                     31                     32                     33
                      A                      A                      A
 Frequencies --   1155.6029              1163.2173              1192.0902
 Red. masses --      2.4381                 2.1663                 1.7301
 Frc consts  --      1.9183                 1.7270                 1.4486
 IR Inten    --      1.0289                 1.8576                 3.1995

                     34                     35                     36
                      A                      A                      A
 Frequencies --   1222.6635              1224.9561              1258.0499
 Red. masses --      1.5536                 1.8248                 1.4441
 Frc consts  --      1.3684                 1.6132                 1.3466
 IR Inten    --      0.5081                 2.0885                 1.0008

                     37                     38                     39
                      A                      A                      A
 Frequencies --   1293.9036              1302.3096              1323.8023
 Red. masses --      1.3288                 1.3399                 1.2681
 Frc consts  --      1.3107                 1.3389                 1.3094
 IR Inten    --      0.3931                 5.1587                 0.6202

                     40                     41                     42
                      A                      A                      A
 Frequencies --   1332.5760              1346.1387              1350.7651
 Red. masses --      1.2433                 1.2599                 1.3407
 Frc consts  --      1.3008                 1.3451                 1.4413
 IR Inten    --      3.9876                 4.6568                 0.6835

                     43                     44                     45
                      A                      A                      A
 Frequencies --   1352.8330              1380.5761              1389.3158
 Red. masses --      1.3961                 1.5070                 1.5203
 Frc consts  --      1.5054                 1.6923                 1.7290
 IR Inten    --      0.7079                 3.4565                 0.4999

                     46                     47                     48
                      A                      A                      A
 Frequencies --   1399.9265              1410.7732              1420.6059
 Red. masses --      1.2571                 1.2447                 1.2268
 Frc consts  --      1.4516                 1.4596                 1.4587
 IR Inten    --      4.8110                 1.0004                 3.5646

                     49                     50                     51
                      A                      A                      A
 Frequencies --   1487.6604              1489.1909              1490.6963
 Red. masses --      1.0525                 1.0695                 1.0785
 Frc consts  --      1.3724                 1.3975                 1.4120
 IR Inten    --      0.5235                 1.9950                 2.3994

                     52                     53                     54
                      A                      A                      A
 Frequencies --   1495.1252              1497.3538              1499.3618
 Red. masses --      1.0580                 1.0549                 1.0569
 Frc consts  --      1.3934                 1.3935                 1.4000
 IR Inten    --      0.5093                 1.5725                 5.9802

                     55                     56                     57
                      A                      A                      A
 Frequencies --   1504.6616              1506.8739              1512.2806
 Red. masses --      1.0685                 1.0770                 1.0559
 Frc consts  --      1.4252                 1.4409                 1.4228
 IR Inten    --      0.7462                 1.7451                 6.7854

                     58                     59                     60
                      A                      A                      A
 Frequencies --   2977.9064              2993.0974              3001.1891
 Red. masses --      1.0794                 1.0841                 1.0812
 Frc consts  --      5.6398                 5.7222                 5.7376
 IR Inten    --      1.9306                29.0531                 6.9821

                     61                     62                     63
                      A                      A                      A
 Frequencies --   3010.6137              3017.7314              3021.6733
 Red. masses --      1.0709                 1.0587                 1.0417
 Frc consts  --      5.7186                 5.6806                 5.6041
 IR Inten    --     13.4615                28.7961                58.3791

                     64                     65                     66
                      A                      A                      A
 Frequencies --   3022.4007              3027.2973              3035.9238
 Red. masses --      1.0372                 1.0381                 1.0598
 Frc consts  --      5.5821                 5.6051                 5.7553
 IR Inten    --     20.4010                32.4638                35.1116

                     67                     68                     69
                      A                      A                      A
 Frequencies --   3072.4209              3075.4217              3084.3512
 Red. masses --      1.1033                 1.0973                 1.0997
 Frc consts  --      6.1365                 6.1146                 6.1639
 IR Inten    --     20.3623                28.8468                 5.2216

                     70                     71                     72
                      A                      A                      A
 Frequencies --   3085.3119              3088.8478              3090.9939
 Red. masses --      1.0971                 1.1006                 1.0996
 Frc consts  --      6.1531                 6.1871                 6.1897
 IR Inten    --     13.0967                57.2332               105.1158

                     73                     74                     75
                      A                      A                      A
 Frequencies --   3091.2747              3105.0362              3107.5948
 Red. masses --      1.1009                 1.1000                 1.0996
 Frc consts  --      6.1986                 6.2487                 6.2568
 IR Inten    --     31.5881                32.5172                35.4255

 - Thermochemistry -
 -------------------
 Temperature   298.150 Kelvin.  Pressure   1.00000 Atm.
 Atom     1 has atomic number  6 and mass  12.00000

 Molecular mass:   126.14085 amu.
 Principal axes and moments of inertia in atomic units:
                           1         2         3
     Eigenvalues --   581.800251945.635322379.78158
           X            0.99999   0.00406  -0.00059
           Y           -0.00406   0.99999  -0.00336
           Z            0.00058   0.00337   0.99999
 This molecule is an asymmetric top.
 Rotational symmetry number  1.
 Warning -- assumption of classical behavior for rotation
           may cause significant error
 Rotational temperatures (Kelvin)      0.14887     0.04452     0.03640
 Rotational constants (GHZ):           3.10199     0.92758     0.75836
 Zero-point vibrational energy     663216.0 (Joules/Mol)
                                  158.51244 (Kcal/Mol)
 Warning -- explicit consideration of  15 degrees of freedom as
           vibrations may cause significant error
 Vibrational temperatures:     51.89   140.41   230.15   276.30   326.76
          (Kelvin)            349.82   363.86   429.93   464.92   502.05
                              592.52   629.34   654.94   789.58   852.48
                             1127.53  1182.46  1238.99  1274.03  1322.71
                             1336.44  1339.22  1384.40  1389.77  1414.87
                             1449.35  1487.60  1520.73  1579.00  1589.62
                             1662.65  1673.61  1715.15  1759.14  1762.44
                             1810.05  1861.64  1873.73  1904.66  1917.28
                             1936.79  1943.45  1946.43  1986.34  1998.92
                             2014.18  2029.79  2043.94  2140.41  2142.61
                             2144.78  2151.15  2154.36  2157.25  2164.87
                             2168.06  2175.83  4284.54  4306.40  4318.04
                             4331.60  4341.84  4347.51  4348.56  4355.61
                             4368.02  4420.53  4424.85  4437.69  4439.08
                             4444.16  4447.25  4447.65  4467.45  4471.14

 Zero-point correction=                           0.252606 (Hartree/Particle)
 Thermal correction to Energy=                    0.263047
 Thermal correction to Enthalpy=                  0.263992
 Thermal correction to Gibbs Free Energy=         0.217077
 Sum of electronic and zero-point Energies=           -353.590207
 Sum of electronic and thermal Energies=              -353.579765
 Sum of electronic and thermal Enthalpies=            -353.578821
 Sum of electronic and thermal Free Energies=         -353.625735

                     E (Thermal)             CV                S
                      KCal/Mol        Cal/Mol-Kelvin    Cal/Mol-Kelvin
 Total                  165.065             40.188             98.739
 Electronic               0.000              0.000              0.000
 Translational            0.889              2.981             40.410
 Rotational               0.889              2.981             29.378
 Vibrational            163.287             34.227             28.951
 Vibration     1          0.594              1.982              5.464
 Vibration     2          0.603              1.951              3.502
 Vibration     3          0.622              1.891              2.550
 Vibration     4          0.634              1.851              2.208
 Vibration     5          0.651              1.800              1.902
 Vibration     6          0.659              1.774              1.780
 Vibration     7          0.664              1.758              1.710
 Vibration     8          0.692              1.676              1.424
 Vibration     9          0.708              1.629              1.294
 Vibration    10          0.726              1.577              1.171
 Vibration    11          0.776              1.445              0.920
 Vibration    12          0.798              1.389              0.835
 Vibration    13          0.814              1.349              0.780
 Vibration    14          0.904              1.142              0.547
 Vibration    15          0.950              1.048              0.463

 Optimization completed.
    -- Stationary point found.
 Normal termination of Gaussian 16 at Sun May 28 11:39:49 2023.
