 Gaussian 16, Revision A.03,
 Gaussian 16:  ES64L-G16RevA.03 25-Dec-2016

 -----------------------------
 # opt freq b3lyp/6-31g(2df,p)
 -----------------------------

 -------------------
 Title Card Required
 -------------------
 Symbolic Z-matrix:
 Charge =  0 Multiplicity = 1

 SCF Done:  E(RB3LYP) =  -234.568471376     A.U. after   12 cycles
 SCF Done:  E(RB3LYP) =  -234.588213720     A.U. after   11 cycles
 SCF Done:  E(RB3LYP) =  -234.591757303     A.U. after   10 cycles
 SCF Done:  E(RB3LYP) =  -234.592311703     A.U. after   10 cycles
 SCF Done:  E(RB3LYP) =  -234.592421965     A.U. after    9 cycles
 SCF Done:  E(RB3LYP) =  -234.592464836     A.U. after    8 cycles
 SCF Done:  E(RB3LYP) =  -234.592473633     A.U. after    8 cycles
 SCF Done:  E(RB3LYP) =  -234.592474424     A.U. after    6 cycles
 Optimization completed.
    -- Stationary point found.
 Normal termination of Gaussian 16 at Sat May 27 22:26:57 2023.

 ----------------------------------------------------------------------
 #N Geom=AllCheck Guess=TCheck SCRF=Check GenChk RB3LYP/6-31G(2df,p) Fr
 eq
 ----------------------------------------------------------------------

 Structure from the checkpoint file:  "CC1C2CC1C2.chk"
 -------------------
 Title Card Required
 -------------------
 Charge =  0 Multiplicity = 1

                         Standard orientation:
 ---------------------------------------------------------------------
 Center     Atomic      Atomic             Coordinates (Angstroms)
 Number     Number       Type             X           Y           Z
 ---------------------------------------------------------------------
      1          6           0        2.064383   -0.016227   -0.000016
      2          6           0        0.647204   -0.568979   -0.000049
      3          6           0       -0.468495   -0.001400    0.940097
      4          6           0       -1.495320   -0.696751    0.000167
      5          6           0       -0.468615   -0.001643   -0.940119
      6          6           0       -0.574790    1.235342   -0.000160
      7          1           0        2.611220   -0.367279    0.882489
      8          1           0        2.107089    1.075790   -0.000491
      9          1           0        2.611750   -0.367885   -0.881890
     10          1           0        0.684201   -1.665458    0.000131
     11          1           0       -0.471656   -0.001790    2.031934
     12          1           0       -2.509747   -0.289024    0.000200
     13          1           0       -1.501218   -1.790679    0.000335
     14          1           0       -0.472266   -0.002750   -2.031949
     15          1           0       -1.535579    1.757861   -0.000149
     16          1           0        0.250001    1.949161   -0.000134
 ---------------------------------------------------------------------

 SCF Done:  E(RB3LYP) =  -234.592474424     A.U. after    1 cycles

 The electronic state is 1-A.
 Alpha  occ. eigenvalues --  -10.19345 -10.19342 -10.18728 -10.18033 -10.17945
 Alpha  occ. eigenvalues --  -10.16963  -0.90368  -0.72912  -0.65929  -0.61693
 Alpha  occ. eigenvalues --   -0.61376  -0.51593  -0.48887  -0.45799  -0.42923
 Alpha  occ. eigenvalues --   -0.40523  -0.37455  -0.34282  -0.32046  -0.30739
 Alpha  occ. eigenvalues --   -0.30507  -0.30180  -0.28923
 Alpha virt. eigenvalues --    0.10466   0.12528   0.12972   0.13504   0.15178
 Alpha virt. eigenvalues --    0.15455   0.16066   0.16290   0.17464   0.18188
 Alpha virt. eigenvalues --    0.19775   0.20607   0.23350   0.24174   0.24760

 Mulliken charges:
               1
     1  C   -0.441511
     2  C    0.081787
     3  C   -0.043593
     4  C   -0.212707
     5  C   -0.043627
     6  C   -0.218884
     7  H    0.115317
     8  H    0.116706
     9  H    0.115318
    10  H    0.057929
    11  H    0.063101
    12  H    0.085453
    13  H    0.085121
    14  H    0.063105
    15  H    0.086745
    16  H    0.089739
 Sum of Mulliken charges =  -0.00000

 Dipole moment (field-independent basis, Debye):
    X=              0.1253    Y=             -0.0295    Z=              0.0001  Tot=              0.1287
 Quadrupole moment (field-independent basis, Debye-Ang):
   XX=            -38.2926   YY=            -38.1612   ZZ=            -38.2425
   XY=             -0.1992   XZ=              0.0003   YZ=              0.0006

  Exact polarizability:  67.944  -0.350  59.385   0.001   0.001  55.213
 Approx polarizability:  89.777  -0.750  87.838   0.002   0.002  84.356

                      1                      2                      3
                      A                      A                      A
 Frequencies --    182.6664               286.9188               336.6058
 Red. masses --      1.0356                 2.2778                 2.5941
 Frc consts  --      0.0204                 0.1105                 0.1732
 IR Inten    --      0.0001                 0.2617                 0.1590

                      4                      5                      6
                      A                      A                      A
 Frequencies --    544.8620               571.5142               757.6011
 Red. masses --      2.1843                 2.1716                 2.7903
 Frc consts  --      0.3821                 0.4179                 0.9436
 IR Inten    --      0.1789                 1.4404                 0.0803

                      7                      8                      9
                      A                      A                      A
 Frequencies --    782.7787               793.0486               855.2644
 Red. masses --      2.1187                 2.7385                 2.2765
 Frc consts  --      0.7649                 1.0148                 0.9811
 IR Inten    --      0.7855                 0.2874                 1.0148

                     10                     11                     12
                      A                      A                      A
 Frequencies --    899.4908               904.4791              1000.4222
 Red. masses --      2.6602                 2.1415                 1.3056
 Frc consts  --      1.2681                 1.0322                 0.7699
 IR Inten    --      0.0151                 0.2752                 0.1458

                     13                     14                     15
                      A                      A                      A
 Frequencies --   1005.6507              1020.6536              1029.2925
 Red. masses --      1.0259                 1.1210                 1.0240
 Frc consts  --      0.6113                 0.6881                 0.6392
 IR Inten    --      0.1647                 2.1302                 0.1831

                     16                     17                     18
                      A                      A                      A
 Frequencies --   1041.6404              1112.5994              1117.0412
 Red. masses --      1.8922                 2.1860                 1.4930
 Frc consts  --      1.2096                 1.5943                 1.0976
 IR Inten    --      2.3072                 0.0817                 0.3741

                     19                     20                     21
                      A                      A                      A
 Frequencies --   1133.2784              1153.1940              1159.8743
 Red. masses --      2.1909                 1.3953                 2.5828
 Frc consts  --      1.6578                 1.0933                 2.0472
 IR Inten    --      1.0805                 1.1085                 1.1134

                     22                     23                     24
                      A                      A                      A
 Frequencies --   1192.8064              1218.0781              1249.4964
 Red. masses --      1.3990                 1.4286                 1.7120
 Frc consts  --      1.1728                 1.2489                 1.5748
 IR Inten    --      0.0094                 1.3546                 0.3233

                     25                     26                     27
                      A                      A                      A
 Frequencies --   1257.0383              1274.7706              1405.6068
 Red. masses --      1.6787                 1.8159                 1.2204
 Frc consts  --      1.5629                 1.7387                 1.4206
 IR Inten    --     13.4058                 1.3309                 1.2827

                     28                     29                     30
                      A                      A                      A
 Frequencies --   1422.7199              1491.1139              1495.8796
 Red. masses --      1.3495                 1.0725                 1.0469
 Frc consts  --      1.6094                 1.4050                 1.3803
 IR Inten    --     10.8176                 1.8457                 3.2782

                     31                     32                     33
                      A                      A                      A
 Frequencies --   1511.0957              1542.9004              3021.6025
 Red. masses --      1.0837                 1.1344                 1.0797
 Frc consts  --      1.4579                 1.5911                 5.8079
 IR Inten    --      2.5490                 1.6530                35.1944

                     34                     35                     36
                      A                      A                      A
 Frequencies --   3032.1435              3044.9536              3058.4670
 Red. masses --      1.0411                 1.0539                 1.0581
 Frc consts  --      5.6396                 5.7574                 5.8314
 IR Inten    --     40.2438                54.2531                31.3974

                     37                     38                     39
                      A                      A                      A
 Frequencies --   3086.0896              3086.7033              3094.3467
 Red. masses --      1.0996                 1.0902                 1.0934
 Frc consts  --      6.1705                 6.1197                 6.1682
 IR Inten    --      1.1456               155.7348                 4.2556

                     40                     41                     42
                      A                      A                      A
 Frequencies --   3109.1374              3113.0019              3127.3720
 Red. masses --      1.1075                 1.1039                 1.1027
 Frc consts  --      6.3079                 6.3031                 6.3542
 IR Inten    --      3.1577                77.3971                45.3517

 - Thermochemistry -
 -------------------
 Temperature   298.150 Kelvin.  Pressure   1.00000 Atm.
 Atom     1 has atomic number  6 and mass  12.00000

 Molecular mass:    82.07825 amu.
 Principal axes and moments of inertia in atomic units:
                           1         2         3
     Eigenvalues --   262.89677 548.15573 588.91687
           X            0.99999   0.00519   0.00001
           Y           -0.00519   0.99999   0.00003
           Z           -0.00001  -0.00003   1.00000
 This molecule is an asymmetric top.
 Rotational symmetry number  1.
 Rotational temperatures (Kelvin)      0.32946     0.15801     0.14707
 Rotational constants (GHZ):           6.86483     3.29239     3.06451
 Zero-point vibrational energy     379959.1 (Joules/Mol)
                                   90.81240 (Kcal/Mol)
 Warning -- explicit consideration of   5 degrees of freedom as
           vibrations may cause significant error
 Vibrational temperatures:    262.82   412.81   484.30   783.93   822.28
          (Kelvin)           1090.02  1126.24  1141.02  1230.53  1294.17
                             1301.34  1439.38  1446.91  1468.49  1480.92
                             1498.69  1600.78  1607.17  1630.53  1659.19
                             1668.80  1716.18  1752.54  1797.75  1808.60
                             1834.11  2022.35  2046.98  2145.38  2152.24
                             2174.13  2219.89  4347.41  4362.58  4381.01
                             4400.45  4440.19  4441.08  4452.07  4473.36
                             4478.92  4499.59

 Zero-point correction=                           0.144719 (Hartree/Particle)
 Thermal correction to Energy=                    0.150134
 Thermal correction to Enthalpy=                  0.151078
 Thermal correction to Gibbs Free Energy=         0.116282
 Sum of electronic and zero-point Energies=           -234.447756
 Sum of electronic and thermal Energies=              -234.442341
 Sum of electronic and thermal Enthalpies=            -234.441396
 Sum of electronic and thermal Free Energies=         -234.476192

                     E (Thermal)             CV                S
                      KCal/Mol        Cal/Mol-Kelvin    Cal/Mol-Kelvin
 Total                   94.210             21.436             73.233
 Electronic               0.000              0.000              0.000
 Translational            0.889              2.981             39.129
 Rotational               0.889              2.981             25.943
 Vibrational             92.433             15.474              8.161
 Vibration     1          0.630              1.863              2.301
 Vibration     2          0.684              1.698              1.492
 Vibration     3          0.717              1.602              1.228
 Vibration     4          0.900              1.151              0.555
 Vibration     5          0.928              1.093              0.501

 Optimization completed.
    -- Stationary point found.
 Normal termination of Gaussian 16 at Sat May 27 22:40:27 2023.
