 Gaussian 16, Revision A.03,
 Gaussian 16:  ES64L-G16RevA.03 25-Dec-2016

 -----------------------------
 # opt freq b3lyp/6-31g(2df,p)
 -----------------------------

 -------------------
 Title Card Required
 -------------------
 Symbolic Z-matrix:
 Charge =  0 Multiplicity = 1

 SCF Done:  E(RB3LYP) =  -1296.36648264     A.U. after   19 cycles
 SCF Done:  E(RB3LYP) =  -1296.41092913     A.U. after   15 cycles
 SCF Done:  E(RB3LYP) =  -1296.45037272     A.U. after   15 cycles
 SCF Done:  E(RB3LYP) =  -1296.47198942     A.U. after   14 cycles
 SCF Done:  E(RB3LYP) =  -1296.49707948     A.U. after   14 cycles
 SCF Done:  E(RB3LYP) =  -1296.50755574     A.U. after   13 cycles
 SCF Done:  E(RB3LYP) =  -1296.51363992     A.U. after   13 cycles
 SCF Done:  E(RB3LYP) =  -1296.51457209     A.U. after   13 cycles
 SCF Done:  E(RB3LYP) =  -1296.51578410     A.U. after   12 cycles
 SCF Done:  E(RB3LYP) =  -1296.51616305     A.U. after   11 cycles
 SCF Done:  E(RB3LYP) =  -1296.51636100     A.U. after   11 cycles
 SCF Done:  E(RB3LYP) =  -1296.51640718     A.U. after   11 cycles
 SCF Done:  E(RB3LYP) =  -1296.51642057     A.U. after    9 cycles
 SCF Done:  E(RB3LYP) =  -1296.51642640     A.U. after    9 cycles
 SCF Done:  E(RB3LYP) =  -1296.51642820     A.U. after    8 cycles
 SCF Done:  E(RB3LYP) =  -1296.51642879     A.U. after    8 cycles
 SCF Done:  E(RB3LYP) =  -1296.51642887     A.U. after    7 cycles
 Optimization completed.
    -- Stationary point found.
 Normal termination of Gaussian 16 at Sat May 27 19:40:45 2023.

 ----------------------------------------------------------------------
 #N Geom=AllCheck Guess=TCheck SCRF=Check GenChk RB3LYP/6-31G(2df,p) Fr
 eq
 ----------------------------------------------------------------------

 Structure from the checkpoint file:  "CC1CCCCC2dCSCdCNSN21.chk"
 -------------------
 Title Card Required
 -------------------
 Charge =  0 Multiplicity = 1

                         Standard orientation:
 ---------------------------------------------------------------------
 Center     Atomic      Atomic             Coordinates (Angstroms)
 Number     Number       Type             X           Y           Z
 ---------------------------------------------------------------------
      1          6           0        0.541684    2.115999   -1.677040
      2          6           0        0.919523    0.736570   -1.138104
      3          6           0        2.455592    0.633591   -1.044744
      4          6           0        3.057386   -0.651439   -0.452324
      5          6           0        2.784194   -0.833402    1.050226
      6          6           0        1.413399   -1.461693    1.379873
      7          6           0        0.297781   -1.020764    0.460400
      8          6           0       -0.530557   -1.931988   -0.084688
      9         16           0       -2.057692   -1.723507   -1.001685
     10          6           0       -2.729396   -0.498261    0.099072
     11          6           0       -2.372295    0.777954   -0.066261
     12          7           0       -2.145415    1.693281    0.973078
     13         16           0       -0.284213    1.550512    1.223601
     14          7           0        0.266588    0.393898    0.169769
     15          1           0        1.003114    2.237856   -2.661839
     16          1           0        0.905007    2.916600   -1.028685
     17          1           0       -0.535107    2.244847   -1.797372
     18          1           0        0.556858   -0.019772   -1.844443
     19          1           0        2.817801    1.488691   -0.456964
     20          1           0        2.846968    0.771608   -2.060446
     21          1           0        4.141078   -0.605482   -0.609703
     22          1           0        2.706731   -1.529748   -1.010129
     23          1           0        2.872832    0.141517    1.543302
     24          1           0        3.559044   -1.467194    1.495130
     25          1           0        1.143510   -1.202553    2.413307
     26          1           0        1.479794   -2.554303    1.347346
     27          1           0       -0.307996   -2.979049    0.101902
     28          1           0       -3.059512   -0.875285    1.063656
     29          1           0       -2.023243    1.106338   -1.037911
     30          1           0       -2.508448    1.284187    1.833816
 ---------------------------------------------------------------------

 SCF Done:  E(RB3LYP) =  -1296.51642887     A.U. after    1 cycles

 The electronic state is 1-A.
 Alpha  occ. eigenvalues --  -88.91859 -88.88339 -14.36555 -14.34499 -10.22992
 Alpha  occ. eigenvalues --  -10.22729 -10.22112 -10.21067 -10.19992 -10.19161
 Alpha  occ. eigenvalues --  -10.18569 -10.18534 -10.18514 -10.17945  -7.97341
 Alpha  occ. eigenvalues --   -7.94396  -5.93970  -5.93621  -5.92728  -5.90893
 Alpha  occ. eigenvalues --   -5.90542  -5.89969  -0.95478  -0.90588  -0.82187
 Alpha  occ. eigenvalues --   -0.80524  -0.79107  -0.74131  -0.71687  -0.70413
 Alpha  occ. eigenvalues --   -0.65201  -0.64384  -0.60089  -0.57661  -0.56937
 Alpha  occ. eigenvalues --   -0.53494  -0.49104  -0.48105  -0.47804  -0.46020
 Alpha  occ. eigenvalues --   -0.45580  -0.43506  -0.43097  -0.41804  -0.40752
 Alpha  occ. eigenvalues --   -0.40263  -0.39575  -0.38215  -0.36853  -0.36008
 Alpha  occ. eigenvalues --   -0.35087  -0.34482  -0.33421  -0.33036  -0.32361
 Alpha  occ. eigenvalues --   -0.31893  -0.28186  -0.24689  -0.24161  -0.22892
 Alpha  occ. eigenvalues --   -0.20286
 Alpha virt. eigenvalues --   -0.04528  -0.00294   0.03066   0.04217   0.05533
 Alpha virt. eigenvalues --    0.08195   0.09271   0.09754   0.10131   0.11694
 Alpha virt. eigenvalues --    0.12304   0.13183   0.13739   0.14251   0.14892

 Mulliken charges:
               1
     1  C   -0.417705
     2  C    0.028743
     3  C   -0.162448
     4  C   -0.217176
     5  C   -0.193736
     6  C   -0.267958
     7  C    0.268398
     8  C   -0.159145
     9  S   -0.172812
    10  C   -0.130307
    11  C    0.039913
    12  N   -0.393006
    13  S   -0.028250
    14  N   -0.101085
    15  H    0.117510
    16  H    0.140896
    17  H    0.131891
    18  H    0.107642
    19  H    0.099801
    20  H    0.096074
    21  H    0.096207
    22  H    0.099082
    23  H    0.105491
    24  H    0.097491
    25  H    0.120016
    26  H    0.105315
    27  H    0.115230
    28  H    0.107285
    29  H    0.126089
    30  H    0.240554
 Sum of Mulliken charges =  -0.00000

 Dipole moment (field-independent basis, Debye):
    X=              2.2188    Y=             -0.7131    Z=              0.4993  Tot=              2.3835
 Quadrupole moment (field-independent basis, Debye-Ang):
   XX=            -98.7868   YY=           -102.6501   ZZ=            -96.7373
   XY=             -1.2479   XZ=             -4.2281   YZ=             -4.4291

  Exact polarizability: 172.212   4.983 154.153   4.526   6.181 132.622
 Approx polarizability: 265.149  12.997 265.628  14.805  28.484 221.888

                      1                      2                      3
                      A                      A                      A
 Frequencies --     38.3979                76.4397               127.8606
 Red. masses --      3.3233                 5.2418                 3.4827
 Frc consts  --      0.0029                 0.0180                 0.0335
 IR Inten    --      0.1397                 0.3107                 3.2726

                      4                      5                      6
                      A                      A                      A
 Frequencies --    132.0456               153.4056               173.7172
 Red. masses --      2.8487                 3.0331                 3.3983
 Frc consts  --      0.0293                 0.0421                 0.0604
 IR Inten    --      0.9925                 1.7846                 1.1717

                      7                      8                      9
                      A                      A                      A
 Frequencies --    206.5542               229.2219               257.5949
 Red. masses --      1.9450                 1.7672                 3.8287
 Frc consts  --      0.0489                 0.0547                 0.1497
 IR Inten    --      2.0901                 2.2496                 0.0489

                     10                     11                     12
                      A                      A                      A
 Frequencies --    266.1217               289.1359               317.6852
 Red. masses --      4.0698                 2.0233                 3.4957
 Frc consts  --      0.1698                 0.0997                 0.2079
 IR Inten    --      6.2494                 0.2974                 1.4018

                     13                     14                     15
                      A                      A                      A
 Frequencies --    329.8389               341.2332               396.9424
 Red. masses --      3.1437                 3.5524                 6.7245
 Frc consts  --      0.2015                 0.2437                 0.6243
 IR Inten    --      0.3824                 1.9570                15.3445

                     16                     17                     18
                      A                      A                      A
 Frequencies --    408.4554               413.0943               459.6022
 Red. masses --      4.3698                 3.7680                 3.3676
 Frc consts  --      0.4295                 0.3788                 0.4191
 IR Inten    --      8.2712                 0.4463                 1.3138

                     19                     20                     21
                      A                      A                      A
 Frequencies --    493.8823               517.7383               524.3569
 Red. masses --      2.7106                 2.3985                 6.2148
 Frc consts  --      0.3896                 0.3788                 1.0068
 IR Inten    --      1.0873                 0.3997                24.0467

                     22                     23                     24
                      A                      A                      A
 Frequencies --    556.4056               593.8164               674.4019
 Red. masses --      4.3710                 4.3333                 3.1583
 Frc consts  --      0.7973                 0.9003                 0.8463
 IR Inten    --      5.4969                10.4397                 5.0343

                     25                     26                     27
                      A                      A                      A
 Frequencies --    748.5850               796.7044               809.5188
 Red. masses --      2.6439                 2.3834                 2.5896
 Frc consts  --      0.8729                 0.8913                 0.9999
 IR Inten    --      5.4016                 6.2720                17.9740

                     28                     29                     30
                      A                      A                      A
 Frequencies --    823.7918               839.8848               854.4669
 Red. masses --      1.8236                 2.1371                 2.1701
 Frc consts  --      0.7292                 0.8882                 0.9335
 IR Inten    --     19.1091                16.0269                18.1241

                     31                     32                     33
                      A                      A                      A
 Frequencies --    869.3188               916.7391               943.2962
 Red. masses --      1.8983                 1.4538                 2.2466
 Frc consts  --      0.8452                 0.7198                 1.1778
 IR Inten    --      8.7054                 1.8680                 0.6181

                     34                     35                     36
                      A                      A                      A
 Frequencies --    959.5651               973.9085               977.7853
 Red. masses --      2.2220                 2.8590                 1.4031
 Frc consts  --      1.2054                 1.5977                 0.7904
 IR Inten    --     34.1699                13.9439                27.8844

                     37                     38                     39
                      A                      A                      A
 Frequencies --   1005.3932              1027.0912              1041.3030
 Red. masses --      1.9648                 1.8677                 1.2788
 Frc consts  --      1.1702                 1.1608                 0.8170
 IR Inten    --      2.4326                 8.7894                59.5404

                     40                     41                     42
                      A                      A                      A
 Frequencies --   1083.0713              1099.4053              1122.9544
 Red. masses --      2.9841                 2.2274                 1.7250
 Frc consts  --      2.0624                 1.5862                 1.2817
 IR Inten    --     27.5738                 6.9861                 6.2146

                     43                     44                     45
                      A                      A                      A
 Frequencies --   1129.8023              1151.9095              1172.8369
 Red. masses --      3.1769                 2.5022                 2.5445
 Frc consts  --      2.3892                 1.9562                 2.0622
 IR Inten    --     35.5131                27.0151                34.8931

                     46                     47                     48
                      A                      A                      A
 Frequencies --   1198.6690              1211.3097              1230.4223
 Red. masses --      1.4718                 1.1167                 1.2330
 Frc consts  --      1.2459                 0.9654                 1.0998
 IR Inten    --      0.1764                 6.3965                 4.9008

                     49                     50                     51
                      A                      A                      A
 Frequencies --   1264.3111              1295.7879              1319.3872
 Red. masses --      1.2919                 1.2116                 1.4674
 Frc consts  --      1.2167                 1.1986                 1.5050
 IR Inten    --      0.9162                 0.3379                 0.8990

                     52                     53                     54
                      A                      A                      A
 Frequencies --   1330.3567              1333.5885              1364.0904
 Red. masses --      1.2551                 1.2663                 1.3051
 Frc consts  --      1.3088                 1.3268                 1.4308
 IR Inten    --     13.3267                 7.4498                 3.0174

                     55                     56                     57
                      A                      A                      A
 Frequencies --   1368.5187              1375.7194              1385.2592
 Red. masses --      1.2170                 1.3510                 1.2946
 Frc consts  --      1.3429                 1.5065                 1.4637
 IR Inten    --     12.4261                 4.0271                 4.4153

                     58                     59                     60
                      A                      A                      A
 Frequencies --   1388.1010              1395.5148              1415.9192
 Red. masses --      1.2978                 1.4914                 1.2271
 Frc consts  --      1.4733                 1.7112                 1.4494
 IR Inten    --      7.4604                 2.0067                12.0883

                     61                     62                     63
                      A                      A                      A
 Frequencies --   1467.8425              1473.8136              1487.2929
 Red. masses --      1.0811                 1.0888                 1.0864
 Frc consts  --      1.3724                 1.3934                 1.4159
 IR Inten    --      3.4377                 3.4073                 5.4201

                     64                     65                     66
                      A                      A                      A
 Frequencies --   1488.9866              1493.9083              1496.6527
 Red. masses --      1.0510                 1.0567                 1.0839
 Frc consts  --      1.3729                 1.3895                 1.4305
 IR Inten    --      4.2845                 4.2569                 4.1685

                     67                     68                     69
                      A                      A                      A
 Frequencies --   1618.7442              1647.3290              3007.3507
 Red. masses --      7.8001                 5.6586                 1.0627
 Frc consts  --     12.0422                 9.0473                 5.6628
 IR Inten    --      2.8185                57.5875                16.7207

                     70                     71                     72
                      A                      A                      A
 Frequencies --   3008.8867              3020.5133              3033.0165
 Red. masses --      1.0662                 1.0632                 1.0825
 Frc consts  --      5.6875                 5.7152                 5.8673
 IR Inten    --     13.4218                16.9611                 6.9287

                     73                     74                     75
                      A                      A                      A
 Frequencies --   3034.0995              3052.5996              3056.6989
 Red. masses --      1.0643                 1.0566                 1.0813
 Frc consts  --      5.7728                 5.8010                 5.9528
 IR Inten    --     21.3106                 9.9589                27.0861

                     76                     77                     78
                      A                      A                      A
 Frequencies --   3059.5973              3063.6379              3078.9346
 Red. masses --      1.0925                 1.0996                 1.0998
 Frc consts  --      6.0254                 6.0807                 6.1427
 IR Inten    --     20.0572                55.4998                50.8041

                     79                     80                     81
                      A                      A                      A
 Frequencies --   3121.0214              3140.2514              3151.0539
 Red. masses --      1.0984                 1.1009                 1.0904
 Frc consts  --      6.3040                 6.3965                 6.3790
 IR Inten    --     21.1759                15.9745                13.5615

                     82                     83                     84
                      A                      A                      A
 Frequencies --   3158.6180              3207.7577              3463.1145
 Red. masses --      1.0887                 1.0878                 1.0740
 Frc consts  --      6.3995                 6.5948                 7.5894
 IR Inten    --     14.2598                 6.8044                 3.0510

 - Thermochemistry -
 -------------------
 Temperature   298.150 Kelvin.  Pressure   1.00000 Atm.
 Atom     1 has atomic number  6 and mass  12.00000

 Molecular mass:   228.07549 amu.
 Principal axes and moments of inertia in atomic units:
                           1         2         3
     Eigenvalues --  2387.831023573.988224292.76095
           X            0.99956  -0.02691  -0.01222
           Y            0.02546   0.99401  -0.10632
           Z            0.01500   0.10596   0.99426
 This molecule is an asymmetric top.
 Rotational symmetry number  1.
 Warning -- assumption of classical behavior for rotation
           may cause significant error
 Rotational temperatures (Kelvin)      0.03627     0.02423     0.02018
 Rotational constants (GHZ):           0.75581     0.50497     0.42042
 Zero-point vibrational energy     658149.2 (Joules/Mol)
                                  157.30144 (Kcal/Mol)
 Warning -- explicit consideration of  23 degrees of freedom as
           vibrations may cause significant error
 Vibrational temperatures:     55.25   109.98   183.96   189.98   220.72
          (Kelvin)            249.94   297.19   329.80   370.62   382.89
                              416.00   457.08   474.56   490.96   571.11
                              587.68   594.35   661.27   710.59   744.91
                              754.43   800.54   854.37   970.31  1077.05
                             1146.28  1164.72  1185.25  1208.41  1229.39
                             1250.76  1318.98  1357.19  1380.60  1401.24
                             1406.82  1446.54  1477.76  1498.20  1558.30
                             1581.80  1615.68  1625.53  1657.34  1687.45
                             1724.62  1742.80  1770.30  1819.06  1864.35
                             1898.30  1914.09  1918.74  1962.62  1968.99
                             1979.35  1993.08  1997.17  2007.83  2037.19
                             2111.90  2120.49  2139.88  2142.32  2149.40
                             2153.35  2329.01  2370.14  4326.91  4329.12
                             4345.85  4363.83  4365.39  4392.01  4397.91
                             4402.08  4407.89  4429.90  4490.45  4518.12
                             4533.66  4544.55  4615.25  4982.65

 Zero-point correction=                           0.250676 (Hartree/Particle)
 Thermal correction to Energy=                    0.264792
 Thermal correction to Enthalpy=                  0.265736
 Thermal correction to Gibbs Free Energy=         0.210286
 Sum of electronic and zero-point Energies=          -1296.265753
 Sum of electronic and thermal Energies=             -1296.251637
 Sum of electronic and thermal Enthalpies=           -1296.250693
 Sum of electronic and thermal Free Energies=        -1296.306143

                     E (Thermal)             CV                S
                      KCal/Mol        Cal/Mol-Kelvin    Cal/Mol-Kelvin
 Total                  166.159             55.375            116.704
 Electronic               0.000              0.000              0.000
 Translational            0.889              2.981             42.176
 Rotational               0.889              2.981             31.972
 Vibrational            164.382             49.413             42.557
 Vibration     1          0.594              1.982              5.340
 Vibration     2          0.599              1.965              3.980
 Vibration     3          0.611              1.925              2.978
 Vibration     4          0.612              1.921              2.916
 Vibration     5          0.619              1.899              2.630
 Vibration     6          0.627              1.875              2.395
 Vibration     7          0.641              1.831              2.074
 Vibration     8          0.652              1.796              1.885
 Vibration     9          0.667              1.750              1.678
 Vibration    10          0.672              1.735              1.621
 Vibration    11          0.686              1.694              1.479
 Vibration    12          0.704              1.640              1.322
 Vibration    13          0.713              1.616              1.261
 Vibration    14          0.721              1.593              1.206
 Vibration    15          0.763              1.477              0.974
 Vibration    16          0.773              1.452              0.932
 Vibration    17          0.777              1.442              0.916
 Vibration    18          0.818              1.340              0.767
 Vibration    19          0.850              1.264              0.674
 Vibration    20          0.873              1.211              0.615
 Vibration    21          0.879              1.196              0.600
 Vibration    22          0.912              1.126              0.531
 Vibration    23          0.951              1.045              0.460

 Optimization completed.
    -- Stationary point found.
 Normal termination of Gaussian 16 at Sat May 27 22:07:06 2023.
