 Gaussian 16, Revision A.03,
 Gaussian 16:  ES64L-G16RevA.03 25-Dec-2016

 -----------------------------
 # opt freq b3lyp/6-31g(2df,p)
 -----------------------------

 -------------------
 Title Card Required
 -------------------
 Symbolic Z-matrix:
 Charge =  0 Multiplicity = 1

 SCF Done:  E(RB3LYP) =  -273.948431661     A.U. after   12 cycles
 SCF Done:  E(RB3LYP) =  -273.954685387     A.U. after   10 cycles
 SCF Done:  E(RB3LYP) =  -273.955454054     A.U. after   10 cycles
 SCF Done:  E(RB3LYP) =  -273.955562140     A.U. after    9 cycles
 SCF Done:  E(RB3LYP) =  -273.955580510     A.U. after    8 cycles
 SCF Done:  E(RB3LYP) =  -273.955584512     A.U. after    7 cycles
 SCF Done:  E(RB3LYP) =  -273.955585147     A.U. after    6 cycles
 Optimization completed.
    -- Stationary point found.
 Normal termination of Gaussian 16 at Sun May 28 01:53:44 2023.

 ----------------------------------------------------------------------
 #N Geom=AllCheck Guess=TCheck SCRF=Check GenChk RB3LYP/6-31G(2df,p) Fr
 eq
 ----------------------------------------------------------------------

 Structure from the checkpoint file:  "CC1CC2CC1C2.chk"
 -------------------
 Title Card Required
 -------------------
 Charge =  0 Multiplicity = 1

                         Standard orientation:
 ---------------------------------------------------------------------
 Center     Atomic      Atomic             Coordinates (Angstroms)
 Number     Number       Type             X           Y           Z
 ---------------------------------------------------------------------
      1          6           0        2.239034   -0.238649    0.112923
      2          6           0        0.898280    0.101648   -0.535217
      3          6           0        0.142643    1.323383    0.098271
      4          6           0       -1.206181    0.650433    0.422021
      5          6           0       -1.467134   -0.187693   -0.864014
      6          6           0       -0.212533   -0.963003   -0.367281
      7          6           0       -0.749920   -0.688422    1.068745
      8          1           0        2.948007    0.589625    0.005177
      9          1           0        2.690153   -1.123239   -0.350615
     10          1           0        2.133781   -0.441830    1.183973
     11          1           0        1.068892    0.278310   -1.603860
     12          1           0        0.037763    2.161896   -0.596709
     13          1           0        0.644241    1.695384    0.998070
     14          1           0       -1.981016    1.272421    0.872221
     15          1           0       -1.408688    0.319041   -1.832980
     16          1           0       -2.383550   -0.779675   -0.803095
     17          1           0        0.015753   -1.972421   -0.713904
     18          1           0       -0.040888   -0.648126    1.900696
     19          1           0       -1.589587   -1.337567    1.328342
 ---------------------------------------------------------------------

 SCF Done:  E(RB3LYP) =  -273.955585147     A.U. after    1 cycles

 The electronic state is 1-A.
 Alpha  occ. eigenvalues --  -10.18331 -10.18169 -10.17954 -10.17461 -10.17438
 Alpha  occ. eigenvalues --  -10.17136 -10.16756  -0.88057  -0.74847  -0.69188
 Alpha  occ. eigenvalues --   -0.65419  -0.63658  -0.53850  -0.52555  -0.49490
 Alpha  occ. eigenvalues --   -0.46153  -0.44262  -0.39643  -0.39447  -0.36428
 Alpha  occ. eigenvalues --   -0.35614  -0.34041  -0.32230  -0.30320  -0.29997
 Alpha  occ. eigenvalues --   -0.29413  -0.29247
 Alpha virt. eigenvalues --    0.09164   0.11806   0.12388   0.13370   0.14278
 Alpha virt. eigenvalues --    0.15298   0.15998   0.16993   0.17530   0.18181
 Alpha virt. eigenvalues --    0.19258   0.19892   0.21276   0.21833   0.22672

 Mulliken charges:
               1
     1  C   -0.415491
     2  C    0.062626
     3  C   -0.225010
     4  C   -0.003748
     5  C   -0.223951
     6  C   -0.010239
     7  C   -0.220540
     8  H    0.111350
     9  H    0.108953
    10  H    0.113745
    11  H    0.063858
    12  H    0.090531
    13  H    0.090589
    14  H    0.053695
    15  H    0.082589
    16  H    0.091241
    17  H    0.051472
    18  H    0.085822
    19  H    0.092508
 Sum of Mulliken charges =   0.00000

 Dipole moment (field-independent basis, Debye):
    X=             -0.0337    Y=             -0.0142    Z=             -0.0508  Tot=              0.0626
 Quadrupole moment (field-independent basis, Debye-Ang):
   XX=            -44.9675   YY=            -44.7935   ZZ=            -44.7184
   XY=              0.3072   XZ=             -0.2158   YZ=             -0.0704

  Exact polarizability:  76.503   0.630  68.024   0.243  -0.458  66.522
 Approx polarizability: 101.390   0.596  99.701   0.242  -0.613 100.955

                      1                      2                      3
                      A                      A                      A
 Frequencies --    197.5205               223.5480               290.4057
 Red. masses --      2.1164                 1.1135                 2.2920
 Frc consts  --      0.0486                 0.0328                 0.1139
 IR Inten    --      0.0074                 0.0163                 0.0928

                      4                      5                      6
                      A                      A                      A
 Frequencies --    415.8067               473.6759               509.0493
 Red. masses --      1.7614                 2.5476                 1.8320
 Frc consts  --      0.1794                 0.3368                 0.2797
 IR Inten    --      0.1374                 0.3266                 0.1015

                      7                      8                      9
                      A                      A                      A
 Frequencies --    626.3655               790.3360               824.5281
 Red. masses --      3.0119                 2.5224                 3.5017
 Frc consts  --      0.6962                 0.9283                 1.4026
 IR Inten    --      0.1605                 0.2800                 1.8267

                     10                     11                     12
                      A                      A                      A
 Frequencies --    833.7791               851.2094               859.4905
 Red. masses --      2.4349                 2.1661                 2.2556
 Frc consts  --      0.9973                 0.9247                 0.9818
 IR Inten    --      0.2742                 0.5786                 0.7673

                     13                     14                     15
                      A                      A                      A
 Frequencies --    918.6311               928.0075               955.1053
 Red. masses --      1.3829                 1.9399                 2.1985
 Frc consts  --      0.6876                 0.9843                 1.1816
 IR Inten    --      0.2743                 0.5685                 1.1766

                     16                     17                     18
                      A                      A                      A
 Frequencies --    983.9666              1008.7354              1030.2794
 Red. masses --      1.3676                 1.1195                 1.9723
 Frc consts  --      0.7801                 0.6711                 1.2335
 IR Inten    --      0.1722                 0.7036                 0.5168

                     19                     20                     21
                      A                      A                      A
 Frequencies --   1055.5566              1068.3983              1081.9321
 Red. masses --      1.8766                 1.5365                 1.1220
 Frc consts  --      1.2320                 1.0334                 0.7738
 IR Inten    --      1.1162                 0.9644                 0.1528

                     22                     23                     24
                      A                      A                      A
 Frequencies --   1113.1197              1131.6225              1160.2663
 Red. masses --      1.3722                 1.4838                 1.8807
 Frc consts  --      1.0017                 1.1195                 1.4917
 IR Inten    --      1.7685                 0.1243                 0.1910

                     25                     26                     27
                      A                      A                      A
 Frequencies --   1200.1815              1226.3166              1242.8008
 Red. masses --      1.5268                 1.4403                 1.6256
 Frc consts  --      1.2958                 1.2762                 1.4793
 IR Inten    --      0.3231                 0.1021                 0.8407

                     28                     29                     30
                      A                      A                      A
 Frequencies --   1251.1574              1276.1265              1294.3311
 Red. masses --      1.5930                 1.5651                 1.5351
 Frc consts  --      1.4692                 1.5017                 1.5153
 IR Inten    --      3.9277                 0.1742                 0.3411

                     31                     32                     33
                      A                      A                      A
 Frequencies --   1317.3228              1336.3031              1380.2382
 Red. masses --      1.5392                 1.4856                 1.4640
 Frc consts  --      1.5737                 1.5631                 1.6433
 IR Inten    --      1.6895                 0.7362                 6.1334

                     34                     35                     36
                      A                      A                      A
 Frequencies --   1411.8239              1485.7940              1494.6313
 Red. masses --      1.2502                 1.0872                 1.0766
 Frc consts  --      1.4682                 1.4141                 1.4170
 IR Inten    --      2.5709                 0.1471                 2.1570

                     37                     38                     39
                      A                      A                      A
 Frequencies --   1499.6698              1500.6144              1526.1622
 Red. masses --      1.0575                 1.0626                 1.1212
 Frc consts  --      1.4012                 1.4098                 1.5387
 IR Inten    --      3.2367                 2.1210                 1.4140

                     40                     41                     42
                      A                      A                      A
 Frequencies --   3023.3257              3025.8680              3041.2343
 Red. masses --      1.0807                 1.0386                 1.0593
 Frc consts  --      5.8200                 5.6027                 5.7724
 IR Inten    --     18.3111                25.0831                50.0814

                     43                     44                     45
                      A                      A                      A
 Frequencies --   3043.2979              3053.8403              3084.5000
 Red. masses --      1.0590                 1.0578                 1.1048
 Frc consts  --      5.7788                 5.8125                 6.1932
 IR Inten    --     53.0332                20.4749                25.1025

                     46                     47                     48
                      A                      A                      A
 Frequencies --   3089.8491              3095.8889              3097.4809
 Red. masses --      1.1012                 1.0953                 1.0947
 Frc consts  --      6.1940                 6.1852                 6.1882
 IR Inten    --     15.6419                38.7526                91.8093

                     49                     50                     51
                      A                      A                      A
 Frequencies --   3102.5194              3107.8247              3113.9563
 Red. masses --      1.0943                 1.1063                 1.1029
 Frc consts  --      6.2063                 6.2954                 6.3012
 IR Inten    --     30.3883                29.2081                60.7478

 - Thermochemistry -
 -------------------
 Temperature   298.150 Kelvin.  Pressure   1.00000 Atm.
 Atom     1 has atomic number  6 and mass  12.00000

 Molecular mass:    96.09390 amu.
 Principal axes and moments of inertia in atomic units:
                           1         2         3
     Eigenvalues --   387.38572 726.31984 782.88778
           X            0.99995   0.00310   0.00959
           Y           -0.00273   0.99925  -0.03869
           Z           -0.00970   0.03866   0.99921
 This molecule is an asymmetric top.
 Rotational symmetry number  1.
 Rotational temperatures (Kelvin)      0.22359     0.11925     0.11063
 Rotational constants (GHZ):           4.65877     2.48477     2.30524
 Zero-point vibrational energy     458495.1 (Joules/Mol)
                                  109.58296 (Kcal/Mol)
 Warning -- explicit consideration of   6 degrees of freedom as
           vibrations may cause significant error
 Vibrational temperatures:    284.19   321.64   417.83   598.25   681.51
          (Kelvin)            732.41   901.20  1137.12  1186.31  1199.62
                             1224.70  1236.62  1321.71  1335.20  1374.18
                             1415.71  1451.35  1482.34  1518.71  1537.19
                             1556.66  1601.53  1628.15  1669.36  1726.79
                             1764.40  1788.11  1800.14  1836.06  1862.25
                             1895.33  1922.64  1985.85  2031.30  2137.73
                             2150.44  2157.69  2159.05  2195.81  4349.89
                             4353.55  4375.66  4378.63  4393.80  4437.91
                             4445.60  4454.29  4456.58  4463.83  4471.47
                             4480.29

 Zero-point correction=                           0.174632 (Hartree/Particle)
 Thermal correction to Energy=                    0.180781
 Thermal correction to Enthalpy=                  0.181725
 Thermal correction to Gibbs Free Energy=         0.145137
 Sum of electronic and zero-point Energies=           -273.780954
 Sum of electronic and thermal Energies=              -273.774804
 Sum of electronic and thermal Enthalpies=            -273.773860
 Sum of electronic and thermal Free Energies=         -273.810448

                     E (Thermal)             CV                S
                      KCal/Mol        Cal/Mol-Kelvin    Cal/Mol-Kelvin
 Total                  113.442             25.326             77.006
 Electronic               0.000              0.000              0.000
 Translational            0.889              2.981             39.599
 Rotational               0.889              2.981             26.890
 Vibrational            111.664             19.365             10.516
 Vibration     1          0.637              1.843              2.156
 Vibration     2          0.649              1.805              1.930
 Vibration     3          0.686              1.692              1.472
 Vibration     4          0.779              1.436              0.906
 Vibration     5          0.830              1.308              0.727
 Vibration     6          0.864              1.230              0.636

 Optimization completed.
    -- Stationary point found.
 Normal termination of Gaussian 16 at Sun May 28 02:26:03 2023.
