 Gaussian 16, Revision A.03,
 Gaussian 16:  ES64L-G16RevA.03 25-Dec-2016

 -----------------------------
 # opt freq b3lyp/6-31g(2df,p)
 -----------------------------

 -------------------
 Title Card Required
 -------------------
 Symbolic Z-matrix:
 Charge =  0 Multiplicity = 1

 SCF Done:  E(RB3LYP) =  -562.195499930     A.U. after   19 cycles
 SCF Done:  E(RB3LYP) =  -562.284811814     A.U. after   16 cycles
 SCF Done:  E(RB3LYP) =  -562.327057034     A.U. after   16 cycles
 SCF Done:  E(RB3LYP) =  -562.422933998     A.U. after   14 cycles
 SCF Done:  E(RB3LYP) =  -562.387969331     A.U. after   15 cycles
 SCF Done:  E(RB3LYP) =  -562.479591192     A.U. after   13 cycles
 SCF Done:  E(RB3LYP) =  -562.528824763     A.U. after   13 cycles
 SCF Done:  E(RB3LYP) =  -562.590179467     A.U. after   13 cycles
 SCF Done:  E(RB3LYP) =  -562.609572952     A.U. after   13 cycles
 SCF Done:  E(RB3LYP) =  -562.628225078     A.U. after   13 cycles
 SCF Done:  E(RB3LYP) =  -562.696099975     A.U. after   11 cycles
 SCF Done:  E(RB3LYP) =  -562.696659829     A.U. after   10 cycles
 SCF Done:  E(RB3LYP) =  -562.696701762     A.U. after    9 cycles
 SCF Done:  E(RB3LYP) =  -562.696732351     A.U. after    9 cycles
 SCF Done:  E(RB3LYP) =  -562.696741659     A.U. after    8 cycles
 SCF Done:  E(RB3LYP) =  -562.696745150     A.U. after    8 cycles
 SCF Done:  E(RB3LYP) =  -562.696746089     A.U. after    8 cycles
 SCF Done:  E(RB3LYP) =  -562.696746826     A.U. after    7 cycles
 SCF Done:  E(RB3LYP) =  -562.696747147     A.U. after    7 cycles
 Optimization completed.
    -- Stationary point found.
 Normal termination of Gaussian 16 at Sun May 28 07:32:49 2023.

 ----------------------------------------------------------------------
 #N Geom=AllCheck Guess=TCheck SCRF=Check GenChk RB3LYP/6-31G(2df,p) Fr
 eq
 ----------------------------------------------------------------------

 Structure from the checkpoint file:  "CC1CdCCCCC2CCdC1NqCrC2.chk"
 -------------------
 Title Card Required
 -------------------
 Charge =  0 Multiplicity = 1

                         Standard orientation:
 ---------------------------------------------------------------------
 Center     Atomic      Atomic             Coordinates (Angstroms)
 Number     Number       Type             X           Y           Z
 ---------------------------------------------------------------------
      1          6           0        0.000601   -3.290979    0.427768
      2          6           0       -0.504867   -2.044220   -0.297016
      3          6           0       -1.745534   -1.416686    0.312577
      4          6           0       -2.580588   -0.591756   -0.324044
      5          6           0       -3.178131    0.637941    0.301227
      6          6           0       -2.302660    1.898926   -0.019900
      7          6           0       -0.859105    1.922013    0.569311
      8          6           0        0.330723    1.616656   -0.393170
      9          6           0        0.151196    0.313441   -1.158796
     10          6           0        0.464783   -0.824601   -0.162432
     11          6           0        1.968792   -0.946930   -0.178449
     12          7           0        2.466330    0.248622    0.082849
     13          6           0        3.915524    0.435471    0.138177
     14          6           0        1.682630    1.496424    0.391708
     15          1           0       -0.698970   -4.125431    0.316455
     16          1           0        0.120536   -3.096513    1.500680
     17          1           0        0.977539   -3.588679    0.039094
     18          1           0       -0.663495   -2.269657   -1.358750
     19          1           0       -1.707912   -1.358406    1.403546
     20          1           0       -2.643884   -0.639852   -1.411518
     21          1           0       -3.237609    0.520290    1.390251
     22          1           0       -4.194554    0.838214   -0.059778
     23          1           0       -2.846149    2.767665    0.368921
     24          1           0       -2.267815    2.037611   -1.107940
     25          1           0       -0.820537    1.231407    1.419786
     26          1           0       -0.677063    2.915485    0.996788
     27          1           0        0.411410    2.453857   -1.096714
     28          1           0        0.854651    0.253597   -1.997371
     29          1           0       -0.846001    0.243875   -1.583356
     30          1           0        0.241840   -0.449598    0.849632
     31          1           0        4.380375   -0.531037   -0.049811
     32          1           0        4.220917    0.808298    1.123621
     33          1           0        4.242245    1.160517   -0.617198
     34          1           0        2.335086    2.346928    0.179644
     35          1           0        1.494907    1.506890    1.472314
 ---------------------------------------------------------------------

 SCF Done:  E(RB3LYP) =  -562.696747147     A.U. after    1 cycles

 The electronic state is 1-A.
 Alpha  occ. eigenvalues --  -14.37027 -10.22049 -10.20884 -10.19486 -10.18596
 Alpha  occ. eigenvalues --  -10.18438 -10.18399 -10.18038 -10.17211 -10.17066
 Alpha  occ. eigenvalues --  -10.17063 -10.16971 -10.16814 -10.15684  -0.95175
 Alpha  occ. eigenvalues --   -0.83259  -0.79610  -0.78640  -0.73470  -0.72163
 Alpha  occ. eigenvalues --   -0.69981  -0.67064  -0.64249  -0.60779  -0.57353
 Alpha  occ. eigenvalues --   -0.56131  -0.54589  -0.51179  -0.49000  -0.47999
 Alpha  occ. eigenvalues --   -0.45571  -0.45053  -0.44663  -0.42493  -0.42061
 Alpha  occ. eigenvalues --   -0.40970  -0.40128  -0.39340  -0.38486  -0.38102
 Alpha  occ. eigenvalues --   -0.37705  -0.35971  -0.35452  -0.34315  -0.33904
 Alpha  occ. eigenvalues --   -0.32684  -0.32145  -0.31421  -0.30896  -0.29299
 Alpha  occ. eigenvalues --   -0.27569  -0.22690  -0.17739
 Alpha virt. eigenvalues --    0.00989   0.02166   0.08120   0.08592   0.09825
 Alpha virt. eigenvalues --    0.11381   0.11841   0.12329   0.13071   0.14296
 Alpha virt. eigenvalues --    0.14616   0.15359   0.15625   0.16171   0.16492

 Mulliken charges:
               1
     1  C   -0.404239
     2  C   -0.099748
     3  C   -0.050230
     4  C   -0.074847
     5  C   -0.238800
     6  C   -0.206660
     7  C   -0.187573
     8  C   -0.021997
     9  C   -0.213017
    10  C    0.091072
    11  C   -0.255065
    12  N    0.077927
    13  C   -0.313549
    14  C   -0.200284
    15  H    0.105132
    16  H    0.102558
    17  H    0.136150
    18  H    0.070982
    19  H    0.074942
    20  H    0.086379
    21  H    0.097162
    22  H    0.093919
    23  H    0.096470
    24  H    0.101530
    25  H    0.099936
    26  H    0.094329
    27  H    0.068943
    28  H    0.088829
    29  H    0.089764
    30  H    0.065764
    31  H    0.151068
    32  H    0.119390
    33  H    0.119715
    34  H    0.111499
    35  H    0.122546
 Sum of Mulliken charges =  -0.00000

 Dipole moment (field-independent basis, Debye):
    X=              0.1249    Y=              3.2816    Z=              0.4915  Tot=              3.3206
 Quadrupole moment (field-independent basis, Debye-Ang):
   XX=            -86.6538   YY=            -89.7190   ZZ=            -85.8426
   XY=              4.7257   XZ=              1.8642   YZ=             -0.0811

  Exact polarizability: 165.877  -4.550 151.025   2.869   0.251 112.119
 Approx polarizability: 218.985  -8.244 221.122   8.502  -2.293 193.735

                      1                      2                      3
                      A                      A                      A
 Frequencies --     83.3499               126.9783               145.0553
 Red. masses --      2.7721                 2.6399                 2.3800
 Frc consts  --      0.0113                 0.0251                 0.0295
 IR Inten    --      0.5301                 0.0419                 2.2798

                      4                      5                      6
                      A                      A                      A
 Frequencies --    179.4530               195.7488               209.0897
 Red. masses --      2.7477                 2.1731                 1.1902
 Frc consts  --      0.0521                 0.0491                 0.0307
 IR Inten    --      2.6916                 0.0202                 0.0093

                      7                      8                      9
                      A                      A                      A
 Frequencies --    225.0238               240.1061               265.1449
 Red. masses --      1.2653                 2.5096                 2.4470
 Frc consts  --      0.0377                 0.0852                 0.1014
 IR Inten    --      0.2826                 0.6081                 1.8390

                     10                     11                     12
                      A                      A                      A
 Frequencies --    283.5171               329.0413               334.2690
 Red. masses --      2.7077                 2.8065                 3.3173
 Frc consts  --      0.1282                 0.1790                 0.2184
 IR Inten    --      0.1140                 2.3070                 0.1665

                     13                     14                     15
                      A                      A                      A
 Frequencies --    369.1372               387.6618               412.1678
 Red. masses --      2.3191                 2.2245                 4.0709
 Frc consts  --      0.1862                 0.1970                 0.4075
 IR Inten    --      1.2949                 2.7171                 2.6069

                     16                     17                     18
                      A                      A                      A
 Frequencies --    442.8361               459.4638               470.4194
 Red. masses --      3.2203                 2.5176                 2.0508
 Frc consts  --      0.3721                 0.3131                 0.2674
 IR Inten    --      2.3126                 0.7858                 2.0395

                     19                     20                     21
                      A                      A                      A
 Frequencies --    504.5115               518.5025               545.8942
 Red. masses --      3.2790                 2.6790                 3.3352
 Frc consts  --      0.4917                 0.4243                 0.5856
 IR Inten    --      1.4666                 0.7721                 4.2965

                     22                     23                     24
                      A                      A                      A
 Frequencies --    583.0979               653.9394               745.4061
 Red. masses --      3.2507                 2.5579                 2.2758
 Frc consts  --      0.6512                 0.6445                 0.7450
 IR Inten    --      7.5370                 8.2595                 2.1908

                     25                     26                     27
                      A                      A                      A
 Frequencies --    816.0725               829.1942               837.7457
 Red. masses --      2.4197                 2.7706                 1.7541
 Frc consts  --      0.9494                 1.1224                 0.7253
 IR Inten    --      7.0059                 4.2088                 1.5084

                     28                     29                     30
                      A                      A                      A
 Frequencies --    869.8176               884.9976               899.6043
 Red. masses --      2.0519                 2.2274                 1.9354
 Frc consts  --      0.9147                 1.0279                 0.9228
 IR Inten    --      7.3472                 6.2682                 0.1059

                     31                     32                     33
                      A                      A                      A
 Frequencies --    914.9548               935.0349               953.2252
 Red. masses --      2.3076                 2.3200                 2.0996
 Frc consts  --      1.1382                 1.1951                 1.1240
 IR Inten    --      4.5318                 2.5538                 6.3908

                     34                     35                     36
                      A                      A                      A
 Frequencies --    972.3808              1006.1481              1026.4422
 Red. masses --      2.3230                 2.5761                 2.1919
 Frc consts  --      1.2941                 1.5365                 1.3607
 IR Inten    --      3.6004                 4.0512                 2.5429

                     37                     38                     39
                      A                      A                      A
 Frequencies --   1031.1128              1050.1616              1063.7274
 Red. masses --      2.7460                 1.2491                 1.9326
 Frc consts  --      1.7202                 0.8116                 1.2884
 IR Inten    --      1.0050                19.1724                10.0561

                     40                     41                     42
                      A                      A                      A
 Frequencies --   1071.1103              1080.4717              1099.0350
 Red. masses --      2.0592                 1.8233                 1.7721
 Frc consts  --      1.3919                 1.2541                 1.2611
 IR Inten    --      3.0107                 0.7871                 2.3233

                     43                     44                     45
                      A                      A                      A
 Frequencies --   1124.0899              1134.0835              1148.7282
 Red. masses --      2.0343                 1.6137                 1.5244
 Frc consts  --      1.5145                 1.2228                 1.1851
 IR Inten    --      4.4593                 1.8350                 0.2171

                     46                     47                     48
                      A                      A                      A
 Frequencies --   1155.1696              1182.0592              1188.0753
 Red. masses --      2.2745                 1.4328                 1.5613
 Frc consts  --      1.7882                 1.1796                 1.2984
 IR Inten    --      3.4202                 3.7503                 7.2203

                     49                     50                     51
                      A                      A                      A
 Frequencies --   1207.5966              1222.7521              1239.4334
 Red. masses --      1.7758                 1.3731                 1.2238
 Frc consts  --      1.5258                 1.2096                 1.1076
 IR Inten    --     11.1039                 3.3527                 4.9922

                     52                     53                     54
                      A                      A                      A
 Frequencies --   1252.5866              1262.9238              1284.3812
 Red. masses --      1.5945                 1.2698                 1.3366
 Frc consts  --      1.4740                 1.1933                 1.2991
 IR Inten    --      0.2037                 7.5367                 4.5415

                     55                     56                     57
                      A                      A                      A
 Frequencies --   1305.4404              1318.1440              1322.5570
 Red. masses --      1.2997                 1.2819                 1.2819
 Frc consts  --      1.3050                 1.3123                 1.3211
 IR Inten    --      6.9238                 0.1842                 2.7234

                     58                     59                     60
                      A                      A                      A
 Frequencies --   1334.5593              1339.7701              1357.3443
 Red. masses --      1.2647                 1.2466                 1.4185
 Frc consts  --      1.3272                 1.3184                 1.5397
 IR Inten    --      0.4221                 1.9634                 0.7399

                     61                     62                     63
                      A                      A                      A
 Frequencies --   1366.4055              1371.1109              1377.3542
 Red. masses --      1.4111                 1.3526                 1.3357
 Frc consts  --      1.5523                 1.4982                 1.4930
 IR Inten    --      4.1562                 0.7072                 4.2772

                     64                     65                     66
                      A                      A                      A
 Frequencies --   1379.6618              1407.3507              1423.6872
 Red. masses --      1.4347                 1.2467                 1.3299
 Frc consts  --      1.6090                 1.4548                 1.5882
 IR Inten    --      3.9672                 4.1179                11.0177

                     67                     68                     69
                      A                      A                      A
 Frequencies --   1436.9873              1472.1317              1480.9131
 Red. masses --      1.1647                 1.3738                 1.0867
 Frc consts  --      1.4170                 1.7541                 1.4041
 IR Inten    --      1.9239                14.2682                 2.2055

                     70                     71                     72
                      A                      A                      A
 Frequencies --   1485.3114              1487.3290              1489.1979
 Red. masses --      1.0775                 1.0894                 1.0864
 Frc consts  --      1.4006                 1.4199                 1.4195
 IR Inten    --      4.2664                 8.8060                 6.9254

                     73                     74                     75
                      A                      A                      A
 Frequencies --   1493.4461              1494.4336              1497.7608
 Red. masses --      1.0507                 1.0623                 1.0475
 Frc consts  --      1.3807                 1.3978                 1.3844
 IR Inten    --      2.9602                 3.7058                 4.4849

                     76                     77                     78
                      A                      A                      A
 Frequencies --   1508.1972              1535.0313              1706.7237
 Red. masses --      1.0823                 1.7579                 6.2565
 Frc consts  --      1.4505                 2.4405                10.7377
 IR Inten    --      9.0489                 8.9986                 2.2718

                     79                     80                     81
                      A                      A                      A
 Frequencies --   2948.2412              3015.7383              3015.9859
 Red. masses --      1.0777                 1.0387                 1.0606
 Frc consts  --      5.5193                 5.5656                 5.6843
 IR Inten    --     12.3011                62.3967                19.0000

                     82                     83                     84
                      A                      A                      A
 Frequencies --   3019.1694              3021.8123              3026.5009
 Red. masses --      1.0817                 1.0615                 1.0633
 Frc consts  --      5.8095                 5.7111                 5.7382
 IR Inten    --     20.2622                18.9897                15.7544

                     85                     86                     87
                      A                      A                      A
 Frequencies --   3026.6058              3032.2824              3033.0463
 Red. masses --      1.0452                 1.0746                 1.0671
 Frc consts  --      5.6411                 5.8214                 5.7838
 IR Inten    --     22.3592                 6.3303                53.0202

                     88                     89                     90
                      A                      A                      A
 Frequencies --   3039.6423              3055.9310              3064.2753
 Red. masses --      1.0769                 1.0998                 1.0988
 Frc consts  --      5.8621                 6.0512                 6.0788
 IR Inten    --     33.3302                24.1396                63.9075

                     91                     92                     93
                      A                      A                      A
 Frequencies --   3066.6452              3071.5962              3087.6172
 Red. masses --      1.1017                 1.1029                 1.0893
 Frc consts  --      6.1042                 6.1305                 6.1187
 IR Inten    --     34.8722                27.5451                11.6731

                     94                     95                     96
                      A                      A                      A
 Frequencies --   3091.6307              3092.1789              3115.2321
 Red. masses --      1.0975                 1.0960                 1.0877
 Frc consts  --      6.1806                 6.1745                 6.2196
 IR Inten    --     49.1913                37.0203                26.8523

                     97                     98                     99
                      A                      A                      A
 Frequencies --   3122.7962              3162.5811              3165.1368
 Red. masses --      1.1005                 1.0849                 1.0981
 Frc consts  --      6.3233                 6.3934                 6.4815
 IR Inten    --     14.8148                14.9662                 4.2598

 - Thermochemistry -
 -------------------
 Temperature   298.150 Kelvin.  Pressure   1.00000 Atm.
 Atom     1 has atomic number  6 and mass  12.00000

 Molecular mass:   191.16740 amu.
 Principal axes and moments of inertia in atomic units:
                           1         2         3
     Eigenvalues --  1883.775513017.637324484.09830
           X            0.99999  -0.00478   0.00206
           Y            0.00478   0.99999  -0.00242
           Z           -0.00205   0.00243   0.99999
 This molecule is an asymmetric top.
 Rotational symmetry number  1.
 Warning -- assumption of classical behavior for rotation
           may cause significant error
 Rotational temperatures (Kelvin)      0.04598     0.02870     0.01932
 Rotational constants (GHZ):           0.95804     0.59806     0.40248
 Zero-point vibrational energy     832113.0 (Joules/Mol)
                                  198.87977 (Kcal/Mol)
 Warning -- explicit consideration of  22 degrees of freedom as
           vibrations may cause significant error
 Vibrational temperatures:    119.92   182.69   208.70   258.19   281.64
          (Kelvin)            300.83   323.76   345.46   381.48   407.92
                              473.42   480.94   531.11   557.76   593.02
                              637.14   661.07   676.83   725.88   746.01
                              785.42   838.95   940.87  1072.47  1174.15
                             1193.03  1205.33  1251.47  1273.31  1294.33
                             1316.42  1345.31  1371.48  1399.04  1447.62
                             1476.82  1483.54  1510.95  1530.47  1541.09
                             1554.56  1581.27  1617.31  1631.69  1652.76
                             1662.03  1700.72  1709.38  1737.46  1759.27
                             1783.27  1802.19  1817.07  1847.94  1878.24
                             1896.52  1902.86  1920.13  1927.63  1952.92
                             1965.95  1972.72  1981.71  1985.03  2024.86
                             2048.37  2067.50  2118.07  2130.70  2137.03
                             2139.93  2142.62  2148.74  2150.16  2154.94
                             2169.96  2208.57  2455.59  4241.86  4338.97
                             4339.33  4343.91  4347.71  4354.46  4354.61
                             4362.78  4363.88  4373.37  4396.80  4408.81
                             4412.22  4419.34  4442.39  4448.17  4448.96
                             4482.12  4493.01  4550.25  4553.93

 Zero-point correction=                           0.316935 (Hartree/Particle)
 Thermal correction to Energy=                    0.330206
 Thermal correction to Enthalpy=                  0.331150
 Thermal correction to Gibbs Free Energy=         0.278906
 Sum of electronic and zero-point Energies=           -562.379812
 Sum of electronic and thermal Energies=              -562.366541
 Sum of electronic and thermal Enthalpies=            -562.365597
 Sum of electronic and thermal Free Energies=         -562.417841

                     E (Thermal)             CV                S
                      KCal/Mol        Cal/Mol-Kelvin    Cal/Mol-Kelvin
 Total                  207.207             54.978            109.957
 Electronic               0.000              0.000              0.000
 Translational            0.889              2.981             41.650
 Rotational               0.889              2.981             31.611
 Vibrational            205.430             49.016             36.697
 Vibration     1          0.600              1.961              3.810
 Vibration     2          0.611              1.926              2.991
 Vibration     3          0.616              1.908              2.736
 Vibration     4          0.629              1.868              2.334
 Vibration     5          0.636              1.846              2.173
 Vibration     6          0.642              1.827              2.052
 Vibration     7          0.650              1.803              1.918
 Vibration     8          0.657              1.779              1.802
 Vibration     9          0.671              1.737              1.628
 Vibration    10          0.682              1.704              1.512
 Vibration    11          0.712              1.617              1.265
 Vibration    12          0.716              1.607              1.239
 Vibration    13          0.741              1.536              1.083
 Vibration    14          0.756              1.497              1.009
 Vibration    15          0.776              1.444              0.919
 Vibration    16          0.802              1.377              0.818
 Vibration    17          0.817              1.340              0.768
 Vibration    18          0.827              1.316              0.736
 Vibration    19          0.860              1.240              0.647
 Vibration    20          0.874              1.209              0.613
 Vibration    21          0.901              1.149              0.553
 Vibration    22          0.940              1.068              0.480

 Optimization completed.
    -- Stationary point found.
 Normal termination of Gaussian 16 at Sun May 28 10:12:10 2023.
