 Gaussian 16, Revision A.03,
 Gaussian 16:  ES64L-G16RevA.03 25-Dec-2016

 -----------------------------
 # opt freq b3lyp/6-31g(2df,p)
 -----------------------------

 -------------------
 Title Card Required
 -------------------
 Symbolic Z-matrix:
 Charge =  0 Multiplicity = 1

 SCF Done:  E(RB3LYP) =  -894.160470480     A.U. after   14 cycles
 SCF Done:  E(RB3LYP) =  -894.183712603     A.U. after   12 cycles
 SCF Done:  E(RB3LYP) =  -894.196664741     A.U. after   12 cycles
 SCF Done:  E(RB3LYP) =  -894.202741149     A.U. after   12 cycles
 SCF Done:  E(RB3LYP) =  -894.205295124     A.U. after   13 cycles
 SCF Done:  E(RB3LYP) =  -894.205965452     A.U. after   13 cycles
 SCF Done:  E(RB3LYP) =  -894.208719915     A.U. after   12 cycles
 SCF Done:  E(RB3LYP) =  -894.209404546     A.U. after   13 cycles
 SCF Done:  E(RB3LYP) =  -894.210724884     A.U. after   11 cycles
 SCF Done:  E(RB3LYP) =  -894.211547286     A.U. after   13 cycles
 SCF Done:  E(RB3LYP) =  -894.220596491     A.U. after   10 cycles
 SCF Done:  E(RB3LYP) =  -894.220642978     A.U. after   11 cycles
 SCF Done:  E(RB3LYP) =  -894.220676297     A.U. after   10 cycles
 SCF Done:  E(RB3LYP) =  -894.220706017     A.U. after   11 cycles
 SCF Done:  E(RB3LYP) =  -894.220715963     A.U. after    9 cycles
 SCF Done:  E(RB3LYP) =  -894.220718028     A.U. after    8 cycles
 SCF Done:  E(RB3LYP) =  -894.220718399     A.U. after    8 cycles
 SCF Done:  E(RB3LYP) =  -894.220718448     A.U. after    7 cycles
 SCF Done:  E(RB3LYP) =  -894.220718442     A.U. after    6 cycles
 Optimization completed.
    -- Stationary point found.
 Normal termination of Gaussian 16 at Sat May 27 15:35:02 2023.

 ----------------------------------------------------------------------
 #N Geom=AllCheck Guess=TCheck SCRF=Check GenChk RB3LYP/6-31G(2df,p) Fr
 eq
 ----------------------------------------------------------------------

 Structure from the checkpoint file:  "CC1CCqNONrCCqCdOrNC1OCCNN.chk"
 -------------------
 Title Card Required
 -------------------
 Charge =  0 Multiplicity = 1

                         Standard orientation:
 ---------------------------------------------------------------------
 Center     Atomic      Atomic             Coordinates (Angstroms)
 Number     Number       Type             X           Y           Z
 ---------------------------------------------------------------------
      1          6           0        0.644797   -3.163034   -0.354599
      2          6           0       -0.179564   -1.867342   -0.341605
      3          6           0       -1.528281   -2.137025    0.353859
      4          6           0       -2.557220   -1.001782    0.524772
      5          7           0       -2.924716   -0.431339   -0.783519
      6          8           0       -4.304354   -0.066317   -0.781567
      7          7           0       -4.367336    1.358041   -0.569057
      8          6           0       -2.123925    0.095817    1.513685
      9          6           0       -1.042035    1.092607    0.999894
     10          6           0       -1.690993    2.317127    0.366184
     11          8           0       -1.404263    2.760502   -0.715411
     12          7           0       -0.030390    0.593578    0.101199
     13          6           0        0.579507   -0.694105    0.312997
     14          8           0        1.884927   -0.704161   -0.237412
     15          6           0        2.793969    0.182367    0.385843
     16          6           0        4.102616    0.130318   -0.392992
     17          7           0        5.110803    0.960813    0.255848
     18          7           0        6.391564    0.932245   -0.376064
     19          1           0        0.080371   -3.977487   -0.821489
     20          1           0        0.893124   -3.477152    0.666689
     21          1           0        1.578926   -3.026738   -0.899114
     22          1           0       -0.362301   -1.566201   -1.382762
     23          1           0       -1.325000   -2.533963    1.357587
     24          1           0       -2.024252   -2.954342   -0.186912
     25          1           0       -3.451964   -1.475263    0.955539
     26          1           0       -2.912574   -1.169802   -1.483719
     27          1           0       -5.354161    1.479029   -0.339754
     28          1           0       -4.237465    1.772682   -1.495767
     29          1           0       -1.756738   -0.400751    2.419021
     30          1           0       -3.005106    0.670938    1.819380
     31          1           0       -0.561966    1.502626    1.907693
     32          1           0       -2.444794    2.805611    1.017243
     33          1           0       -0.308650    0.746435   -0.861458
     34          1           0        0.642067   -0.860620    1.404419
     35          1           0        2.962908   -0.126679    1.433974
     36          1           0        2.396067    1.202744    0.399056
     37          1           0        3.932838    0.519931   -1.403716
     38          1           0        4.417951   -0.924879   -0.503610
     39          1           0        5.257229    0.641366    1.208125
     40          1           0        6.359115    1.595331   -1.145710
     41          1           0        6.561185    0.013935   -0.796679
 ---------------------------------------------------------------------

 SCF Done:  E(RB3LYP) =  -894.220718442     A.U. after    1 cycles

 The electronic state is 1-A.
 Alpha  occ. eigenvalues --  -19.19372 -19.13250 -19.12864 -14.36974 -14.36962
 Alpha  occ. eigenvalues --  -14.33028 -14.32695 -14.30475 -10.25984 -10.25268
 Alpha  occ. eigenvalues --  -10.21880 -10.21832 -10.21654 -10.19741 -10.19099
 Alpha  occ. eigenvalues --  -10.18848 -10.18663 -10.16943  -1.09003  -1.03793
 Alpha  occ. eigenvalues --   -1.03244  -0.94950  -0.90651  -0.89019  -0.81053
 Alpha  occ. eigenvalues --   -0.79562  -0.77782  -0.74289  -0.70286  -0.70203
 Alpha  occ. eigenvalues --   -0.66346  -0.64251  -0.60264  -0.58640  -0.57736
 Alpha  occ. eigenvalues --   -0.55359  -0.51919  -0.51085  -0.49976  -0.49811
 Alpha  occ. eigenvalues --   -0.49145  -0.48996  -0.46237  -0.45752  -0.45629
 Alpha  occ. eigenvalues --   -0.44750  -0.44233  -0.43621  -0.42603  -0.42126
 Alpha  occ. eigenvalues --   -0.41512  -0.40336  -0.38959  -0.38398  -0.38049
 Alpha  occ. eigenvalues --   -0.36695  -0.36345  -0.35566  -0.35189  -0.33991
 Alpha  occ. eigenvalues --   -0.33272  -0.32740  -0.31629  -0.30784  -0.25803
 Alpha  occ. eigenvalues --   -0.25327  -0.24455  -0.24228  -0.23521  -0.22583
 Alpha  occ. eigenvalues --   -0.21525
 Alpha virt. eigenvalues --   -0.00503   0.06277   0.08027   0.08439   0.08546
 Alpha virt. eigenvalues --    0.08956   0.10605   0.10813   0.11370   0.11661
 Alpha virt. eigenvalues --    0.12285   0.13671   0.13836   0.14585   0.14799

 Mulliken charges:
               1
     1  C   -0.395077
     2  C   -0.007358
     3  C   -0.244489
     4  C    0.067112
     5  N   -0.205415
     6  O   -0.276072
     7  N   -0.359004
     8  C   -0.250100
     9  C   -0.057695
    10  C    0.197640
    11  O   -0.277504
    12  N   -0.278815
    13  C    0.128345
    14  O   -0.258605
    15  C   -0.072043
    16  C   -0.134052
    17  N   -0.276052
    18  N   -0.466665
    19  H    0.101916
    20  H    0.107293
    21  H    0.134206
    22  H    0.076113
    23  H    0.101662
    24  H    0.095807
    25  H    0.077140
    26  H    0.238843
    27  H    0.249741
    28  H    0.253657
    29  H    0.096260
    30  H    0.111757
    31  H    0.092752
    32  H    0.079768
    33  H    0.235230
    34  H    0.054439
    35  H    0.069770
    36  H    0.122525
    37  H    0.108394
    38  H    0.077585
    39  H    0.227044
    40  H    0.240840
    41  H    0.213105
 Sum of Mulliken charges =  -0.00000

 Dipole moment (field-independent basis, Debye):
    X=             -2.9908    Y=             -2.5580    Z=              0.7993  Tot=              4.0158
 Quadrupole moment (field-independent basis, Debye-Ang):
   XX=           -106.5157   YY=           -113.3485   ZZ=           -102.2266
   XY=             -8.1192   XZ=             -4.1844   YZ=              1.5727

  Exact polarizability: 186.873  -8.186 156.139  -4.840  -1.084 132.239
 Approx polarizability: 223.932  -7.755 219.707  -7.895  -6.174 222.068

                      1                      2                      3
                      A                      A                      A
 Frequencies --     20.7705                35.0403                49.4630
 Red. masses --      4.9938                 3.3524                 2.8459
 Frc consts  --      0.0013                 0.0024                 0.0041
 IR Inten    --      0.2378                 1.0971                 1.4618

                      4                      5                      6
                      A                      A                      A
 Frequencies --     61.7970                75.0543                89.4933
 Red. masses --      3.0151                 3.4303                 4.3367
 Frc consts  --      0.0068                 0.0114                 0.0205
 IR Inten    --      1.1606                 0.9193                 3.4945

                      7                      8                      9
                      A                      A                      A
 Frequencies --    100.3884               108.9045               118.3408
 Red. masses --      4.0728                 3.9046                 3.7205
 Frc consts  --      0.0242                 0.0273                 0.0307
 IR Inten    --      4.8079                 2.6073                10.0946

                     10                     11                     12
                      A                      A                      A
 Frequencies --    137.4188               149.7031               164.4972
 Red. masses --      3.1190                 2.7156                 2.4236
 Frc consts  --      0.0347                 0.0359                 0.0386
 IR Inten    --      4.8178                 3.2708                14.1889

                     13                     14                     15
                      A                      A                      A
 Frequencies --    192.6792               203.8759               212.5423
 Red. masses --      2.0578                 2.5865                 1.5307
 Frc consts  --      0.0450                 0.0633                 0.0407
 IR Inten    --      9.0487                10.3424                 2.2996

                     16                     17                     18
                      A                      A                      A
 Frequencies --    234.1380               250.5240               286.8221
 Red. masses --      2.2243                 3.0996                 3.3005
 Frc consts  --      0.0718                 0.1146                 0.1600
 IR Inten    --      1.9606                 6.2344                 3.4062

                     19                     20                     21
                      A                      A                      A
 Frequencies --    307.7719               345.2838               355.4534
 Red. masses --      3.1430                 3.3586                 1.1868
 Frc consts  --      0.1754                 0.2359                 0.0883
 IR Inten    --      0.7090                 6.5302                29.4474

                     22                     23                     24
                      A                      A                      A
 Frequencies --    365.7258               367.6407               399.1858
 Red. masses --      3.2288                 3.3265                 2.2966
 Frc consts  --      0.2545                 0.2649                 0.2156
 IR Inten    --      3.5922                 1.9541                 4.4688

                     25                     26                     27
                      A                      A                      A
 Frequencies --    407.5009               436.9395               473.7492
 Red. masses --      3.6170                 2.7060                 3.7328
 Frc consts  --      0.3539                 0.3044                 0.4936
 IR Inten    --      2.0881                 2.1806                 9.7942

                     28                     29                     30
                      A                      A                      A
 Frequencies --    512.3689               532.8144               575.6570
 Red. masses --      3.1508                 3.4081                 3.4433
 Frc consts  --      0.4873                 0.5701                 0.6723
 IR Inten    --      5.6184                 1.4148                14.4248

                     31                     32                     33
                      A                      A                      A
 Frequencies --    605.8401               652.3679               685.6637
 Red. masses --      2.0353                 2.6527                 3.4153
 Frc consts  --      0.4402                 0.6652                 0.9460
 IR Inten    --     20.9186                56.1805                 6.6869

                     34                     35                     36
                      A                      A                      A
 Frequencies --    728.0828               795.9674               801.6988
 Red. masses --      3.1026                 2.7563                 1.5723
 Frc consts  --      0.9690                 1.0289                 0.5954
 IR Inten    --     30.9434                 1.8369                83.0849

                     37                     38                     39
                      A                      A                      A
 Frequencies --    834.0413               838.7636               840.8486
 Red. masses --      2.0788                 2.1692                 1.5762
 Frc consts  --      0.8520                 0.8991                 0.6566
 IR Inten    --     16.8945                21.5194                 1.8244

                     40                     41                     42
                      A                      A                      A
 Frequencies --    855.4542               899.3414               911.5267
 Red. masses --      1.6175                 2.3007                 2.0213
 Frc consts  --      0.6974                 1.0964                 0.9895
 IR Inten    --      5.4251                12.9826                24.3418

                     43                     44                     45
                      A                      A                      A
 Frequencies --    919.1677               948.9316               961.0071
 Red. masses --      3.3070                 2.0549                 1.4954
 Frc consts  --      1.6462                 1.0902                 0.8137
 IR Inten    --      0.4720                 2.8316                74.2234

                     46                     47                     48
                      A                      A                      A
 Frequencies --    989.8408              1012.6671              1031.7707
 Red. masses --      1.9912                 2.9821                 3.1568
 Frc consts  --      1.1495                 1.8018                 1.9800
 IR Inten    --      3.3521                40.4063                34.4218

                     49                     50                     51
                      A                      A                      A
 Frequencies --   1040.4823              1056.2998              1067.5965
 Red. masses --      2.4759                 2.2499                 1.7635
 Frc consts  --      1.5793                 1.4791                 1.1842
 IR Inten    --     10.6605                 1.6587                 1.0275

                     52                     53                     54
                      A                      A                      A
 Frequencies --   1087.7823              1104.6311              1112.3419
 Red. masses --      3.1493                 2.8216                 1.9320
 Frc consts  --      2.1956                 2.0285                 1.4084
 IR Inten    --      8.2770               101.8193                19.5784

                     55                     56                     57
                      A                      A                      A
 Frequencies --   1128.7338              1144.8643              1147.0795
 Red. masses --      2.9651                 2.9174                 3.2777
 Frc consts  --      2.2258                 2.2530                 2.5410
 IR Inten    --    106.9025                52.6409               125.1159

                     58                     59                     60
                      A                      A                      A
 Frequencies --   1169.0282              1184.2816              1194.9208
 Red. masses --      2.6477                 2.0867                 1.7861
 Frc consts  --      2.1319                 1.7244                 1.5026
 IR Inten    --     31.6595                11.5555                17.9739

                     61                     62                     63
                      A                      A                      A
 Frequencies --   1202.9070              1219.7504              1226.8649
 Red. masses --      1.3320                 1.5619                 1.8522
 Frc consts  --      1.1356                 1.3691                 1.6426
 IR Inten    --     47.6502                 1.1056                21.2951

                     64                     65                     66
                      A                      A                      A
 Frequencies --   1233.9306              1254.9529              1284.8288
 Red. masses --      1.3257                 1.2560                 1.4319
 Frc consts  --      1.1892                 1.1654                 1.3926
 IR Inten    --      4.0904                 4.5406                 8.3384

                     67                     68                     69
                      A                      A                      A
 Frequencies --   1288.2679              1310.6932              1317.9463
 Red. masses --      1.1286                 1.4052                 1.3113
 Frc consts  --      1.1036                 1.4223                 1.3420
 IR Inten    --      3.3753                 1.3905                 3.7409

                     70                     71                     72
                      A                      A                      A
 Frequencies --   1325.6570              1335.2089              1337.2892
 Red. masses --      1.2023                 1.2544                 1.2807
 Frc consts  --      1.2449                 1.3176                 1.3494
 IR Inten    --     29.5043                 8.6074                 4.3143

                     73                     74                     75
                      A                      A                      A
 Frequencies --   1340.3439              1351.3675              1371.4582
 Red. masses --      1.2989                 1.3544                 1.3332
 Frc consts  --      1.3748                 1.4573                 1.4775
 IR Inten    --      1.1523                 6.8040                 0.7115

                     76                     77                     78
                      A                      A                      A
 Frequencies --   1386.2840              1391.8702              1401.1167
 Red. masses --      1.3959                 1.3809                 1.3704
 Frc consts  --      1.5806                 1.5761                 1.5851
 IR Inten    --      4.0023                 0.6250                10.5283

                     79                     80                     81
                      A                      A                      A
 Frequencies --   1402.3101              1412.2018              1426.0357
 Red. masses --      1.3188                 1.2774                 1.2170
 Frc consts  --      1.5279                 1.5010                 1.4582
 IR Inten    --      5.2311                 8.2182                 7.6030

                     82                     83                     84
                      A                      A                      A
 Frequencies --   1438.9008              1473.5211              1484.3700
 Red. masses --      1.4737                 1.1003                 1.1000
 Frc consts  --      1.7978                 1.4075                 1.4280
 IR Inten    --      2.2976                 4.5779                10.7797

                     85                     86                     87
                      A                      A                      A
 Frequencies --   1491.5828              1499.7130              1504.0807
 Red. masses --      1.0667                 1.1122                 1.0641
 Frc consts  --      1.3982                 1.4739                 1.4184
 IR Inten    --      6.8331                 5.4302                12.0911

                     88                     89                     90
                      A                      A                      A
 Frequencies --   1508.1006              1510.2521              1519.2695
 Red. masses --      1.1513                 1.2725                 1.0831
 Frc consts  --      1.5428                 1.7100                 1.4729
 IR Inten    --     13.7270                59.5054                 6.9829

                     91                     92                     93
                      A                      A                      A
 Frequencies --   1530.8619              1627.7592              1683.9731
 Red. masses --      1.0873                 1.0680                 1.0639
 Frc consts  --      1.5013                 1.6672                 1.7776
 IR Inten    --      2.1622                16.5762                14.8146

                     94                     95                     96
                      A                      A                      A
 Frequencies --   1827.4908              2914.8829              2921.4168
 Red. masses --     10.1460                 1.0829                 1.0725
 Frc consts  --     19.9643                 5.4210                 5.3931
 IR Inten    --    142.8260                53.6913                65.0131

                     97                     98                     99
                      A                      A                      A
 Frequencies --   2930.0813              2935.1893              2938.6540
 Red. masses --      1.0791                 1.0787                 1.0755
 Frc consts  --      5.4584                 5.4755                 5.4722
 IR Inten    --      7.3502                64.7484                99.3100

                    100                    101                    102
                      A                      A                      A
 Frequencies --   2982.7084              3006.7287              3011.1495
 Red. masses --      1.0807                 1.0802                 1.0642
 Frc consts  --      5.6645                 5.7538                 5.6850
 IR Inten    --     16.9003                 6.8714                34.8150

                    103                    104                    105
                      A                      A                      A
 Frequencies --   3028.8537              3036.5284              3045.7246
 Red. masses --      1.0416                 1.0647                 1.0973
 Frc consts  --      5.6302                 5.7841                 5.9973
 IR Inten    --     41.0803                31.3757                38.9551

                    106                    107                    108
                      A                      A                      A
 Frequencies --   3050.5607              3069.8492              3071.8159
 Red. masses --      1.0847                 1.0909                 1.1025
 Frc consts  --      5.9475                 6.0571                 6.1293
 IR Inten    --     22.0297                30.3735                28.4298

                    109                    110                    111
                      A                      A                      A
 Frequencies --   3086.4388              3147.9874              3375.4011
 Red. masses --      1.1000                 1.0966                 1.0565
 Frc consts  --      6.1737                 6.4025                 7.0920
 IR Inten    --     42.1848                14.8759                20.9709

                    112                    113                    114
                      A                      A                      A
 Frequencies --   3397.5562              3488.0427              3502.9188
 Red. masses --      1.0508                 1.0748                 1.0759
 Frc consts  --      7.1466                 7.7046                 7.7779
 IR Inten    --      1.5533                 0.6311                 1.9198

                    115                    116                    117
                      A                      A                      A
 Frequencies --   3512.5864              3524.2349              3548.5512
 Red. masses --      1.0916                 1.0821                 1.0734
 Frc consts  --      7.9350                 7.9182                 7.9635
 IR Inten    --      1.9374                 0.0437                17.7033

 - Thermochemistry -
 -------------------
 Temperature   298.150 Kelvin.  Pressure   1.00000 Atm.
 Atom     1 has atomic number  6 and mass  12.00000

 Molecular mass:   261.18009 amu.
 Principal axes and moments of inertia in atomic units:
                           1         2         3
     Eigenvalues --  2528.945179301.09325**********
           X            0.99998  -0.00061  -0.00562
           Y            0.00065   0.99998   0.00668
           Z            0.00562  -0.00668   0.99996
 This molecule is an asymmetric top.
 Rotational symmetry number  1.
 Warning -- assumption of classical behavior for rotation
           may cause significant error
 Rotational temperatures (Kelvin)      0.03425     0.00931     0.00792
 Rotational constants (GHZ):           0.71363     0.19404     0.16494
 Zero-point vibrational energy     937702.3 (Joules/Mol)
                                  224.11624 (Kcal/Mol)
 Warning -- explicit consideration of  31 degrees of freedom as
           vibrations may cause significant error
 Vibrational temperatures:     29.88    50.42    71.17    88.91   107.99
          (Kelvin)            128.76   144.44   156.69   170.27   197.71
                              215.39   236.67   277.22   293.33   305.80
                              336.87   360.45   412.67   442.82   496.79
                              511.42   526.20   528.95   574.34   586.30
                              628.66   681.62   737.18   766.60   828.24
                              871.67   938.61   986.52  1047.55  1145.22
                             1153.47  1200.00  1206.79  1209.79  1230.81
                             1293.95  1311.48  1322.48  1365.30  1382.67
                             1424.16  1457.00  1484.49  1497.02  1519.78
                             1536.03  1565.08  1589.32  1600.41  1624.00
                             1647.20  1650.39  1681.97  1703.92  1719.22
                             1730.71  1754.95  1765.18  1775.35  1805.60
                             1848.58  1853.53  1885.80  1896.23  1907.32
                             1921.07  1924.06  1928.46  1944.32  1973.22
                             1994.55  2002.59  2015.89  2017.61  2031.84
                             2051.75  2070.26  2120.07  2135.68  2146.06
                             2157.75  2164.04  2169.82  2172.92  2185.89
                             2202.57  2341.98  2422.86  2629.35  4193.87
                             4203.27  4215.73  4223.08  4228.07  4291.45
                             4326.01  4332.37  4357.84  4368.89  4382.12
                             4389.08  4416.83  4419.66  4440.70  4529.25
                             4856.45  4888.33  5018.52  5039.92  5053.83
                             5070.59  5105.57

 Zero-point correction=                           0.357152 (Hartree/Particle)
 Thermal correction to Energy=                    0.377498
 Thermal correction to Enthalpy=                  0.378442
 Thermal correction to Gibbs Free Energy=         0.306882
 Sum of electronic and zero-point Energies=           -893.863566
 Sum of electronic and thermal Energies=              -893.843220
 Sum of electronic and thermal Enthalpies=            -893.842276
 Sum of electronic and thermal Free Energies=         -893.913837

                     E (Thermal)             CV                S
                      KCal/Mol        Cal/Mol-Kelvin    Cal/Mol-Kelvin
 Total                  236.884             74.708            150.611
 Electronic               0.000              0.000              0.000
 Translational            0.889              2.981             42.580
 Rotational               0.889              2.981             33.909
 Vibrational            235.106             68.747             74.123
 Vibration     1          0.593              1.986              6.559
 Vibration     2          0.594              1.982              5.521
 Vibration     3          0.595              1.978              4.839
 Vibration     4          0.597              1.973              4.399
 Vibration     5          0.599              1.966              4.016
 Vibration     6          0.602              1.957              3.671
 Vibration     7          0.604              1.949              3.447
 Vibration     8          0.606              1.942              3.288
 Vibration     9          0.609              1.934              3.127
 Vibration    10          0.614              1.916              2.840
 Vibration    11          0.618              1.903              2.676
 Vibration    12          0.623              1.886              2.497
 Vibration    13          0.635              1.850              2.202
 Vibration    14          0.640              1.834              2.098
 Vibration    15          0.644              1.822              2.022
 Vibration    16          0.654              1.789              1.847
 Vibration    17          0.663              1.762              1.727
 Vibration    18          0.684              1.698              1.493
 Vibration    19          0.698              1.659              1.374
 Vibration    20          0.724              1.585              1.188
 Vibration    21          0.731              1.564              1.142
 Vibration    22          0.739              1.543              1.098
 Vibration    23          0.740              1.539              1.090
 Vibration    24          0.765              1.472              0.966
 Vibration    25          0.772              1.454              0.935
 Vibration    26          0.797              1.390              0.836
 Vibration    27          0.831              1.308              0.727
 Vibration    28          0.867              1.223              0.628
 Vibration    29          0.888              1.177              0.581
 Vibration    30          0.932              1.084              0.493
 Vibration    31          0.964              1.019              0.440

                           ! Non-Optimized Parameters !
 Normal termination of Gaussian 16 at Sat May 27 20:50:24 2023.
