 Gaussian 16, Revision A.03,
 Gaussian 16:  ES64L-G16RevA.03 25-Dec-2016

 -----------------------------
 # opt freq b3lyp/6-31g(2df,p)
 -----------------------------

 -------------------
 Title Card Required
 -------------------
 Symbolic Z-matrix:
 Charge =  0 Multiplicity = 1

 SCF Done:  E(RB3LYP) =  -550.379580913     A.U. after   12 cycles
 SCF Done:  E(RB3LYP) =  -550.386957242     A.U. after   10 cycles
 SCF Done:  E(RB3LYP) =  -550.390231407     A.U. after   10 cycles
 SCF Done:  E(RB3LYP) =  -550.391720161     A.U. after   10 cycles
 SCF Done:  E(RB3LYP) =  -550.392422601     A.U. after    9 cycles
 SCF Done:  E(RB3LYP) =  -550.392682071     A.U. after    9 cycles
 SCF Done:  E(RB3LYP) =  -550.393156077     A.U. after    9 cycles
 SCF Done:  E(RB3LYP) =  -550.393124537     A.U. after    9 cycles
 SCF Done:  E(RB3LYP) =  -550.393400032     A.U. after    9 cycles
 SCF Done:  E(RB3LYP) =  -550.393456623     A.U. after    8 cycles
 SCF Done:  E(RB3LYP) =  -550.393458734     A.U. after    8 cycles
 SCF Done:  E(RB3LYP) =  -550.393458356     A.U. after    8 cycles
 SCF Done:  E(RB3LYP) =  -550.393463833     A.U. after    8 cycles
 SCF Done:  E(RB3LYP) =  -550.393464336     A.U. after    7 cycles
 SCF Done:  E(RB3LYP) =  -550.393464828     A.U. after    6 cycles
 SCF Done:  E(RB3LYP) =  -550.393464862     A.U. after    5 cycles
 Optimization completed.
    -- Stationary point found.
 Normal termination of Gaussian 16 at Tue May 23 11:56:16 2023.

 ----------------------------------------------------------------------
 #N Geom=AllCheck Guess=TCheck SCRF=Check GenChk RB3LYP/6-31G(2df,p) Fr
 eq
 ----------------------------------------------------------------------

 Structure from the checkpoint file:  "CC1CCCCCqCrCCCqCrCC1.chk"
 -------------------
 Title Card Required
 -------------------
 Charge =  0 Multiplicity = 1

                         Standard orientation:
 ---------------------------------------------------------------------
 Center     Atomic      Atomic             Coordinates (Angstroms)
 Number     Number       Type             X           Y           Z
 ---------------------------------------------------------------------
      1          6           0        1.354253   -3.367590    0.201596
      2          6           0        1.260973   -1.839302    0.301910
      3          6           0        2.569204   -1.168793   -0.179842
      4          6           0        2.705360    0.342858    0.128580
      5          6           0        2.079741    1.330137   -0.900410
      6          6           0        1.304224    2.542560   -0.335051
      7          6           0       -0.078601    2.351615    0.353168
      8          6           0        0.005476    1.641877    1.716277
      9          6           0       -1.163393    1.810685   -0.640701
     10          6           0       -2.347989    0.967304   -0.082396
     11          6           0       -2.423245   -0.543955   -0.437255
     12          6           0       -3.817650   -1.071752   -0.062629
     13          6           0       -1.335784   -1.436534    0.208884
     14          6           0        0.039814   -1.286429   -0.453732
     15          1           0        2.186995   -3.758430    0.796123
     16          1           0        1.512152   -3.680738   -0.837734
     17          1           0        0.437589   -3.849989    0.556398
     18          1           0        1.145289   -1.582961    1.366065
     19          1           0        2.692255   -1.340214   -1.259246
     20          1           0        3.406297   -1.691513    0.300108
     21          1           0        3.773676    0.574197    0.206901
     22          1           0        2.303296    0.528130    1.128313
     23          1           0        1.451803    0.789866   -1.614475
     24          1           0        2.891154    1.739930   -1.514152
     25          1           0        1.150650    3.240280   -1.169582
     26          1           0        1.956966    3.071716    0.372947
     27          1           0       -0.388142    3.376425    0.599737
     28          1           0        0.165686    0.565630    1.642446
     29          1           0       -0.908201    1.795385    2.298002
     30          1           0        0.829283    2.061224    2.304100
     31          1           0       -0.682855    1.250411   -1.447239
     32          1           0       -1.584009    2.689602   -1.141967
     33          1           0       -3.275112    1.412222   -0.461875
     34          1           0       -2.413877    1.066640    1.006739
     35          1           0       -2.318462   -0.631277   -1.529579
     36          1           0       -3.977798   -1.020504    1.021424
     37          1           0       -3.940567   -2.117007   -0.364521
     38          1           0       -4.611191   -0.488200   -0.541173
     39          1           0       -1.664388   -2.482378    0.161322
     40          1           0       -1.266987   -1.194658    1.278582
     41          1           0        0.205337   -0.229187   -0.608656
     42          1           0        0.008841   -1.730681   -1.459402
 ---------------------------------------------------------------------

 SCF Done:  E(RB3LYP) =  -550.393464862     A.U. after    1 cycles

 The electronic state is 1-A.
 Alpha  occ. eigenvalues --  -10.18276 -10.18004 -10.17753 -10.17364 -10.17243
 Alpha  occ. eigenvalues --  -10.17202 -10.17147 -10.17090 -10.17063 -10.16929
 Alpha  occ. eigenvalues --  -10.16612 -10.16582 -10.16524 -10.16311  -0.82072
 Alpha  occ. eigenvalues --   -0.79733  -0.79389  -0.74893  -0.72398  -0.69924
 Alpha  occ. eigenvalues --   -0.69462  -0.65116  -0.62651  -0.62078  -0.57414
 Alpha  occ. eigenvalues --   -0.55584  -0.54584  -0.53307  -0.48153  -0.45100
 Alpha  occ. eigenvalues --   -0.44699  -0.44199  -0.43307  -0.43175  -0.41914
 Alpha  occ. eigenvalues --   -0.40969  -0.39815  -0.39270  -0.38673  -0.37932
 Alpha  occ. eigenvalues --   -0.37494  -0.36490  -0.35631  -0.35347  -0.34700
 Alpha  occ. eigenvalues --   -0.34242  -0.33318  -0.32784  -0.31904  -0.31393
 Alpha  occ. eigenvalues --   -0.30868  -0.30153  -0.29972  -0.29093  -0.28373
 Alpha  occ. eigenvalues --   -0.27823
 Alpha virt. eigenvalues --    0.07683   0.08864   0.09478   0.09590   0.11535
 Alpha virt. eigenvalues --    0.11885   0.12564   0.13118   0.13469   0.14112
 Alpha virt. eigenvalues --    0.14368   0.15199   0.15703   0.16320   0.16855

 Mulliken charges:
               1
     1  C   -0.405101
     2  C    0.038962
     3  C   -0.198810
     4  C   -0.199899
     5  C   -0.182812
     6  C   -0.210873
     7  C    0.051583
     8  C   -0.410109
     9  C   -0.231017
    10  C   -0.182631
    11  C    0.028510
    12  C   -0.398202
    13  C   -0.196285
    14  C   -0.169162
    15  H    0.106979
    16  H    0.109624
    17  H    0.111858
    18  H    0.065394
    19  H    0.087194
    20  H    0.084826
    21  H    0.091155
    22  H    0.100108
    23  H    0.103795
    24  H    0.085519
    25  H    0.088632
    26  H    0.087906
    27  H    0.072649
    28  H    0.134878
    29  H    0.110062
    30  H    0.106583
    31  H    0.102528
    32  H    0.087694
    33  H    0.088843
    34  H    0.092430
    35  H    0.066883
    36  H    0.110894
    37  H    0.107211
    38  H    0.106207
    39  H    0.087057
    40  H    0.088713
    41  H    0.101228
    42  H    0.078997
 Sum of Mulliken charges =  -0.00000

 Dipole moment (field-independent basis, Debye):
    X=              0.0238    Y=              0.3234    Z=             -0.0496  Tot=              0.3281
 Quadrupole moment (field-independent basis, Debye-Ang):
   XX=            -93.5056   YY=            -93.2628   ZZ=            -92.6061
   XY=             -0.1382   XZ=              0.3315   YZ=              0.1880

  Exact polarizability: 165.099   0.947 158.343   0.128  -0.992 126.673
 Approx polarizability: 212.237   0.057 210.408   0.596   0.342 207.890

                      1                      2                      3
                      A                      A                      A
 Frequencies --     44.5462                69.5526                96.7324
 Red. masses --      2.5198                 2.4859                 2.5618
 Frc consts  --      0.0029                 0.0071                 0.0141
 IR Inten    --      0.0339                 0.0133                 0.0005

                      4                      5                      6
                      A                      A                      A
 Frequencies --    115.3296               152.0077               171.6206
 Red. masses --      2.6133                 2.4474                 2.6665
 Frc consts  --      0.0205                 0.0333                 0.0463
 IR Inten    --      0.0205                 0.0285                 0.0124

                      7                      8                      9
                      A                      A                      A
 Frequencies --    198.5795               217.4540               229.8386
 Red. masses --      2.5619                 1.5851                 1.1677
 Frc consts  --      0.0595                 0.0442                 0.0363
 IR Inten    --      0.0250                 0.1274                 0.0333

                     10                     11                     12
                      A                      A                      A
 Frequencies --    239.2112               244.5276               272.5007
 Red. masses --      2.5134                 1.2640                 2.4692
 Frc consts  --      0.0847                 0.0445                 0.1080
 IR Inten    --      0.0439                 0.0195                 0.2619

                     13                     14                     15
                      A                      A                      A
 Frequencies --    281.1099               284.6829               310.1119
 Red. masses --      1.9090                 2.3809                 2.1845
 Frc consts  --      0.0889                 0.1137                 0.1238
 IR Inten    --      0.0098                 0.4998                 0.0561

                     16                     17                     18
                      A                      A                      A
 Frequencies --    324.5193               329.4402               362.8848
 Red. masses --      1.5769                 1.7603                 2.1924
 Frc consts  --      0.0978                 0.1126                 0.1701
 IR Inten    --      0.0125                 0.0761                 0.1992

                     19                     20                     21
                      A                      A                      A
 Frequencies --    377.2837               413.8167               425.4531
 Red. masses --      1.8359                 2.1243                 2.2440
 Frc consts  --      0.1540                 0.2143                 0.2393
 IR Inten    --      0.1428                 0.0759                 0.0353

                     22                     23                     24
                      A                      A                      A
 Frequencies --    468.6826               485.8705               518.7110
 Red. masses --      2.3812                 2.1426                 2.4598
 Frc consts  --      0.3082                 0.2980                 0.3899
 IR Inten    --      1.1125                 0.0127                 0.1061

                     25                     26                     27
                      A                      A                      A
 Frequencies --    566.1573               687.4588               727.4452
 Red. masses --      2.2241                 2.1892                 1.9216
 Frc consts  --      0.4200                 0.6096                 0.5991
 IR Inten    --      1.1033                 0.6507                 1.9192

                     28                     29                     30
                      A                      A                      A
 Frequencies --    748.9456               793.6072               804.1433
 Red. masses --      1.4093                 1.8189                 1.9273
 Frc consts  --      0.4657                 0.6750                 0.7343
 IR Inten    --      2.5416                 1.5005                 0.3741

                     31                     32                     33
                      A                      A                      A
 Frequencies --    833.9020               876.9512               881.9831
 Red. masses --      2.1989                 1.8354                 1.6041
 Frc consts  --      0.9009                 0.8316                 0.7352
 IR Inten    --      0.8127                 0.6428                 0.7650

                     34                     35                     36
                      A                      A                      A
 Frequencies --    900.2978               911.0506               937.9913
 Red. masses --      1.7632                 1.7005                 1.9457
 Frc consts  --      0.8420                 0.8316                 1.0086
 IR Inten    --      0.3261                 0.9899                 0.7598

                     37                     38                     39
                      A                      A                      A
 Frequencies --    946.2917               953.3271               978.2571
 Red. masses --      1.5928                 1.5943                 1.7571
 Frc consts  --      0.8403                 0.8537                 0.9907
 IR Inten    --      2.4815                 0.4913                 1.0228

                     40                     41                     42
                      A                      A                      A
 Frequencies --    985.3358              1015.3561              1025.7458
 Red. masses --      2.0003                 1.8913                 2.6223
 Frc consts  --      1.1442                 1.1488                 1.6256
 IR Inten    --      0.2830                 0.5520                 0.4053

                     43                     44                     45
                      A                      A                      A
 Frequencies --   1037.3731              1058.0422              1061.1917
 Red. masses --      1.5550                 2.4470                 2.7197
 Frc consts  --      0.9860                 1.6140                 1.8045
 IR Inten    --      1.9416                 0.5210                 0.1645

                     46                     47                     48
                      A                      A                      A
 Frequencies --   1075.7784              1088.8793              1109.7633
 Red. masses --      2.0111                 2.0325                 1.7227
 Frc consts  --      1.3713                 1.4199                 1.2500
 IR Inten    --      3.6694                 0.6138                 1.0793

                     49                     50                     51
                      A                      A                      A
 Frequencies --   1125.8537              1135.1809              1144.4827
 Red. masses --      1.8947                 1.7235                 1.9677
 Frc consts  --      1.4150                 1.3086                 1.5185
 IR Inten    --      0.6564                 1.4234                 2.4262

                     52                     53                     54
                      A                      A                      A
 Frequencies --   1157.8001              1161.6559              1195.0242
 Red. masses --      1.7775                 2.1255                 1.5737
 Frc consts  --      1.4039                 1.6899                 1.3242
 IR Inten    --      1.0169                 0.1512                 3.5009

                     55                     56                     57
                      A                      A                      A
 Frequencies --   1220.3307              1229.7295              1252.4189
 Red. masses --      1.3541                 1.4571                 1.2491
 Frc consts  --      1.1881                 1.2983                 1.1544
 IR Inten    --      0.6646                 1.4856                 1.4001

                     58                     59                     60
                      A                      A                      A
 Frequencies --   1283.5655              1286.2568              1299.3629
 Red. masses --      1.2259                 1.2075                 1.2187
 Frc consts  --      1.1900                 1.1771                 1.2123
 IR Inten    --      0.8136                 0.8300                 0.6306

                     61                     62                     63
                      A                      A                      A
 Frequencies --   1310.0881              1326.2295              1331.8447
 Red. masses --      1.1853                 1.1586                 1.2591
 Frc consts  --      1.1986                 1.2006                 1.3159
 IR Inten    --      1.7296                 0.8740                 2.8826

                     64                     65                     66
                      A                      A                      A
 Frequencies --   1338.3271              1340.8761              1358.3478
 Red. masses --      1.2140                 1.2348                 1.2510
 Frc consts  --      1.2811                 1.3081                 1.3599
 IR Inten    --      1.3270                 4.4925                 3.9055

                     67                     68                     69
                      A                      A                      A
 Frequencies --   1363.1301              1371.2128              1374.7773
 Red. masses --      1.2758                 1.3449                 1.3401
 Frc consts  --      1.3967                 1.4898                 1.4923
 IR Inten    --      0.4090                 0.6667                 0.7435

                     70                     71                     72
                      A                      A                      A
 Frequencies --   1382.7233              1385.5981              1391.4131
 Red. masses --      1.3569                 1.4086                 1.3959
 Frc consts  --      1.5285                 1.5934                 1.5922
 IR Inten    --      1.4598                 0.1917                 0.3215

                     73                     74                     75
                      A                      A                      A
 Frequencies --   1392.7570              1398.2512              1401.9024
 Red. masses --      1.3243                 1.3401                 1.3089
 Frc consts  --      1.5135                 1.5437                 1.5156
 IR Inten    --      9.5981                 0.6057                 0.1016

                     76                     77                     78
                      A                      A                      A
 Frequencies --   1410.6797              1416.0886              1418.5972
 Red. masses --      1.2424                 1.2625                 1.2908
 Frc consts  --      1.4567                 1.4916                 1.5305
 IR Inten    --      3.3725                 2.6412                 6.7452

                     79                     80                     81
                      A                      A                      A
 Frequencies --   1475.0247              1478.8154              1482.8542
 Red. masses --      1.0736                 1.0851                 1.0796
 Frc consts  --      1.3763                 1.3982                 1.3986
 IR Inten    --      0.0726                 1.5154                 2.9525

                     82                     83                     84
                      A                      A                      A
 Frequencies --   1486.2035              1491.4795              1497.5328
 Red. masses --      1.0801                 1.0727                 1.0669
 Frc consts  --      1.4056                 1.4060                 1.4097
 IR Inten    --      4.5892                 3.1734                 0.5350

                     85                     86                     87
                      A                      A                      A
 Frequencies --   1499.0427              1499.4701              1500.2332
 Red. masses --      1.0454                 1.0478                 1.0578
 Frc consts  --      1.3841                 1.3880                 1.4028
 IR Inten    --      5.7829                 3.1811                 0.8798

                     88                     89                     90
                      A                      A                      A
 Frequencies --   1503.2371              1506.0610              1508.5446
 Red. masses --      1.0707                 1.0705                 1.0626
 Frc consts  --      1.4255                 1.4307                 1.4247
 IR Inten    --      7.7148                 6.5679                 1.2656

                     91                     92                     93
                      A                      A                      A
 Frequencies --   1517.6293              1520.8583              2981.8022
 Red. masses --      1.0699                 1.0700                 1.0796
 Frc consts  --      1.4518                 1.4582                 5.6555
 IR Inten    --      6.6574                 0.7265                12.7909

                     94                     95                     96
                      A                      A                      A
 Frequencies --   2984.7282              2988.0373              3000.8364
 Red. masses --      1.0818                 1.0782                 1.0660
 Frc consts  --      5.6780                 5.6718                 5.6556
 IR Inten    --      5.6695                 7.4979                12.6670

                     97                     98                     99
                      A                      A                      A
 Frequencies --   3005.3713              3006.4916              3011.7773
 Red. masses --      1.0672                 1.0664                 1.0645
 Frc consts  --      5.6790                 5.6794                 5.6892
 IR Inten    --     52.1776                 8.4455                38.8019

                    100                    101                    102
                      A                      A                      A
 Frequencies --   3021.0184              3022.7885              3023.8146
 Red. masses --      1.0464                 1.0395                 1.0711
 Frc consts  --      5.6267                 5.5961                 5.7703
 IR Inten    --      8.2327                30.0309                 5.1732

                    103                    104                    105
                      A                      A                      A
 Frequencies --   3025.7271              3033.8836              3037.9109
 Red. masses --      1.0628                 1.0898                 1.0791
 Frc consts  --      5.7328                 5.9098                 5.8674
 IR Inten    --     62.2136                10.0411                22.7218

                    106                    107                    108
                      A                      A                      A
 Frequencies --   3039.0482              3045.0209              3046.0855
 Red. masses --      1.0640                 1.0711                 1.0864
 Frc consts  --      5.7901                 5.8512                 5.9392
 IR Inten    --     75.3146                57.7606                24.4079

                    109                    110                    111
                      A                      A                      A
 Frequencies --   3049.3730              3068.0207              3076.2631
 Red. masses --      1.0802                 1.0981                 1.0912
 Frc consts  --      5.9181                 6.0897                 6.0840
 IR Inten    --     33.7617                31.5228                29.5247

                    112                    113                    114
                      A                      A                      A
 Frequencies --   3081.4907              3087.2086              3087.3936
 Red. masses --      1.0895                 1.0998                 1.0998
 Frc consts  --      6.0956                 6.1761                 6.1768
 IR Inten    --     56.2734                20.7000                70.9578

                    115                    116                    117
                      A                      A                      A
 Frequencies --   3091.4136              3095.7934              3096.4261
 Red. masses --      1.0943                 1.0967                 1.1011
 Frc consts  --      6.1616                 6.1925                 6.2202
 IR Inten    --     67.3131                12.4424                53.8957

                    118                    119                    120
                      A                      A                      A
 Frequencies --   3097.2911              3143.7616              3233.3665
 Red. masses --      1.1013                 1.0953                 1.0803
 Frc consts  --      6.2246                 6.3782                 6.6541
 IR Inten    --     30.8497                25.5524                 6.4066

 - Thermochemistry -
 -------------------
 Temperature   298.150 Kelvin.  Pressure   1.00000 Atm.
 Atom     1 has atomic number  6 and mass  12.00000

 Molecular mass:   196.21910 amu.
 Principal axes and moments of inertia in atomic units:
                           1         2         3
     Eigenvalues --  2596.596583131.639325014.87019
           X            0.99998   0.00597  -0.00134
           Y           -0.00597   0.99998   0.00034
           Z            0.00135  -0.00034   1.00000
 This molecule is an asymmetric top.
 Rotational symmetry number  1.
 Warning -- assumption of classical behavior for rotation
           may cause significant error
 Rotational temperatures (Kelvin)      0.03336     0.02766     0.01727
 Rotational constants (GHZ):           0.69504     0.57629     0.35988
 Zero-point vibrational energy    1042505.9 (Joules/Mol)
                                  249.16489 (Kcal/Mol)
 Warning -- explicit consideration of  25 degrees of freedom as
           vibrations may cause significant error
 Vibrational temperatures:     64.09   100.07   139.18   165.93   218.71
          (Kelvin)            246.92   285.71   312.87   330.69   344.17
                              351.82   392.07   404.45   409.60   446.18
                              466.91   473.99   522.11   542.83   595.39
                              612.13   674.33   699.06   746.31   814.57
                              989.10  1046.63  1077.57  1141.82  1156.98
                             1199.80  1261.74  1268.98  1295.33  1310.80
                             1349.56  1361.50  1371.63  1407.49  1417.68
                             1460.87  1475.82  1492.55  1522.29  1526.82
                             1547.81  1566.65  1596.70  1619.85  1633.27
                             1646.66  1665.82  1671.36  1719.37  1755.78
                             1769.31  1801.95  1846.76  1850.64  1869.49
                             1884.92  1908.15  1916.23  1925.55  1929.22
                             1954.36  1961.24  1972.87  1978.00  1989.43
                             1993.57  2001.93  2003.87  2011.77  2017.02
                             2029.65  2037.44  2041.04  2122.23  2127.69
                             2133.50  2138.32  2145.91  2154.62  2156.79
                             2157.40  2158.50  2162.82  2166.89  2170.46
                             2183.53  2188.18  4290.15  4294.36  4299.12
                             4317.53  4324.06  4325.67  4333.28  4346.57
                             4349.12  4350.59  4353.35  4365.08  4370.88
                             4372.51  4381.11  4382.64  4387.37  4414.20
                             4426.06  4433.58  4441.80  4442.07  4447.85
                             4454.16  4455.07  4456.31  4523.17  4652.09

 Zero-point correction=                           0.397070 (Hartree/Particle)
 Thermal correction to Energy=                    0.413136
 Thermal correction to Enthalpy=                  0.414080
 Thermal correction to Gibbs Free Energy=         0.355359
 Sum of electronic and zero-point Energies=           -549.996395
 Sum of electronic and thermal Energies=              -549.980329
 Sum of electronic and thermal Enthalpies=            -549.979384
 Sum of electronic and thermal Free Energies=         -550.038106

                     E (Thermal)             CV                S
                      KCal/Mol        Cal/Mol-Kelvin    Cal/Mol-Kelvin
 Total                  259.247             64.023            123.590
 Electronic               0.000              0.000              0.000
 Translational            0.889              2.981             41.727
 Rotational               0.889              2.981             32.078
 Vibrational            257.469             58.061             49.784
 Vibration     1          0.595              1.980              5.046
 Vibration     2          0.598              1.969              4.166
 Vibration     3          0.603              1.952              3.519
 Vibration     4          0.608              1.937              3.177
 Vibration     5          0.619              1.900              2.647
 Vibration     6          0.626              1.877              2.418
 Vibration     7          0.637              1.842              2.146
 Vibration     8          0.646              1.814              1.980
 Vibration     9          0.652              1.795              1.880
 Vibration    10          0.657              1.780              1.809
 Vibration    11          0.660              1.772              1.770
 Vibration    12          0.675              1.724              1.580
 Vibration    13          0.681              1.709              1.527
 Vibration    14          0.683              1.702              1.505
 Vibration    15          0.699              1.654              1.362
 Vibration    16          0.709              1.626              1.287
 Vibration    17          0.712              1.617              1.263
 Vibration    18          0.737              1.549              1.110
 Vibration    19          0.748              1.519              1.050
 Vibration    20          0.777              1.440              0.913
 Vibration    21          0.787              1.415              0.874
 Vibration    22          0.826              1.320              0.741
 Vibration    23          0.842              1.281              0.694
 Vibration    24          0.874              1.209              0.613
 Vibration    25          0.922              1.104              0.512

                           ! Non-Optimized Parameters !
 Normal termination of Gaussian 16 at Tue May 23 15:51:24 2023.
