 Gaussian 16, Revision A.03,
 Gaussian 16:  ES64L-G16RevA.03 25-Dec-2016

 -----------------------------
 # opt freq b3lyp/6-31g(2df,p)
 -----------------------------

 -------------------
 Title Card Required
 -------------------
 Symbolic Z-matrix:
 Charge =  0 Multiplicity = 1

 SCF Done:  E(RB3LYP) =  -311.623628560     A.U. after   14 cycles
 SCF Done:  E(RB3LYP) =  -311.690518901     A.U. after   12 cycles
 SCF Done:  E(RB3LYP) =  -311.770236179     A.U. after   12 cycles
 SCF Done:  E(RB3LYP) =  -311.786585680     A.U. after   11 cycles
 SCF Done:  E(RB3LYP) =  -311.803789647     A.U. after   11 cycles
 SCF Done:  E(RB3LYP) =  -311.813909814     A.U. after   10 cycles
 SCF Done:  E(RB3LYP) =  -311.863516247     A.U. after   12 cycles
 SCF Done:  E(RB3LYP) =  -311.889267324     A.U. after   11 cycles
 SCF Done:  E(RB3LYP) =  -311.907930141     A.U. after   11 cycles
 SCF Done:  E(RB3LYP) =  -311.931839790     A.U. after   11 cycles
 SCF Done:  E(RB3LYP) =  -311.972611588     A.U. after   10 cycles
 SCF Done:  E(RB3LYP) =  -311.974438143     A.U. after   10 cycles
 SCF Done:  E(RB3LYP) =  -311.975979975     A.U. after   10 cycles
 SCF Done:  E(RB3LYP) =  -311.977099125     A.U. after    9 cycles
 SCF Done:  E(RB3LYP) =  -311.977705600     A.U. after    9 cycles
 SCF Done:  E(RB3LYP) =  -311.977962317     A.U. after    8 cycles
 SCF Done:  E(RB3LYP) =  -311.978036683     A.U. after    8 cycles
 SCF Done:  E(RB3LYP) =  -311.978040643     A.U. after    6 cycles
 SCF Done:  E(RB3LYP) =  -311.978041328     A.U. after    6 cycles
 Optimization completed.
    -- Stationary point found.
 Normal termination of Gaussian 16 at Sun May 28 13:51:06 2023.

 ----------------------------------------------------------------------
 #N Geom=AllCheck Guess=TCheck SCRF=Check GenChk RB3LYP/6-31G(2df,p) Fr
 eq
 ----------------------------------------------------------------------

 Structure from the checkpoint file:  "CC1C2C3CqCrC2C13.chk"
 -------------------
 Title Card Required
 -------------------
 Charge =  0 Multiplicity = 1

                         Standard orientation:
 ---------------------------------------------------------------------
 Center     Atomic      Atomic             Coordinates (Angstroms)
 Number     Number       Type             X           Y           Z
 ---------------------------------------------------------------------
      1          6           0       -2.728398   -0.574283   -0.147552
      2          6           0       -1.583705    0.254078    0.416145
      3          6           0       -0.237107   -0.427436    0.750133
      4          6           0        0.237119   -0.427342   -0.750256
      5          6           0        1.583744    0.254121   -0.416149
      6          6           0        2.728398   -0.574268    0.147589
      7          6           0        0.563956    0.906893    0.543502
      8          6           0       -0.563963    0.906912   -0.543455
      9          1           0       -3.198940   -1.180317    0.634962
     10          1           0       -2.386737   -1.254414   -0.934769
     11          1           0       -3.505848    0.067892   -0.576727
     12          1           0       -1.944216    0.929018    1.203891
     13          1           0       -0.033697   -1.198301    1.495430
     14          1           0        0.033845   -1.198207   -1.495601
     15          1           0        1.944305    0.929157   -1.203769
     16          1           0        2.386667   -1.254512    0.934670
     17          1           0        3.505777    0.067868    0.576959
     18          1           0        3.199096   -1.180199   -0.634918
     19          1           0        0.720071    1.679986    1.299364
     20          1           0       -0.720587    1.679984   -1.299237
 ---------------------------------------------------------------------

 SCF Done:  E(RB3LYP) =  -311.978041328     A.U. after    1 cycles

 The electronic state is 1-A.
 Alpha  occ. eigenvalues --  -10.18985 -10.18966 -10.18961 -10.18946 -10.18204
 Alpha  occ. eigenvalues --  -10.18202 -10.16771 -10.16770  -0.93147  -0.76956
 Alpha  occ. eigenvalues --   -0.71660  -0.65185  -0.62493  -0.62047  -0.55157
 Alpha  occ. eigenvalues --   -0.49699  -0.48923  -0.46532  -0.43002  -0.41680
 Alpha  occ. eigenvalues --   -0.39901  -0.39092  -0.37212  -0.36039  -0.30141
 Alpha  occ. eigenvalues --   -0.29929  -0.29302  -0.28637  -0.28524  -0.27861
 Alpha virt. eigenvalues --    0.09578   0.10520   0.12126   0.12803   0.13407
 Alpha virt. eigenvalues --    0.14519   0.14541   0.16802   0.16962   0.17344
 Alpha virt. eigenvalues --    0.17685   0.18210   0.19286   0.20164   0.21287

 Mulliken charges:
               1
     1  C   -0.419522
     2  C   -0.000086
     3  C   -0.051937
     4  C   -0.051963
     5  C   -0.000129
     6  C   -0.419515
     7  C   -0.049077
     8  C   -0.049058
     9  H    0.112340
    10  H    0.112524
    11  H    0.112537
    12  H    0.057613
    13  H    0.064501
    14  H    0.064503
    15  H    0.057626
    16  H    0.112528
    17  H    0.112544
    18  H    0.112340
    19  H    0.061123
    20  H    0.061109
 Sum of Mulliken charges =  -0.00000

 Dipole moment (field-independent basis, Debye):
    X=              0.0001    Y=              0.0014    Z=              0.0000  Tot=              0.0014
 Quadrupole moment (field-independent basis, Debye-Ang):
   XX=            -50.3477   YY=            -49.6341   ZZ=            -49.5168
   XY=             -0.0005   XZ=             -0.1325   YZ=              0.0002

  Exact polarizability:  95.319  -0.002  72.165  -0.707   0.001  71.210
 Approx polarizability: 118.558  -0.002 112.577  -1.102   0.001 112.757

                      1                      2                      3
                      A                      A                      A
 Frequencies --    172.7605               188.9518               215.2170
 Red. masses --      2.6493                 1.8789                 1.0355
 Frc consts  --      0.0466                 0.0395                 0.0283
 IR Inten    --      0.1560                 0.1741                 0.0014

                      4                      5                      6
                      A                      A                      A
 Frequencies --    229.2952               290.2599               333.6539
 Red. masses --      1.2785                 2.4872                 2.4299
 Frc consts  --      0.0396                 0.1235                 0.1594
 IR Inten    --      0.0409                 0.0994                 0.2237

                      7                      8                      9
                      A                      A                      A
 Frequencies --    498.1004               553.3340               707.2824
 Red. masses --      3.2238                 2.8044                 2.6974
 Frc consts  --      0.4713                 0.5059                 0.7950
 IR Inten    --      0.6074                 1.2241                 0.1207

                     10                     11                     12
                      A                      A                      A
 Frequencies --    746.1292               807.3983               842.9731
 Red. masses --      3.4656                 2.1995                 1.9517
 Frc consts  --      1.1367                 0.8448                 0.8171
 IR Inten    --      0.0910                 1.0090                 0.5634

                     13                     14                     15
                      A                      A                      A
 Frequencies --    843.2272               854.6226               870.3529
 Red. masses --      1.9536                 1.8151                 2.0504
 Frc consts  --      0.8184                 0.7811                 0.9151
 IR Inten    --      0.6797                 0.0186                 0.3475

                     16                     17                     18
                      A                      A                      A
 Frequencies --    873.3318               962.7498               999.5730
 Red. masses --      2.0674                 1.0761                 4.7434
 Frc consts  --      0.9290                 0.5877                 2.7923
 IR Inten    --      0.1379                 0.1926                 1.7630

                     19                     20                     21
                      A                      A                      A
 Frequencies --   1026.5896              1028.0449              1051.1347
 Red. masses --      1.1327                 2.0463                 1.4395
 Frc consts  --      0.7033                 1.2742                 0.9371
 IR Inten    --      1.5577                 0.1269                 8.6124

                     22                     23                     24
                      A                      A                      A
 Frequencies --   1074.4146              1100.5454              1101.4071
 Red. masses --      1.4194                 1.7802                 1.7455
 Frc consts  --      0.9654                 1.2704                 1.2476
 IR Inten    --      1.6505                 0.0117                 0.2940

                     25                     26                     27
                      A                      A                      A
 Frequencies --   1135.8730              1137.7837              1154.0333
 Red. masses --      1.5400                 2.5301                 1.7270
 Frc consts  --      1.1706                 1.9298                 1.3551
 IR Inten    --      0.6339                 0.4689                 0.9610

                     28                     29                     30
                      A                      A                      A
 Frequencies --   1157.6542              1184.8746              1186.6124
 Red. masses --      2.0459                 1.7744                 1.7907
 Frc consts  --      1.6154                 1.4678                 1.4856
 IR Inten    --      0.6177                 5.1569                 5.4150

                     31                     32                     33
                      A                      A                      A
 Frequencies --   1244.8546              1247.9403              1282.2289
 Red. masses --      1.6420                 1.6978                 1.4995
 Frc consts  --      1.4992                 1.5579                 1.4526
 IR Inten    --      4.2116                 5.2909                 6.4969

                     34                     35                     36
                      A                      A                      A
 Frequencies --   1317.0051              1391.8485              1404.9660
 Red. masses --      2.0238                 1.3792                 1.4323
 Frc consts  --      2.0682                 1.5742                 1.6657
 IR Inten    --      0.3011                 0.8401                 9.7521

                     37                     38                     39
                      A                      A                      A
 Frequencies --   1413.5511              1413.5841              1494.9145
 Red. masses --      1.4385                 1.3369                 1.0485
 Frc consts  --      1.6935                 1.5740                 1.3806
 IR Inten    --     14.8431                 5.0345                 2.6284

                     40                     41                     42
                      A                      A                      A
 Frequencies --   1495.3768              1499.1359              1499.2828
 Red. masses --      1.0485                 1.0495                 1.0534
 Frc consts  --      1.3814                 1.3897                 1.3951
 IR Inten    --      2.5519                 3.5276                 4.3878

                     43                     44                     45
                      A                      A                      A
 Frequencies --   3013.4990              3014.2193              3025.8873
 Red. masses --      1.0824                 1.0819                 1.0365
 Frc consts  --      5.7912                 5.7913                 5.5912
 IR Inten    --     57.6948                33.8074                60.1354

                     46                     47                     48
                      A                      A                      A
 Frequencies --   3026.2260              3078.9155              3085.3337
 Red. masses --      1.0367                 1.0855                 1.0905
 Frc consts  --      5.5937                 6.0627                 6.1160
 IR Inten    --      4.4230                22.5138                83.4624

                     49                     50                     51
                      A                      A                      A
 Frequencies --   3086.4483              3086.4966              3087.8709
 Red. masses --      1.1007                 1.1006                 1.0900
 Frc consts  --      6.1777                 6.1774                 6.1235
 IR Inten    --     23.2122                29.8813                73.6175

                     52                     53                     54
                      A                      A                      A
 Frequencies --   3098.3342              3100.0748              3103.9268
 Red. masses --      1.1002                 1.0989                 1.0967
 Frc consts  --      6.2226                 6.2223                 6.2251
 IR Inten    --     23.3638                79.3084                12.9164

 - Thermochemistry -
 -------------------
 Temperature   298.150 Kelvin.  Pressure   1.00000 Atm.
 Atom     1 has atomic number  6 and mass  12.00000

 Molecular mass:   108.09390 amu.
 Principal axes and moments of inertia in atomic units:
                           1         2         3
     Eigenvalues --   318.571881259.659901297.24096
           X            0.99998  -0.00000   0.00555
           Y            0.00000   1.00000   0.00001
           Z           -0.00555  -0.00001   0.99998
 This molecule is an asymmetric top.
 Rotational symmetry number  1.
 Rotational temperatures (Kelvin)      0.27188     0.06876     0.06677
 Rotational constants (GHZ):           5.66510     1.43272     1.39122
 Zero-point vibrational energy     465587.2 (Joules/Mol)
                                  111.27801 (Kcal/Mol)
 Warning -- explicit consideration of   8 degrees of freedom as
           vibrations may cause significant error
 Vibrational temperatures:    248.56   271.86   309.65   329.90   417.62
          (Kelvin)            480.05   716.66   796.12  1017.62  1073.51
                             1161.67  1212.85  1213.22  1229.61  1252.24
                             1256.53  1385.18  1438.16  1477.03  1479.13
                             1512.35  1545.84  1583.44  1584.68  1634.27
                             1637.02  1660.40  1665.61  1704.77  1707.27
                             1791.07  1795.51  1844.84  1894.88  2002.56
                             2021.43  2033.78  2033.83  2150.85  2151.51
                             2156.92  2157.13  4335.75  4336.79  4353.58
                             4354.06  4429.87  4439.11  4440.71  4440.78
                             4442.76  4457.81  4460.32  4465.86

 Zero-point correction=                           0.177333 (Hartree/Particle)
 Thermal correction to Energy=                    0.184697
 Thermal correction to Enthalpy=                  0.185642
 Thermal correction to Gibbs Free Energy=         0.146255
 Sum of electronic and zero-point Energies=           -311.800709
 Sum of electronic and thermal Energies=              -311.793344
 Sum of electronic and thermal Enthalpies=            -311.792400
 Sum of electronic and thermal Free Energies=         -311.831786

                     E (Thermal)             CV                S
                      KCal/Mol        Cal/Mol-Kelvin    Cal/Mol-Kelvin
 Total                  115.899             29.448             82.895
 Electronic               0.000              0.000              0.000
 Translational            0.889              2.981             39.950
 Rotational               0.889              2.981             27.745
 Vibrational            114.122             23.487             15.200
 Vibration     1          0.626              1.876              2.405
 Vibration     2          0.633              1.855              2.238
 Vibration     3          0.645              1.818              1.999
 Vibration     4          0.652              1.796              1.884
 Vibration     5          0.686              1.692              1.472
 Vibration     6          0.715              1.608              1.242
 Vibration     7          0.854              1.254              0.663
 Vibration     8          0.909              1.132              0.537

 Optimization completed.
    -- Stationary point found.
 Normal termination of Gaussian 16 at Sun May 28 14:18:13 2023.
