 Gaussian 16, Revision A.03,
 Gaussian 16:  ES64L-G16RevA.03 25-Dec-2016

 -----------------------------
 # opt freq b3lyp/6-31g(2df,p)
 -----------------------------

 -------------------
 Title Card Required
 -------------------
 Symbolic Z-matrix:
 Charge =  0 Multiplicity = 1

 SCF Done:  E(RB3LYP) =  -313.269397199     A.U. after   12 cycles
 SCF Done:  E(RB3LYP) =  -313.277066824     A.U. after   10 cycles
 SCF Done:  E(RB3LYP) =  -313.277823065     A.U. after   10 cycles
 SCF Done:  E(RB3LYP) =  -313.277951145     A.U. after    9 cycles
 SCF Done:  E(RB3LYP) =  -313.277982116     A.U. after    8 cycles
 SCF Done:  E(RB3LYP) =  -313.277990088     A.U. after    7 cycles
 SCF Done:  E(RB3LYP) =  -313.277992443     A.U. after    6 cycles
 SCF Done:  E(RB3LYP) =  -313.277992779     A.U. after    6 cycles
 SCF Done:  E(RB3LYP) =  -313.277992893     A.U. after    5 cycles
 Optimization completed.
    -- Stationary point found.
 Normal termination of Gaussian 16 at Sun May 28 13:18:27 2023.

 ----------------------------------------------------------------------
 #N Geom=AllCheck Guess=TCheck SCRF=Check GenChk RB3LYP/6-31G(2df,p) Fr
 eq
 ----------------------------------------------------------------------

 Structure from the checkpoint file:  "CC1CC2qCrCC1C2.chk"
 -------------------
 Title Card Required
 -------------------
 Charge =  0 Multiplicity = 1

                         Standard orientation:
 ---------------------------------------------------------------------
 Center     Atomic      Atomic             Coordinates (Angstroms)
 Number     Number       Type             X           Y           Z
 ---------------------------------------------------------------------
      1          6           0       -2.525258   -0.505454    0.305404
      2          6           0       -1.297235   -0.095808   -0.505731
      3          6           0       -0.097848   -1.103417   -0.455483
      4          6           0        1.031218   -0.162633    0.024958
      5          6           0        2.414098   -0.750266    0.186960
      6          6           0        0.754380    1.109003   -0.839555
      7          6           0       -0.551188    1.160934    0.001380
      8          6           0        0.309943    0.609779    1.173170
      9          1           0       -2.955928   -1.436766   -0.078577
     10          1           0       -3.304394    0.263767    0.259374
     11          1           0       -2.280758   -0.668278    1.360491
     12          1           0       -1.610570    0.065180   -1.544208
     13          1           0        0.123640   -1.550100   -1.430384
     14          1           0       -0.273715   -1.921569    0.252331
     15          1           0        2.785056   -1.157720   -0.761039
     16          1           0        2.413545   -1.567731    0.917833
     17          1           0        3.131718    0.002947    0.529767
     18          1           0        0.664681    0.986966   -1.924472
     19          1           0        1.443349    1.926061   -0.608737
     20          1           0       -1.135710    2.077158    0.099358
     21          1           0       -0.176865    0.029092    1.962605
     22          1           0        0.947288    1.378171    1.619036
 ---------------------------------------------------------------------

 SCF Done:  E(RB3LYP) =  -313.277992893     A.U. after    1 cycles

 The electronic state is 1-A.
 Alpha  occ. eigenvalues --  -10.18830 -10.18052 -10.17902 -10.17225 -10.17201
 Alpha  occ. eigenvalues --  -10.16975 -10.16842 -10.16725  -0.88232  -0.75345
 Alpha  occ. eigenvalues --   -0.72273  -0.67571  -0.65163  -0.61816  -0.53058
 Alpha  occ. eigenvalues --   -0.52583  -0.46902  -0.46228  -0.44273  -0.41575
 Alpha  occ. eigenvalues --   -0.39693  -0.39420  -0.37921  -0.35819  -0.35097
 Alpha  occ. eigenvalues --   -0.33846  -0.31768  -0.29915  -0.29413  -0.28853
 Alpha  occ. eigenvalues --   -0.28554
 Alpha virt. eigenvalues --    0.08768   0.10351   0.12536   0.13109   0.13980
 Alpha virt. eigenvalues --    0.14687   0.15976   0.16427   0.16560   0.17432
 Alpha virt. eigenvalues --    0.18050   0.18988   0.19319   0.20809   0.20953

 Mulliken charges:
               1
     1  C   -0.416117
     2  C    0.056043
     3  C   -0.261626
     4  C    0.360010
     5  C   -0.497198
     6  C   -0.262092
     7  C   -0.019390
     8  C   -0.259067
     9  H    0.111365
    10  H    0.108940
    11  H    0.113502
    12  H    0.062874
    13  H    0.087913
    14  H    0.087817
    15  H    0.112193
    16  H    0.112340
    17  H    0.109544
    18  H    0.080677
    19  H    0.087863
    20  H    0.051138
    21  H    0.084135
    22  H    0.089136
 Sum of Mulliken charges =  -0.00000

 Dipole moment (field-independent basis, Debye):
    X=              0.0618    Y=             -0.0052    Z=             -0.0443  Tot=              0.0762
 Quadrupole moment (field-independent basis, Debye-Ang):
   XX=            -51.9724   YY=            -51.3973   ZZ=            -51.2920
   XY=              0.2352   XZ=              0.2783   YZ=              0.1265

  Exact polarizability:  90.643   0.526  78.687  -0.130   0.248  75.630
 Approx polarizability: 116.487   0.790 115.669   0.015  -0.103 116.548

                      1                      2                      3
                      A                      A                      A
 Frequencies --    166.0372               217.7874               223.0589
 Red. masses --      2.3921                 1.0431                 1.0993
 Frc consts  --      0.0389                 0.0292                 0.0322
 IR Inten    --      0.0192                 0.0095                 0.0063

                      4                      5                      6
                      A                      A                      A
 Frequencies --    244.1941               308.4859               345.8754
 Red. masses --      2.1503                 2.2641                 2.2603
 Frc consts  --      0.0755                 0.1269                 0.1593
 IR Inten    --      0.0568                 0.0080                 0.0758

                      7                      8                      9
                      A                      A                      A
 Frequencies --    421.4728               470.3612               512.8589
 Red. masses --      1.7768                 2.6732                 1.7873
 Frc consts  --      0.1860                 0.3485                 0.2770
 IR Inten    --      0.0925                 0.2491                 0.0164

                     10                     11                     12
                      A                      A                      A
 Frequencies --    581.2882               663.2988               795.6720
 Red. masses --      2.9700                 3.0866                 2.5697
 Frc consts  --      0.5913                 0.8001                 0.9585
 IR Inten    --      0.8334                 0.0512                 0.1071

                     13                     14                     15
                      A                      A                      A
 Frequencies --    821.5431               833.8421               868.6441
 Red. masses --      2.5995                 3.2986                 1.9668
 Frc consts  --      1.0337                 1.3513                 0.8744
 IR Inten    --      0.1855                 1.2520                 0.0939

                     16                     17                     18
                      A                      A                      A
 Frequencies --    897.7661               918.6410               929.4245
 Red. masses --      2.0938                 1.4104                 1.9575
 Frc consts  --      0.9943                 0.7013                 0.9963
 IR Inten    --      0.2341                 0.4733                 0.0961

                     19                     20                     21
                      A                      A                      A
 Frequencies --    966.9923               984.2516              1010.7722
 Red. masses --      1.7602                 1.5277                 1.1357
 Frc consts  --      0.9697                 0.8720                 0.6837
 IR Inten    --      0.6135                 0.1005                 0.4825

                     22                     23                     24
                      A                      A                      A
 Frequencies --   1038.7188              1050.2296              1062.9884
 Red. masses --      1.5506                 1.5663                 1.1783
 Frc consts  --      0.9857                 1.0179                 0.7845
 IR Inten    --      1.3825                 2.1805                 0.6784

                     25                     26                     27
                      A                      A                      A
 Frequencies --   1088.9277              1128.1326              1161.7267
 Red. masses --      1.5222                 1.4607                 1.8071
 Frc consts  --      1.0634                 1.0953                 1.4370
 IR Inten    --      3.2387                 0.1919                 0.5350

                     28                     29                     30
                      A                      A                      A
 Frequencies --   1172.0424              1196.4914              1226.1402
 Red. masses --      2.0075                 1.7080                 1.4434
 Frc consts  --      1.6247                 1.4406                 1.2785
 IR Inten    --      0.1054                 0.0909                 0.2217

                     31                     32                     33
                      A                      A                      A
 Frequencies --   1242.8510              1257.2283              1261.0018
 Red. masses --      1.5250                 1.9124                 1.7557
 Frc consts  --      1.3879                 1.7809                 1.6449
 IR Inten    --      2.0237                 1.2591                 0.5221

                     34                     35                     36
                      A                      A                      A
 Frequencies --   1286.2954              1322.1567              1347.4486
 Red. masses --      1.9513                 1.5237                 1.9858
 Frc consts  --      1.9022                 1.5693                 2.1243
 IR Inten    --      4.7686                 1.4981                 8.2091

                     37                     38                     39
                      A                      A                      A
 Frequencies --   1380.4199              1411.1625              1413.6577
 Red. masses --      1.4838                 1.2467                 1.3470
 Frc consts  --      1.6659                 1.4627                 1.5860
 IR Inten    --      8.5562                 2.6849                 1.8592

                     40                     41                     42
                      A                      A                      A
 Frequencies --   1484.6191              1489.8757              1493.9408
 Red. masses --      1.0879                 1.0727                 1.0491
 Frc consts  --      1.4127                 1.4029                 1.3796
 IR Inten    --      0.2327                 0.3430                 3.8959

                     43                     44                     45
                      A                      A                      A
 Frequencies --   1495.7023              1499.4499              1500.3132
 Red. masses --      1.0587                 1.0551                 1.0591
 Frc consts  --      1.3955                 1.3977                 1.4046
 IR Inten    --      5.0186                 3.1977                 2.5338

                     46                     47                     48
                      A                      A                      A
 Frequencies --   1527.2334              3018.6546              3022.0788
 Red. masses --      1.1408                 1.0368                 1.0813
 Frc consts  --      1.5677                 5.5663                 5.8187
 IR Inten    --      1.0775                25.6366                22.9231

                     49                     50                     51
                      A                      A                      A
 Frequencies --   3025.4225              3032.8089              3037.5516
 Red. masses --      1.0370                 1.0589                 1.0581
 Frc consts  --      5.5926                 5.7386                 5.7522
 IR Inten    --     26.6106                48.3544                63.5510

                     52                     53                     54
                      A                      A                      A
 Frequencies --   3049.0946              3075.2473              3081.2144
 Red. masses --      1.0578                 1.1047                 1.1003
 Frc consts  --      5.7943                 6.1556                 6.1549
 IR Inten    --     15.7318                17.2367                35.2836

                     55                     56                     57
                      A                      A                      A
 Frequencies --   3088.9309              3089.7913              3095.0692
 Red. masses --      1.1011                 1.1009                 1.1017
 Frc consts  --      6.1899                 6.1924                 6.2183
 IR Inten    --     11.6829                24.1693                17.4391

                     58                     59                     60
                      A                      A                      A
 Frequencies --   3098.1987              3101.2809              3106.9250
 Red. masses --      1.0945                 1.1046                 1.1033
 Frc consts  --      6.1899                 6.2595                 6.2749
 IR Inten    --     65.7453                46.1467                65.2510

 - Thermochemistry -
 -------------------
 Temperature   298.150 Kelvin.  Pressure   1.00000 Atm.
 Atom     1 has atomic number  6 and mass  12.00000

 Molecular mass:   110.10955 amu.
 Principal axes and moments of inertia in atomic units:
                           1         2         3
     Eigenvalues --   480.966561064.765511182.23774
           X            0.99999   0.00306  -0.00415
           Y           -0.00309   0.99997  -0.00727
           Z            0.00413   0.00728   0.99997
 This molecule is an asymmetric top.
 Rotational symmetry number  1.
 Warning -- assumption of classical behavior for rotation
           may cause significant error
 Rotational temperatures (Kelvin)      0.18008     0.08135     0.07326
 Rotational constants (GHZ):           3.75232     1.69497     1.52655
 Zero-point vibrational energy     530204.6 (Joules/Mol)
                                  126.72195 (Kcal/Mol)
 Warning -- explicit consideration of  10 degrees of freedom as
           vibrations may cause significant error
 Vibrational temperatures:    238.89   313.35   320.93   351.34   443.84
          (Kelvin)            497.64   606.41   676.74   737.89   836.34
                              954.34  1144.79  1182.02  1199.71  1249.79
                             1291.69  1321.72  1337.23  1391.29  1416.12
                             1454.28  1494.48  1511.05  1529.40  1566.72
                             1623.13  1671.47  1686.31  1721.48  1764.14
                             1788.19  1808.87  1814.30  1850.69  1902.29
                             1938.68  1986.12  2030.35  2033.94  2136.04
                             2143.60  2149.45  2151.98  2157.37  2158.62
                             2197.35  4343.17  4348.10  4352.91  4363.54
                             4370.36  4386.97  4424.59  4433.18  4444.28
                             4445.52  4453.11  4457.62  4462.05  4470.17

 Zero-point correction=                           0.201944 (Hartree/Particle)
 Thermal correction to Energy=                    0.209661
 Thermal correction to Enthalpy=                  0.210605
 Thermal correction to Gibbs Free Energy=         0.170707
 Sum of electronic and zero-point Energies=           -313.076049
 Sum of electronic and thermal Energies=              -313.068332
 Sum of electronic and thermal Enthalpies=            -313.067388
 Sum of electronic and thermal Free Energies=         -313.107286

                     E (Thermal)             CV                S
                      KCal/Mol        Cal/Mol-Kelvin    Cal/Mol-Kelvin
 Total                  131.564             31.596             83.972
 Electronic               0.000              0.000              0.000
 Translational            0.889              2.981             40.005
 Rotational               0.889              2.981             27.895
 Vibrational            129.787             25.634             16.072
 Vibration     1          0.624              1.884              2.480
 Vibration     2          0.646              1.814              1.977
 Vibration     3          0.649              1.806              1.934
 Vibration     4          0.660              1.772              1.772
 Vibration     5          0.698              1.658              1.370
 Vibration     6          0.724              1.584              1.185
 Vibration     7          0.784              1.424              0.887
 Vibration     8          0.827              1.316              0.737
 Vibration     9          0.868              1.222              0.627
 Vibration    10          0.938              1.072              0.483

 Optimization completed.
    -- Stationary point found.
 Normal termination of Gaussian 16 at Sun May 28 13:49:08 2023.
