 Gaussian 16, Revision A.03,
 Gaussian 16:  ES64L-G16RevA.03 25-Dec-2016

 -----------------------------
 # opt freq b3lyp/6-31g(2df,p)
 -----------------------------

 -------------------
 Title Card Required
 -------------------
 Symbolic Z-matrix:
 Charge =  0 Multiplicity = 1

 SCF Done:  E(RB3LYP) =  -507.643392167     A.U. after   12 cycles
 SCF Done:  E(RB3LYP) =  -507.652430287     A.U. after   10 cycles
 SCF Done:  E(RB3LYP) =  -507.656442715     A.U. after   10 cycles
 SCF Done:  E(RB3LYP) =  -507.659210171     A.U. after   10 cycles
 SCF Done:  E(RB3LYP) =  -507.661135640     A.U. after   10 cycles
 SCF Done:  E(RB3LYP) =  -507.661780717     A.U. after   10 cycles
 SCF Done:  E(RB3LYP) =  -507.661969165     A.U. after    9 cycles
 SCF Done:  E(RB3LYP) =  -507.662010243     A.U. after    8 cycles
 SCF Done:  E(RB3LYP) =  -507.662018901     A.U. after    8 cycles
 SCF Done:  E(RB3LYP) =  -507.662023686     A.U. after    7 cycles
 SCF Done:  E(RB3LYP) =  -507.662028255     A.U. after    8 cycles
 SCF Done:  E(RB3LYP) =  -507.662030212     A.U. after    7 cycles
 SCF Done:  E(RB3LYP) =  -507.662031339     A.U. after    7 cycles
 SCF Done:  E(RB3LYP) =  -507.662031860     A.U. after    6 cycles
 Optimization completed.
    -- Stationary point found.
 Normal termination of Gaussian 16 at Tue May 23 09:19:06 2023.

 ----------------------------------------------------------------------
 #N Geom=AllCheck Guess=TCheck SCRF=Check GenChk RB3LYP/6-31G(2df,p) Fr
 eq
 ----------------------------------------------------------------------

 Structure from the checkpoint file:  "CC1CCCCCCCqCrC1O.chk"
 -------------------
 Title Card Required
 -------------------
 Charge =  0 Multiplicity = 1

                         Standard orientation:
 ---------------------------------------------------------------------
 Center     Atomic      Atomic             Coordinates (Angstroms)
 Number     Number       Type             X           Y           Z
 ---------------------------------------------------------------------
      1          6           0       -0.091439   -1.944068    1.704600
      2          6           0       -0.002462   -1.838932    0.171737
      3          6           0       -1.385646   -1.650175   -0.536641
      4          6           0       -2.034329   -0.283450   -0.853201
      5          6           0       -2.293955    0.698461    0.312653
      6          6           0       -1.659661    2.087700    0.110480
      7          6           0       -0.142616    2.074963   -0.150359
      8          6           0        0.662720    1.345675    0.950361
      9          6           0        1.675711    0.266456    0.506974
     10          6           0        2.877945    0.907172   -0.207220
     11          6           0        1.205987   -0.975570   -0.319220
     12          8           0        1.121384   -0.730192   -1.724088
     13          1           0       -0.809031   -2.721968    1.985709
     14          1           0       -0.405282   -1.019475    2.192752
     15          1           0        0.877008   -2.227231    2.131636
     16          1           0        0.271707   -2.850668   -0.154689
     17          1           0       -2.105180   -2.230876    0.055181
     18          1           0       -1.317053   -2.173313   -1.497456
     19          1           0       -2.986324   -0.516878   -1.344317
     20          1           0       -1.463572    0.236076   -1.633021
     21          1           0       -1.942208    0.263838    1.252022
     22          1           0       -3.372899    0.832767    0.447405
     23          1           0       -1.867022    2.699381    0.998252
     24          1           0       -2.158463    2.591027   -0.728394
     25          1           0        0.199021    3.111214   -0.246444
     26          1           0        0.061734    1.625977   -1.126702
     27          1           0       -0.032301    0.905231    1.668231
     28          1           0        1.228874    2.084622    1.530330
     29          1           0        2.057124   -0.165928    1.442813
     30          1           0        2.579438    1.374955   -1.148770
     31          1           0        3.642308    0.161076   -0.447777
     32          1           0        3.338099    1.671676    0.427423
     33          1           0        2.074063   -1.644185   -0.245780
     34          1           0        0.285358   -0.295185   -1.906672
 ---------------------------------------------------------------------

 SCF Done:  E(RB3LYP) =  -507.662031860     A.U. after    1 cycles

 The electronic state is 1-A.
 Alpha  occ. eigenvalues --  -19.12539 -10.22305 -10.18641 -10.18381 -10.18106
 Alpha  occ. eigenvalues --  -10.17919 -10.17827 -10.17763 -10.17548 -10.17295
 Alpha  occ. eigenvalues --  -10.17191 -10.16111  -1.00739  -0.81694  -0.78703
 Alpha  occ. eigenvalues --   -0.78457  -0.72997  -0.69864  -0.66592  -0.65530
 Alpha  occ. eigenvalues --   -0.61170  -0.58287  -0.55001  -0.54053  -0.48708
 Alpha  occ. eigenvalues --   -0.46988  -0.45332  -0.44868  -0.44298  -0.42842
 Alpha  occ. eigenvalues --   -0.41405  -0.40859  -0.39310  -0.38878  -0.38223
 Alpha  occ. eigenvalues --   -0.37359  -0.36463  -0.35670  -0.34791  -0.34223
 Alpha  occ. eigenvalues --   -0.33390  -0.32093  -0.31292  -0.30726  -0.30217
 Alpha  occ. eigenvalues --   -0.29663  -0.28377  -0.25163
 Alpha virt. eigenvalues --    0.05999   0.07023   0.09994   0.10142   0.10521
 Alpha virt. eigenvalues --    0.12441   0.13856   0.14051   0.14729   0.15379
 Alpha virt. eigenvalues --    0.15931   0.16364   0.16890   0.17744   0.18148

 Mulliken charges:
               1
     1  C   -0.415680
     2  C    0.012951
     3  C   -0.230450
     4  C   -0.198949
     5  C   -0.183661
     6  C   -0.199094
     7  C   -0.184875
     8  C   -0.203493
     9  C   -0.008512
    10  C   -0.384163
    11  C    0.093835
    12  O   -0.433822
    13  H    0.109611
    14  H    0.124991
    15  H    0.113490
    16  H    0.088147
    17  H    0.095209
    18  H    0.105816
    19  H    0.100984
    20  H    0.081132
    21  H    0.102165
    22  H    0.094187
    23  H    0.092422
    24  H    0.090636
    25  H    0.095899
    26  H    0.086951
    27  H    0.089386
    28  H    0.091950
    29  H    0.071808
    30  H    0.125583
    31  H    0.108959
    32  H    0.099272
    33  H    0.086046
    34  H    0.281267
 Sum of Mulliken charges =  -0.00000

 Dipole moment (field-independent basis, Debye):
    X=             -1.3088    Y=              0.2047    Z=              1.0033  Tot=              1.6618
 Quadrupole moment (field-independent basis, Debye-Ang):
   XX=            -78.4025   YY=            -76.9204   ZZ=            -79.9549
   XY=              0.4070   XZ=              3.7115   YZ=             -1.6217

  Exact polarizability: 128.296   0.645 123.256   2.348  -0.751 106.768
 Approx polarizability: 172.226  -1.030 169.090   1.307  -0.792 168.733

                      1                      2                      3
                      A                      A                      A
 Frequencies --     98.1359               112.7700               151.3523
 Red. masses --      3.3019                 2.6285                 3.1262
 Frc consts  --      0.0187                 0.0197                 0.0422
 IR Inten    --      3.2555                 0.1645                 0.8926

                      4                      5                      6
                      A                      A                      A
 Frequencies --    155.5995               188.9972               215.2846
 Red. masses --      2.8167                 2.4465                 1.1748
 Frc consts  --      0.0402                 0.0515                 0.0321
 IR Inten    --      0.7603                 2.9251                 1.2083

                      7                      8                      9
                      A                      A                      A
 Frequencies --    230.7600               239.2876               250.9540
 Red. masses --      1.1135                 2.0415                 1.6473
 Frc consts  --      0.0349                 0.0689                 0.0611
 IR Inten    --      2.1784                19.2045                30.9661

                     10                     11                     12
                      A                      A                      A
 Frequencies --    259.0629               288.1672               307.2060
 Red. masses --      2.0366                 2.1331                 2.6898
 Frc consts  --      0.0805                 0.1044                 0.1496
 IR Inten    --     12.1881                14.3885                 1.6902

                     13                     14                     15
                      A                      A                      A
 Frequencies --    317.2348               337.6994               358.0802
 Red. masses --      2.1068                 2.3229                 1.9167
 Frc consts  --      0.1249                 0.1561                 0.1448
 IR Inten    --      6.5269                 0.2475                10.5100

                     16                     17                     18
                      A                      A                      A
 Frequencies --    419.1358               436.9542               458.4043
 Red. masses --      2.3772                 1.9485                 2.9310
 Frc consts  --      0.2461                 0.2192                 0.3629
 IR Inten    --      0.7119                 3.2834                 3.8282

                     19                     20                     21
                      A                      A                      A
 Frequencies --    482.6937               615.2972               652.0605
 Red. masses --      2.6528                 2.8176                 2.8187
 Frc consts  --      0.3642                 0.6285                 0.7061
 IR Inten    --      1.5700                 0.5753                 1.4511

                     22                     23                     24
                      A                      A                      A
 Frequencies --    712.7598               730.3044               755.5521
 Red. masses --      1.7168                 1.7372                 2.7650
 Frc consts  --      0.5139                 0.5459                 0.9300
 IR Inten    --      7.3306                 1.2074                 2.7548

                     25                     26                     27
                      A                      A                      A
 Frequencies --    777.3292               821.4470               877.2386
 Red. masses --      1.8287                 1.8237                 2.1104
 Frc consts  --      0.6510                 0.7250                 0.9569
 IR Inten    --      2.5628                 0.6431                 1.4418

                     28                     29                     30
                      A                      A                      A
 Frequencies --    885.9178               913.3130               948.9654
 Red. masses --      2.2014                 1.9429                 1.8943
 Frc consts  --      1.0180                 0.9549                 1.0051
 IR Inten    --      4.5350                 3.1986                 0.5773

                     31                     32                     33
                      A                      A                      A
 Frequencies --    978.9839               989.7419               999.2831
 Red. masses --      1.6937                 1.9266                 1.6925
 Frc consts  --      0.9564                 1.1120                 0.9957
 IR Inten    --      9.7188                 4.2067                 1.4182

                     34                     35                     36
                      A                      A                      A
 Frequencies --   1018.6057              1035.4710              1045.7228
 Red. masses --      2.3827                 1.8284                 1.6795
 Frc consts  --      1.4566                 1.1550                 1.0821
 IR Inten    --     27.5064                 7.3624                 5.2347

                     37                     38                     39
                      A                      A                      A
 Frequencies --   1062.7421              1086.7503              1109.6612
 Red. masses --      2.4479                 2.2880                 1.9422
 Frc consts  --      1.6289                 1.5921                 1.4091
 IR Inten    --      9.7851                12.5773                 1.1891

                     40                     41                     42
                      A                      A                      A
 Frequencies --   1112.5834              1131.6760              1161.2964
 Red. masses --      2.2397                 2.1542                 1.8046
 Frc consts  --      1.6334                 1.6254                 1.4339
 IR Inten    --     11.3820                 2.9186                 3.3662

                     43                     44                     45
                      A                      A                      A
 Frequencies --   1184.6303              1200.6830              1208.3589
 Red. masses --      1.6522                 1.4457                 1.4576
 Frc consts  --      1.3661                 1.2279                 1.2539
 IR Inten    --     15.6859                 1.4215                 2.4221

                     46                     47                     48
                      A                      A                      A
 Frequencies --   1245.6916              1258.1960              1280.9336
 Red. masses --      1.2353                 1.4282                 1.2197
 Frc consts  --      1.1294                 1.3321                 1.1791
 IR Inten    --      2.6222                11.8321                 2.9734

                     49                     50                     51
                      A                      A                      A
 Frequencies --   1309.6820              1314.7312              1319.1923
 Red. masses --      1.1820                 1.2034                 1.1949
 Frc consts  --      1.1945                 1.2256                 1.2252
 IR Inten    --      0.3878                 0.0653                 0.5872

                     52                     53                     54
                      A                      A                      A
 Frequencies --   1334.4533              1348.9284              1365.3740
 Red. masses --      1.2932                 1.2656                 1.3207
 Frc consts  --      1.3568                 1.3568                 1.4506
 IR Inten    --      0.8986                 2.8643                 4.0017

                     55                     56                     57
                      A                      A                      A
 Frequencies --   1367.6877              1375.6134              1381.1307
 Red. masses --      1.3224                 1.3180                 1.3920
 Frc consts  --      1.4574                 1.4695                 1.5644
 IR Inten    --      2.2761                 3.2643                 2.0233

                     58                     59                     60
                      A                      A                      A
 Frequencies --   1393.0502              1400.1547              1406.5906
 Red. masses --      1.3689                 1.2950                 1.2682
 Frc consts  --      1.5651                 1.4957                 1.4784
 IR Inten    --      3.2599                 0.6950                 3.6836

                     61                     62                     63
                      A                      A                      A
 Frequencies --   1407.5634              1416.4979              1422.9187
 Red. masses --      1.2748                 1.2776                 1.2626
 Frc consts  --      1.4881                 1.5103                 1.5062
 IR Inten    --      2.6915                 8.3709                10.7276

                     64                     65                     66
                      A                      A                      A
 Frequencies --   1439.4607              1480.7270              1483.4467
 Red. masses --      1.1782                 1.0772                 1.0768
 Frc consts  --      1.4383                 1.3915                 1.3961
 IR Inten    --     18.2471                 0.8105                 2.4609

                     67                     68                     69
                      A                      A                      A
 Frequencies --   1486.7853              1492.1686              1495.2727
 Red. masses --      1.0742                 1.0781                 1.0685
 Frc consts  --      1.3990                 1.4143                 1.4075
 IR Inten    --      1.7486                 4.5930                 2.5500

                     70                     71                     72
                      A                      A                      A
 Frequencies --   1497.0134              1500.2610              1504.4548
 Red. masses --      1.0654                 1.0495                 1.0562
 Frc consts  --      1.4067                 1.3918                 1.4085
 IR Inten    --      4.4919                 5.9941                 1.1537

                     73                     74                     75
                      A                      A                      A
 Frequencies --   1514.0388              1521.6806              2988.4017
 Red. masses --      1.0714                 1.0814                 1.0828
 Frc consts  --      1.4470                 1.4754                 5.6974
 IR Inten    --      3.8150                14.2499                 5.5177

                     76                     77                     78
                      A                      A                      A
 Frequencies --   2999.3441              3010.6958              3013.1061
 Red. masses --      1.0816                 1.0612                 1.0746
 Frc consts  --      5.7329                 5.6673                 5.7480
 IR Inten    --     11.0439                32.9199                26.7271

                     79                     80                     81
                      A                      A                      A
 Frequencies --   3017.5140              3021.4587              3028.6828
 Red. masses --      1.0705                 1.0711                 1.0706
 Frc consts  --      5.7431                 5.7610                 5.7861
 IR Inten    --     13.5753                37.8591                20.9461

                     82                     83                     84
                      A                      A                      A
 Frequencies --   3035.5774              3036.1472              3037.7646
 Red. masses --      1.0395                 1.0656                 1.0560
 Frc consts  --      5.6437                 5.7877                 5.7416
 IR Inten    --     27.0856                28.1615                37.8139

                     85                     86                     87
                      A                      A                      A
 Frequencies --   3042.6359              3051.9619              3055.0029
 Red. masses --      1.0952                 1.0745                 1.0768
 Frc consts  --      5.9738                 5.8968                 5.9213
 IR Inten    --     31.7257                35.4584                26.1857

                     88                     89                     90
                      A                      A                      A
 Frequencies --   3058.3098              3082.5736              3087.5040
 Red. masses --      1.0991                 1.0932                 1.0956
 Frc consts  --      6.0569                 6.1202                 6.1537
 IR Inten    --     58.2116                45.9983                46.5321

                     91                     92                     93
                      A                      A                      A
 Frequencies --   3091.6042              3097.3820              3098.6256
 Red. masses --      1.1003                 1.0936                 1.0975
 Frc consts  --      6.1960                 6.1816                 6.2088
 IR Inten    --     26.1734                41.2886                55.0776

                     94                     95                     96
                      A                      A                      A
 Frequencies --   3118.7743              3128.7750              3853.8974
 Red. masses --      1.0993                 1.0946                 1.0653
 Frc consts  --      6.2999                 6.3135                 9.3219
 IR Inten    --     26.7705                29.1849                34.9943

 - Thermochemistry -
 -------------------
 Temperature   298.150 Kelvin.  Pressure   1.00000 Atm.
 Atom     1 has atomic number  6 and mass  12.00000

 Molecular mass:   170.16707 amu.
 Principal axes and moments of inertia in atomic units:
                           1         2         3
     Eigenvalues --  1796.712852067.588772796.39957
           X            0.99862   0.05093   0.01303
           Y           -0.05060   0.99842  -0.02435
           Z           -0.01425   0.02365   0.99962
 This molecule is an asymmetric top.
 Rotational symmetry number  1.
 Warning -- assumption of classical behavior for rotation
           may cause significant error
 Rotational temperatures (Kelvin)      0.04821     0.04189     0.03097
 Rotational constants (GHZ):           1.00447     0.87287     0.64538
 Zero-point vibrational energy     831665.4 (Joules/Mol)
                                  198.77280 (Kcal/Mol)
 Warning -- explicit consideration of  20 degrees of freedom as
           vibrations may cause significant error
 Vibrational temperatures:    141.20   162.25   217.76   223.87   271.92
          (Kelvin)            309.75   332.01   344.28   361.07   372.73
                              414.61   442.00   456.43   485.87   515.20
                              603.04   628.68   659.54   694.49   885.28
                              938.17  1025.50  1050.75  1087.07  1118.40
                             1181.88  1262.15  1274.64  1314.05  1365.35
                             1408.54  1424.02  1437.75  1465.55  1489.81
                             1504.56  1529.05  1563.59  1596.55  1600.76
                             1628.23  1670.85  1704.42  1727.52  1738.56
                             1792.27  1810.26  1842.98  1884.34  1891.61
                             1898.02  1919.98  1940.81  1964.47  1967.80
                             1979.20  1987.14  2004.29  2014.51  2023.77
                             2025.17  2038.02  2047.26  2071.06  2130.44
                             2134.35  2139.15  2146.90  2151.36  2153.87
                             2158.54  2164.57  2178.36  2189.36  4299.64
                             4315.39  4331.72  4335.19  4341.53  4347.21
                             4357.60  4367.52  4368.34  4370.67  4377.67
                             4391.09  4395.47  4400.23  4435.14  4442.23
                             4448.13  4456.44  4458.23  4487.22  4501.61
                             5544.90

 Zero-point correction=                           0.316765 (Hartree/Particle)
 Thermal correction to Energy=                    0.330030
 Thermal correction to Enthalpy=                  0.330974
 Thermal correction to Gibbs Free Energy=         0.279101
 Sum of electronic and zero-point Energies=           -507.345267
 Sum of electronic and thermal Energies=              -507.332002
 Sum of electronic and thermal Enthalpies=            -507.331058
 Sum of electronic and thermal Free Energies=         -507.382931

                     E (Thermal)             CV                S
                      KCal/Mol        Cal/Mol-Kelvin    Cal/Mol-Kelvin
 Total                  207.097             53.077            109.176
 Electronic               0.000              0.000              0.000
 Translational            0.889              2.981             41.303
 Rotational               0.889              2.981             30.719
 Vibrational            205.319             47.115             37.154
 Vibration     1          0.604              1.950              3.491
 Vibration     2          0.607              1.939              3.221
 Vibration     3          0.619              1.901              2.655
 Vibration     4          0.620              1.896              2.603
 Vibration     5          0.633              1.855              2.238
 Vibration     6          0.645              1.818              1.998
 Vibration     7          0.652              1.794              1.873
 Vibration     8          0.657              1.780              1.808
 Vibration     9          0.663              1.761              1.724
 Vibration    10          0.668              1.747              1.668
 Vibration    11          0.685              1.696              1.485
 Vibration    12          0.697              1.660              1.377
 Vibration    13          0.704              1.641              1.324
 Vibration    14          0.718              1.600              1.223
 Vibration    15          0.733              1.559              1.130
 Vibration    16          0.782              1.429              0.895
 Vibration    17          0.797              1.390              0.836
 Vibration    18          0.816              1.342              0.771
 Vibration    19          0.839              1.288              0.703
 Vibration    20          0.975              1.000              0.424

 Optimization completed.
    -- Stationary point found.
 Normal termination of Gaussian 16 at Tue May 23 11:21:20 2023.
