 Gaussian 16, Revision A.03,
 Gaussian 16:  ES64L-G16RevA.03 25-Dec-2016

 -----------------------------
 # opt freq b3lyp/6-31g(2df,p)
 -----------------------------

 -------------------
 Title Card Required
 -------------------
 Symbolic Z-matrix:
 Charge =  0 Multiplicity = 1

 SCF Done:  E(RB3LYP) =  -839.775038996     A.U. after   14 cycles
 SCF Done:  E(RB3LYP) =  -839.822324382     A.U. after   12 cycles
 SCF Done:  E(RB3LYP) =  -839.849595182     A.U. after   13 cycles
 SCF Done:  E(RB3LYP) =  -839.855762812     A.U. after   12 cycles
 SCF Done:  E(RB3LYP) =  -839.856235310     A.U. after   12 cycles
 SCF Done:  E(RB3LYP) =  -839.858347797     A.U. after   12 cycles
 SCF Done:  E(RB3LYP) =  -839.858758130     A.U. after   11 cycles
 SCF Done:  E(RB3LYP) =  -839.859168220     A.U. after   10 cycles
 SCF Done:  E(RB3LYP) =  -839.859545872     A.U. after   11 cycles
 SCF Done:  E(RB3LYP) =  -839.859995924     A.U. after   12 cycles
 SCF Done:  E(RB3LYP) =  -839.927321193     A.U. after   10 cycles
 SCF Done:  E(RB3LYP) =  -839.927385047     A.U. after    9 cycles
 SCF Done:  E(RB3LYP) =  -839.927404523     A.U. after    9 cycles
 SCF Done:  E(RB3LYP) =  -839.927416227     A.U. after    9 cycles
 SCF Done:  E(RB3LYP) =  -839.927420725     A.U. after    9 cycles
 SCF Done:  E(RB3LYP) =  -839.927423053     A.U. after    9 cycles
 SCF Done:  E(RB3LYP) =  -839.927425104     A.U. after    8 cycles
 SCF Done:  E(RB3LYP) =  -839.927425594     A.U. after    8 cycles
 SCF Done:  E(RB3LYP) =  -839.927425706     A.U. after    6 cycles
 Optimization completed.
    -- Stationary point found.
 Normal termination of Gaussian 16 at Sun May 28 02:21:19 2023.

 ----------------------------------------------------------------------
 #N Geom=AllCheck Guess=TCheck SCRF=Check GenChk RB3LYP/6-31G(2df,p) Fr
 eq
 ----------------------------------------------------------------------

 Structure from the checkpoint file:  "CC1CCCqN2NC2dOrCNCqCCNrCqdOrC1.chk"
 -------------------
 Title Card Required
 -------------------
 Charge =  0 Multiplicity = 1

                         Standard orientation:
 ---------------------------------------------------------------------
 Center     Atomic      Atomic             Coordinates (Angstroms)
 Number     Number       Type             X           Y           Z
 ---------------------------------------------------------------------
      1          6           0       -0.385366    2.289872    1.625583
      2          6           0        0.111143    2.583595    0.197811
      3          6           0        1.596024    2.173564   -0.048380
      4          6           0        1.952596    0.804748   -0.656310
      5          6           0        1.549713   -0.445972    0.157202
      6          7           0        2.657146   -1.272941    0.683888
      7          7           0        3.868721   -0.468080    1.289602
      8          6           0        3.913028   -1.270089    0.146179
      9          8           0        4.608548   -1.661717   -0.734189
     10          6           0        0.671913   -1.422463   -0.660401
     11          7           0       -0.458602   -0.722967   -1.253181
     12          6           0       -1.547373   -0.355549   -0.343396
     13          6           0       -2.743802   -1.324754   -0.399293
     14          6           0       -3.638404   -1.321667    0.843859
     15          7           0       -4.697109   -2.329611    0.692885
     16          6           0       -1.965033    1.117117   -0.570025
     17          8           0       -3.130444    1.439484   -0.483845
     18          6           0       -0.906196    2.164704   -0.921364
     19          1           0        0.261613    2.784047    2.357217
     20          1           0       -0.396017    1.225391    1.876488
     21          1           0       -1.402473    2.668923    1.769522
     22          1           0        0.132201    3.677756    0.139658
     23          1           0        2.137007    2.289701    0.899129
     24          1           0        2.027291    2.920168   -0.726645
     25          1           0        3.036007    0.805579   -0.811517
     26          1           0        1.503378    0.718305   -1.648732
     27          1           0        0.996756   -0.145612    1.050504
     28          1           0        4.139756   -0.969636    2.137061
     29          1           0        0.385482   -2.267491   -0.013057
     30          1           0        1.280793   -1.830265   -1.475309
     31          1           0       -0.823042   -1.240301   -2.042699
     32          1           0       -1.144917   -0.383035    0.678248
     33          1           0       -2.358145   -2.341613   -0.534751
     34          1           0       -3.352035   -1.087344   -1.281645
     35          1           0       -4.009872   -0.303759    1.019853
     36          1           0       -3.034932   -1.606167    1.716321
     37          1           0       -5.349106   -2.021179   -0.024233
     38          1           0       -5.240785   -2.380591    1.549675
     39          1           0       -1.490022    3.042480   -1.207362
     40          1           0       -0.364313    1.819060   -1.804603
 ---------------------------------------------------------------------

 SCF Done:  E(RB3LYP) =  -839.927425706     A.U. after    1 cycles

 The electronic state is 1-A.
 Alpha  occ. eigenvalues --  -19.15569 -19.13099 -14.38704 -14.38311 -14.32926
 Alpha  occ. eigenvalues --  -14.30392 -10.32900 -10.26609 -10.23484 -10.22411
 Alpha  occ. eigenvalues --  -10.22272 -10.20157 -10.19992 -10.18589 -10.18546
 Alpha  occ. eigenvalues --  -10.18452 -10.18252 -10.18126  -1.09255  -1.04102
 Alpha  occ. eigenvalues --   -1.03061  -0.92396  -0.87376  -0.83880  -0.81208
 Alpha  occ. eigenvalues --   -0.76831  -0.74872  -0.71401  -0.70684  -0.67805
 Alpha  occ. eigenvalues --   -0.63955  -0.62324  -0.60055  -0.57342  -0.54778
 Alpha  occ. eigenvalues --   -0.53514  -0.51690  -0.49814  -0.48684  -0.48397
 Alpha  occ. eigenvalues --   -0.47592  -0.46772  -0.46377  -0.45544  -0.44532
 Alpha  occ. eigenvalues --   -0.43911  -0.43230  -0.42849  -0.41152  -0.40207
 Alpha  occ. eigenvalues --   -0.40129  -0.38838  -0.38506  -0.37492  -0.36877
 Alpha  occ. eigenvalues --   -0.36332  -0.36104  -0.35468  -0.34670  -0.33935
 Alpha  occ. eigenvalues --   -0.33439  -0.32745  -0.31976  -0.31268  -0.28072
 Alpha  occ. eigenvalues --   -0.26928  -0.25811  -0.23152  -0.22538
 Alpha virt. eigenvalues --   -0.01886  -0.00597   0.02616   0.06844   0.07621
 Alpha virt. eigenvalues --    0.08008   0.08722   0.08852   0.11364   0.12265
 Alpha virt. eigenvalues --    0.12587   0.12868   0.13777   0.14013   0.14490

 Mulliken charges:
               1
     1  C   -0.418130
     2  C    0.035922
     3  C   -0.229539
     4  C   -0.221400
     5  C    0.064767
     6  N   -0.196144
     7  N   -0.399384
     8  C    0.468875
     9  O   -0.326457
    10  C   -0.194719
    11  N   -0.308873
    12  C   -0.082409
    13  C   -0.183330
    14  C   -0.159051
    15  N   -0.514422
    16  C    0.376946
    17  O   -0.311084
    18  C   -0.313683
    19  H    0.116063
    20  H    0.117381
    21  H    0.129363
    22  H    0.092237
    23  H    0.107576
    24  H    0.099635
    25  H    0.119616
    26  H    0.118370
    27  H    0.092764
    28  H    0.273392
    29  H    0.102928
    30  H    0.120309
    31  H    0.227284
    32  H    0.097016
    33  H    0.102570
    34  H    0.100855
    35  H    0.112876
    36  H    0.091715
    37  H    0.224992
    38  H    0.224532
    39  H    0.115265
    40  H    0.125377
 Sum of Mulliken charges =  -0.00000

 Dipole moment (field-independent basis, Debye):
    X=             -0.5884    Y=              0.5095    Z=              1.4541  Tot=              1.6493
 Quadrupole moment (field-independent basis, Debye-Ang):
   XX=           -122.3500   YY=           -113.8927   ZZ=           -102.1025
   XY=              5.8448   XZ=              6.0853   YZ=             -1.6113

  Exact polarizability: 191.487   0.624 150.067   0.318   3.596 134.639
 Approx polarizability: 256.275  -2.965 214.400  -1.640   9.047 222.817

                      1                      2                      3
                      A                      A                      A
 Frequencies --     26.5958                31.4185                47.3548
 Red. masses --      6.1124                 7.1832                 5.1539
 Frc consts  --      0.0025                 0.0042                 0.0068
 IR Inten    --      1.1862                 1.2459                 0.6501

                      4                      5                      6
                      A                      A                      A
 Frequencies --     63.5953                74.9938               104.1609
 Red. masses --      2.4645                 4.0072                 3.6051
 Frc consts  --      0.0059                 0.0133                 0.0230
 IR Inten    --      3.2693                 1.4245                 0.8024

                      7                      8                      9
                      A                      A                      A
 Frequencies --    109.8881               121.8789               137.0897
 Red. masses --      3.7854                 3.7307                 3.5480
 Frc consts  --      0.0269                 0.0327                 0.0393
 IR Inten    --      3.6137                 0.6498                 1.9176

                     10                     11                     12
                      A                      A                      A
 Frequencies --    176.4736               183.6975               229.9682
 Red. masses --      3.5547                 3.0477                 2.8943
 Frc consts  --      0.0652                 0.0606                 0.0902
 IR Inten    --      2.6191                 0.8412                 3.7708

                     13                     14                     15
                      A                      A                      A
 Frequencies --    242.3668               251.3542               262.2267
 Red. masses --      1.1460                 1.1865                 2.5318
 Frc consts  --      0.0397                 0.0442                 0.1026
 IR Inten    --      0.1584                37.6964                 0.6392

                     16                     17                     18
                      A                      A                      A
 Frequencies --    272.1910               306.1945               324.0198
 Red. masses --      2.4937                 3.3862                 2.9369
 Frc consts  --      0.1089                 0.1870                 0.1817
 IR Inten    --      1.0718                 2.9958                 2.5315

                     19                     20                     21
                      A                      A                      A
 Frequencies --    335.1259               343.6973               399.8031
 Red. masses --      3.0771                 2.2670                 3.5418
 Frc consts  --      0.2036                 0.1578                 0.3336
 IR Inten    --      1.8363                 2.0014                 3.7652

                     22                     23                     24
                      A                      A                      A
 Frequencies --    405.0973               436.1772               473.9983
 Red. masses --      3.3274                 2.8130                 2.6704
 Frc consts  --      0.3217                 0.3153                 0.3535
 IR Inten    --      5.8361                 3.6462                 4.7784

                     25                     26                     27
                      A                      A                      A
 Frequencies --    478.2066               498.1844               531.5519
 Red. masses --      2.6245                 4.0989                 4.2980
 Frc consts  --      0.3536                 0.5994                 0.7155
 IR Inten    --     26.7278                11.8573                13.9060

                     28                     29                     30
                      A                      A                      A
 Frequencies --    560.0849               569.1905               609.3091
 Red. masses --      2.4615                 4.4794                 3.6487
 Frc consts  --      0.4549                 0.8550                 0.7981
 IR Inten    --      1.4357                 5.4354                16.4518

                     31                     32                     33
                      A                      A                      A
 Frequencies --    689.2724               710.5568               713.3008
 Red. masses --      3.1717                 3.2933                 3.2946
 Frc consts  --      0.8878                 0.9797                 0.9876
 IR Inten    --     17.3646                39.8635                12.6659

                     34                     35                     36
                      A                      A                      A
 Frequencies --    722.7147               757.3238               767.7215
 Red. masses --      2.0165                 1.9733                 2.0948
 Frc consts  --      0.6206                 0.6668                 0.7275
 IR Inten    --     22.2528                19.4684                 8.7913

                     37                     38                     39
                      A                      A                      A
 Frequencies --    820.7688               865.0304               883.8106
 Red. masses --      1.6983                 2.1494                 1.7097
 Frc consts  --      0.6741                 0.9476                 0.7868
 IR Inten    --     10.4349                81.7771                22.6771

                     40                     41                     42
                      A                      A                      A
 Frequencies --    899.3467               921.0863               934.3589
 Red. masses --      2.3449                 1.7672                 3.1113
 Frc consts  --      1.1175                 0.8833                 1.6004
 IR Inten    --     50.5614                 7.8875                55.0517

                     43                     44                     45
                      A                      A                      A
 Frequencies --    944.1564               974.5394               987.0948
 Red. masses --      2.1844                 2.6432                 2.6962
 Frc consts  --      1.1473                 1.4790                 1.5478
 IR Inten    --      8.0085                 4.8828                37.4952

                     46                     47                     48
                      A                      A                      A
 Frequencies --   1002.4171              1009.0206              1037.6951
 Red. masses --      2.0061                 2.0461                 2.5901
 Frc consts  --      1.1877                 1.2273                 1.6433
 IR Inten    --      8.6764                13.2777                22.1517

                     49                     50                     51
                      A                      A                      A
 Frequencies --   1051.3129              1067.1159              1080.1364
 Red. masses --      1.8199                 2.4926                 2.0085
 Frc consts  --      1.1851                 1.6723                 1.3806
 IR Inten    --      5.5444                10.1926                11.1076

                     52                     53                     54
                      A                      A                      A
 Frequencies --   1091.0961              1103.6662              1114.7634
 Red. masses --      1.7477                 2.1781                 2.3889
 Frc consts  --      1.2259                 1.5632                 1.7491
 IR Inten    --     10.3378                 2.6024                 2.8849

                     55                     56                     57
                      A                      A                      A
 Frequencies --   1124.9158              1143.2347              1152.9146
 Red. masses --      2.1185                 1.7337                 2.5472
 Frc consts  --      1.5795                 1.3350                 1.9948
 IR Inten    --      2.0872                60.6772                14.6480

                     58                     59                     60
                      A                      A                      A
 Frequencies --   1160.0490              1165.3867              1179.0730
 Red. masses --      2.0227                 3.0049                 1.8707
 Frc consts  --      1.6037                 2.4045                 1.5323
 IR Inten    --     43.4937                15.9653                18.5181

                     61                     62                     63
                      A                      A                      A
 Frequencies --   1208.4682              1246.0997              1252.7937
 Red. masses --      1.7862                 1.3613                 1.3707
 Frc consts  --      1.5369                 1.2454                 1.2675
 IR Inten    --     22.0646                30.8007                12.1432

                     64                     65                     66
                      A                      A                      A
 Frequencies --   1264.1952              1280.1165              1297.9673
 Red. masses --      1.1986                 1.3432                 1.3877
 Frc consts  --      1.1286                 1.2969                 1.3775
 IR Inten    --      1.1283                 0.4642                 9.9180

                     67                     68                     69
                      A                      A                      A
 Frequencies --   1303.8697              1323.8001              1333.1658
 Red. masses --      1.2066                 1.2413                 1.2357
 Frc consts  --      1.2086                 1.2817                 1.2940
 IR Inten    --      3.5406                 1.4519                 1.0559

                     70                     71                     72
                      A                      A                      A
 Frequencies --   1340.8819              1345.2554              1359.2216
 Red. masses --      1.2092                 1.3458                 1.2895
 Frc consts  --      1.2809                 1.4350                 1.4036
 IR Inten    --      0.8914                 5.2972                 7.3591

                     73                     74                     75
                      A                      A                      A
 Frequencies --   1365.4209              1368.6901              1380.2738
 Red. masses --      1.3013                 1.2435                 1.3528
 Frc consts  --      1.4294                 1.3725                 1.5185
 IR Inten    --      1.2981                 3.8136                 4.8891

                     76                     77                     78
                      A                      A                      A
 Frequencies --   1391.8565              1403.6681              1416.0694
 Red. masses --      1.3187                 1.3311                 1.2917
 Frc consts  --      1.5051                 1.5453                 1.5261
 IR Inten    --      1.6889                 9.1962                 0.4925

                     79                     80                     81
                      A                      A                      A
 Frequencies --   1417.8898              1426.4888              1458.8269
 Red. masses --      1.2644                 1.4368                 1.0993
 Frc consts  --      1.4977                 1.7226                 1.3784
 IR Inten    --      8.9360                 9.1904                13.6843

                     82                     83                     84
                      A                      A                      A
 Frequencies --   1476.5365              1479.9169              1485.1217
 Red. masses --      1.0857                 1.0822                 1.0850
 Frc consts  --      1.3946                 1.3964                 1.4099
 IR Inten    --      3.6675                14.1804                 2.9305

                     85                     86                     87
                      A                      A                      A
 Frequencies --   1492.6968              1499.4147              1500.9481
 Red. masses --      1.2368                 1.0915                 1.0557
 Frc consts  --      1.6236                 1.4459                 1.4013
 IR Inten    --      4.5199                 2.7153                 5.7902

                     88                     89                     90
                      A                      A                      A
 Frequencies --   1504.1368              1518.8387              1659.7586
 Red. masses --      1.0583                 1.0878                 1.0870
 Frc consts  --      1.4107                 1.4785                 1.7643
 IR Inten    --      1.7163                 4.2551                22.6110

                     91                     92                     93
                      A                      A                      A
 Frequencies --   1785.0950              2000.8644              2966.9451
 Red. masses --     11.3878                12.5306                 1.0693
 Frc consts  --     21.3802                29.5567                 5.5458
 IR Inten    --    148.6110               522.6275                52.1861

                     94                     95                     96
                      A                      A                      A
 Frequencies --   3007.2276              3011.0653              3017.9906
 Red. masses --      1.0566                 1.0716                 1.0743
 Frc consts  --      5.6297                 5.7245                 5.7651
 IR Inten    --     19.4015                 5.3969                 0.4407

                     97                     98                     99
                      A                      A                      A
 Frequencies --   3027.7667              3028.2400              3037.9489
 Red. masses --      1.0641                 1.0719                 1.0386
 Frc consts  --      5.7475                 5.7912                 5.6473
 IR Inten    --     64.1055                16.4878                20.1837

                    100                    101                    102
                      A                      A                      A
 Frequencies --   3039.7447              3051.1315              3058.8744
 Red. masses --      1.1031                 1.0857                 1.0867
 Frc consts  --      6.0056                 5.9549                 5.9907
 IR Inten    --     10.0420                 9.2436                 8.1232

                    103                    104                    105
                      A                      A                      A
 Frequencies --   3061.6124              3070.9913              3076.0825
 Red. masses --      1.0799                 1.0597                 1.1047
 Frc consts  --      5.9639                 5.8883                 6.1589
 IR Inten    --     10.5208                15.6194                39.2088

                    106                    107                    108
                      A                      A                      A
 Frequencies --   3081.9779              3099.3469              3103.1004
 Red. masses --      1.0869                 1.0995                 1.1014
 Frc consts  --      6.0829                 6.2229                 6.2488
 IR Inten    --     48.2201                11.1289                31.2144

                    109                    110                    111
                      A                      A                      A
 Frequencies --   3109.8010              3120.3805              3456.4548
 Red. masses --      1.0981                 1.1034                 1.0767
 Frc consts  --      6.2567                 6.3296                 7.5792
 IR Inten    --     35.0068                15.6703                13.1531

                    112                    113                    114
                      A                      A                      A
 Frequencies --   3479.8247              3555.9407              3557.6316
 Red. masses --      1.0499                 1.0913                 1.0748
 Frc consts  --      7.4905                 8.1300                 8.0147
 IR Inten    --      0.9710                 0.2496                 4.1258

 - Thermochemistry -
 -------------------
 Temperature   298.150 Kelvin.  Pressure   1.00000 Atm.
 Atom     1 has atomic number  6 and mass  12.00000

 Molecular mass:   254.17428 amu.
 Principal axes and moments of inertia in atomic units:
                           1         2         3
     Eigenvalues --  2944.062977414.658289053.79193
           X            0.99953   0.03050  -0.00426
           Y           -0.03046   0.99950   0.00837
           Z            0.00451  -0.00823   0.99996
 This molecule is an asymmetric top.
 Rotational symmetry number  1.
 Warning -- assumption of classical behavior for rotation
           may cause significant error
 Rotational temperatures (Kelvin)      0.02942     0.01168     0.00957
 Rotational constants (GHZ):           0.61301     0.24340     0.19934
 Zero-point vibrational energy     910885.7 (Joules/Mol)
                                  217.70691 (Kcal/Mol)
 Warning -- explicit consideration of  30 degrees of freedom as
           vibrations may cause significant error
 Vibrational temperatures:     38.27    45.20    68.13    91.50   107.90
          (Kelvin)            149.86   158.10   175.36   197.24   253.91
                              264.30   330.87   348.71   361.64   377.29
                              391.62   440.55   466.19   482.17   494.50
                              575.23   582.84   627.56   681.98   688.03
                              716.78   764.78   805.84   818.94   876.66
                              991.71  1022.33  1026.28  1039.83  1089.62
                             1104.58  1180.90  1244.59  1271.61  1293.96
                             1325.24  1344.33  1358.43  1402.14  1420.21
                             1442.25  1451.76  1493.01  1512.60  1535.34
                             1554.08  1569.84  1587.93  1603.90  1618.50
                             1644.86  1658.79  1669.05  1676.73  1696.42
                             1738.72  1792.86  1802.49  1818.89  1841.80
                             1867.49  1875.98  1904.65  1918.13  1929.23
                             1935.52  1955.62  1964.54  1969.24  1985.91
                             2002.57  2019.57  2037.41  2040.03  2052.40
                             2098.93  2124.41  2129.27  2136.76  2147.66
                             2157.32  2159.53  2164.12  2185.27  2388.02
                             2568.35  2878.80  4268.77  4326.73  4332.25
                             4342.22  4356.28  4356.96  4370.93  4373.51
                             4389.90  4401.04  4404.98  4418.47  4425.80
                             4434.28  4459.27  4464.67  4474.31  4489.53
                             4973.07  5006.69  5116.21  5118.64

 Zero-point correction=                           0.346938 (Hartree/Particle)
 Thermal correction to Energy=                    0.365957
 Thermal correction to Enthalpy=                  0.366901
 Thermal correction to Gibbs Free Energy=         0.298715
 Sum of electronic and zero-point Energies=           -839.580488
 Sum of electronic and thermal Energies=              -839.561468
 Sum of electronic and thermal Enthalpies=            -839.560524
 Sum of electronic and thermal Free Energies=         -839.628711

                     E (Thermal)             CV                S
                      KCal/Mol        Cal/Mol-Kelvin    Cal/Mol-Kelvin
 Total                  229.642             71.940            143.511
 Electronic               0.000              0.000              0.000
 Translational            0.889              2.981             42.499
 Rotational               0.889              2.981             33.646
 Vibrational            227.864             65.978             67.366
 Vibration     1          0.593              1.984              6.068
 Vibration     2          0.594              1.983              5.738
 Vibration     3          0.595              1.979              4.925
 Vibration     4          0.597              1.972              4.342
 Vibration     5          0.599              1.966              4.018
 Vibration     6          0.605              1.946              3.375
 Vibration     7          0.606              1.941              3.271
 Vibration     8          0.609              1.931              3.070
 Vibration     9          0.614              1.916              2.844
 Vibration    10          0.628              1.871              2.365
 Vibration    11          0.631              1.862              2.291
 Vibration    12          0.652              1.795              1.879
 Vibration    13          0.659              1.775              1.785
 Vibration    14          0.663              1.760              1.721
 Vibration    15          0.670              1.742              1.647
 Vibration    16          0.675              1.725              1.582
 Vibration    17          0.697              1.662              1.383
 Vibration    18          0.709              1.627              1.290
 Vibration    19          0.716              1.605              1.235
 Vibration    20          0.722              1.588              1.195
 Vibration    21          0.766              1.471              0.963
 Vibration    22          0.770              1.459              0.944
 Vibration    23          0.797              1.391              0.839
 Vibration    24          0.831              1.308              0.726
 Vibration    25          0.835              1.298              0.715
 Vibration    26          0.854              1.254              0.663
 Vibration    27          0.887              1.180              0.584
 Vibration    28          0.916              1.118              0.524
 Vibration    29          0.925              1.098              0.506
 Vibration    30          0.968              1.012              0.434

                           ! Non-Optimized Parameters !
 Normal termination of Gaussian 16 at Sun May 28 07:50:37 2023.
