 Gaussian 16, Revision A.03,
 Gaussian 16:  ES64L-G16RevA.03 25-Dec-2016

 -----------------------------
 # opt freq b3lyp/6-31g(2df,p)
 -----------------------------

 -------------------
 Title Card Required
 -------------------
 Symbolic Z-matrix:
 Charge =  0 Multiplicity = 1

 SCF Done:  E(RB3LYP) =  -533.597642316     A.U. after   12 cycles
 SCF Done:  E(RB3LYP) =  -533.602332036     A.U. after   11 cycles
 SCF Done:  E(RB3LYP) =  -533.603471312     A.U. after   10 cycles
 SCF Done:  E(RB3LYP) =  -533.604363978     A.U. after   10 cycles
 SCF Done:  E(RB3LYP) =  -533.604630162     A.U. after   10 cycles
 SCF Done:  E(RB3LYP) =  -533.604755868     A.U. after    9 cycles
 SCF Done:  E(RB3LYP) =  -533.604824157     A.U. after    9 cycles
 SCF Done:  E(RB3LYP) =  -533.604849179     A.U. after    8 cycles
 SCF Done:  E(RB3LYP) =  -533.604854174     A.U. after    8 cycles
 SCF Done:  E(RB3LYP) =  -533.604854698     A.U. after    6 cycles
 SCF Done:  E(RB3LYP) =  -533.604854819     A.U. after    6 cycles
 SCF Done:  E(RB3LYP) =  -533.604854891     A.U. after    5 cycles
 SCF Done:  E(RB3LYP) =  -533.604854923     A.U. after    5 cycles
 Optimization completed.
    -- Stationary point found.
 Normal termination of Gaussian 16 at Sun May 28 09:09:00 2023.

 ----------------------------------------------------------------------
 #N Geom=AllCheck Guess=TCheck SCRF=Check GenChk RB3LYP/6-31G(2df,p) Fr
 eq
 ----------------------------------------------------------------------

 Structure from the checkpoint file:  "CC1CC1qCrCqFrqFrF.chk"
 -------------------
 Title Card Required
 -------------------
 Charge =  0 Multiplicity = 1

                         Standard orientation:
 ---------------------------------------------------------------------
 Center     Atomic      Atomic             Coordinates (Angstroms)
 Number     Number       Type             X           Y           Z
 ---------------------------------------------------------------------
      1          6           0        2.742653   -0.208325   -0.641278
      2          6           0        1.395082   -0.668153   -0.130904
      3          6           0        0.987977   -0.506861    1.312891
      4          6           0        0.289739    0.301491    0.241864
      5          6           0        0.473497    1.805669    0.165910
      6          6           0       -1.110851   -0.125657   -0.113217
      7          9           0       -1.286309   -1.456083   -0.023246
      8          9           0       -2.023461    0.445595    0.694486
      9          9           0       -1.430067    0.230445   -1.371403
     10          1           0        3.487832   -0.998870   -0.503385
     11          1           0        3.106368    0.676792   -0.112752
     12          1           0        2.705197    0.030262   -1.709622
     13          1           0        1.041827   -1.584051   -0.594838
     14          1           0        1.653120    0.042434    1.971466
     15          1           0        0.445092   -1.313735    1.790583
     16          1           0        1.479347    2.096060    0.473376
     17          1           0       -0.237195    2.310316    0.826858
     18          1           0        0.308361    2.172183   -0.851819
 ---------------------------------------------------------------------

 SCF Done:  E(RB3LYP) =  -533.604854923     A.U. after    1 cycles

 The electronic state is 1-A.
 Alpha  occ. eigenvalues --  -24.71513 -24.70885 -24.70876 -10.40931 -10.21454
 Alpha  occ. eigenvalues --  -10.20376 -10.19468 -10.18830 -10.18644  -1.29741
 Alpha  occ. eigenvalues --   -1.21029  -1.20583  -0.88559  -0.74907  -0.71287
 Alpha  occ. eigenvalues --   -0.69477  -0.61227  -0.58757  -0.57468  -0.56498
 Alpha  occ. eigenvalues --   -0.53109  -0.46326  -0.45679  -0.44841  -0.44290
 Alpha  occ. eigenvalues --   -0.43056  -0.42189  -0.41076  -0.40374  -0.39355
 Alpha  occ. eigenvalues --   -0.39137  -0.38820  -0.36356  -0.35183  -0.29552
 Alpha  occ. eigenvalues --   -0.28766
 Alpha virt. eigenvalues --    0.08731   0.10415   0.11116   0.12513   0.13783
 Alpha virt. eigenvalues --    0.14364   0.15356   0.15845   0.16834   0.18354
 Alpha virt. eigenvalues --    0.20273   0.22169   0.23121   0.24053   0.25865

 Mulliken charges:
               1
     1  C   -0.421392
     2  C   -0.028103
     3  C   -0.335421
     4  C    0.158757
     5  C   -0.481577
     6  C    0.256883
     7  F   -0.085876
     8  F   -0.084590
     9  F   -0.085147
    10  H    0.125357
    11  H    0.118402
    12  H    0.125537
    13  H    0.103779
    14  H    0.113900
    15  H    0.128446
    16  H    0.122136
    17  H    0.135404
    18  H    0.133505
 Sum of Mulliken charges =  -0.00000

 Dipole moment (field-independent basis, Debye):
    X=              2.1677    Y=              0.4370    Z=              0.4096  Tot=              2.2489
 Quadrupole moment (field-independent basis, Debye-Ang):
   XX=            -53.1035   YY=            -51.1655   ZZ=            -52.0402
   XY=              0.2029   XZ=             -0.1333   YZ=              0.2345

  Exact polarizability:  69.288  -2.553  63.647  -1.704  -0.811  61.159
 Approx polarizability:  90.625  -3.623  90.645  -0.858  -0.667  91.614

                      1                      2                      3
                      A                      A                      A
 Frequencies --     60.2845               151.0473               160.9780
 Red. masses --      5.5289                 2.9033                 1.1993
 Frc consts  --      0.0118                 0.0390                 0.0183
 IR Inten    --      0.0710                 0.3634                 0.0089

                      4                      5                      6
                      A                      A                      A
 Frequencies --    178.1743               216.1785               279.6722
 Red. masses --      1.2044                 3.0851                 2.2273
 Frc consts  --      0.0225                 0.0849                 0.1026
 IR Inten    --      0.0111                 0.6471                 0.2507

                      7                      8                      9
                      A                      A                      A
 Frequencies --    281.6573               321.8906               393.6324
 Red. masses --      3.3221                 4.5515                 6.5667
 Frc consts  --      0.1553                 0.2779                 0.5995
 IR Inten    --      0.2832                 3.6337                 2.7686

                     10                     11                     12
                      A                      A                      A
 Frequencies --    433.4177               460.0723               548.8947
 Red. masses --      2.1739                 4.6577                 4.5181
 Frc consts  --      0.2406                 0.5809                 0.8020
 IR Inten    --      1.4179                 0.9536                 6.1489

                     13                     14                     15
                      A                      A                      A
 Frequencies --    578.4561               590.6797               734.9341
 Red. masses --      9.6383                 5.5865                 7.6436
 Frc consts  --      1.9002                 1.1484                 2.4325
 IR Inten    --      1.4638                 2.0018                 2.0387

                     16                     17                     18
                      A                      A                      A
 Frequencies --    799.5956               860.6293               893.8857
 Red. masses --      2.2302                 2.5446                 1.2243
 Frc consts  --      0.8401                 1.1105                 0.5764
 IR Inten    --      3.7825                 3.0041                 5.3182

                     19                     20                     21
                      A                      A                      A
 Frequencies --    943.1782               971.0651              1031.7586
 Red. masses --      2.3864                 1.3893                 1.3276
 Frc consts  --      1.2508                 0.7719                 0.8327
 IR Inten    --      2.9644                 4.0408                 4.4451

                     22                     23                     24
                      A                      A                      A
 Frequencies --   1062.7533              1108.9216              1125.7333
 Red. masses --      1.3061                 1.8506                 2.2825
 Frc consts  --      0.8691                 1.3408                 1.7042
 IR Inten    --      7.7405                35.9229                13.4634

                     25                     26                     27
                      A                      A                      A
 Frequencies --   1137.2461              1171.1129              1177.2027
 Red. masses --      1.8402                 4.2733                 2.5733
 Frc consts  --      1.4023                 3.4531                 2.1011
 IR Inten    --     26.7107               127.9074               113.8413

                     28                     29                     30
                      A                      A                      A
 Frequencies --   1188.9016              1208.7476              1325.4091
 Red. masses --      4.6361                 2.4300                 1.8494
 Frc consts  --      3.8609                 2.0918                 1.9142
 IR Inten    --    167.6754                65.0236                14.7339

                     31                     32                     33
                      A                      A                      A
 Frequencies --   1352.1807              1408.2107              1418.3588
 Red. masses --      4.1985                 1.3061                 1.2550
 Frc consts  --      4.5229                 1.5260                 1.4876
 IR Inten    --     89.0247                 9.5121                 1.1982

                     34                     35                     36
                      A                      A                      A
 Frequencies --   1433.1440              1483.9226              1490.7136
 Red. masses --      1.6492                 1.0442                 1.2771
 Frc consts  --      1.9958                 1.3547                 1.6721
 IR Inten    --     22.7779                 3.9103                 7.4515

                     37                     38                     39
                      A                      A                      A
 Frequencies --   1496.0841              1499.3025              1518.2828
 Red. masses --      1.0631                 1.0607                 1.1938
 Frc consts  --      1.4019                 1.4048                 1.6214
 IR Inten    --      4.0104                 2.7071                18.3036

                     40                     41                     42
                      A                      A                      A
 Frequencies --   3035.2826              3048.1934              3095.1725
 Red. masses --      1.0362                 1.0366                 1.1012
 Frc consts  --      5.6248                 5.6746                 6.2154
 IR Inten    --     25.7243                18.9700                19.9714

                     43                     44                     45
                      A                      A                      A
 Frequencies --   3110.0613              3111.5830              3133.9050
 Red. masses --      1.0994                 1.1014                 1.0734
 Frc consts  --      6.2655                 6.2828                 6.2111
 IR Inten    --     11.6449                19.2641                 4.5874

                     46                     47                     48
                      A                      A                      A
 Frequencies --   3137.2080              3158.9784              3225.0584
 Red. masses --      1.0804                 1.0878                 1.1159
 Frc consts  --      6.2653                 6.3957                 6.8382
 IR Inten    --     20.5560                11.2977                 5.3917

 - Thermochemistry -
 -------------------
 Temperature   298.150 Kelvin.  Pressure   1.00000 Atm.
 Atom     1 has atomic number  6 and mass  12.00000

 Molecular mass:   138.06564 amu.
 Principal axes and moments of inertia in atomic units:
                           1         2         3
     Eigenvalues --   709.950491462.078521570.62679
           X            0.99990  -0.00143  -0.01390
           Y            0.00150   0.99999   0.00450
           Z            0.01389  -0.00452   0.99989
 This molecule is an asymmetric top.
 Rotational symmetry number  1.
 Warning -- assumption of classical behavior for rotation
           may cause significant error
 Rotational temperatures (Kelvin)      0.12200     0.05924     0.05515
 Rotational constants (GHZ):           2.54207     1.23437     1.14906
 Zero-point vibrational energy     374142.6 (Joules/Mol)
                                   89.42222 (Kcal/Mol)
 Warning -- explicit consideration of  14 degrees of freedom as
           vibrations may cause significant error
 Vibrational temperatures:     86.74   217.32   231.61   256.35   311.03
          (Kelvin)            402.39   405.24   463.13   566.35   623.59
                              661.94   789.74   832.27   849.86  1057.41
                             1150.44  1238.25  1286.10  1357.02  1397.15
                             1484.47  1529.06  1595.49  1619.68  1636.24
                             1684.97  1693.73  1710.56  1739.12  1906.97
                             1945.49  2026.10  2040.70  2061.97  2135.03
                             2144.80  2152.53  2157.16  2184.47  4367.09
                             4385.67  4453.26  4474.68  4476.87  4508.99
                             4513.74  4545.07  4640.14

 Zero-point correction=                           0.142503 (Hartree/Particle)
 Thermal correction to Energy=                    0.151855
 Thermal correction to Enthalpy=                  0.152799
 Thermal correction to Gibbs Free Energy=         0.108297
 Sum of electronic and zero-point Energies=           -533.462352
 Sum of electronic and thermal Energies=              -533.453000
 Sum of electronic and thermal Enthalpies=            -533.452056
 Sum of electronic and thermal Free Energies=         -533.496557

                     E (Thermal)             CV                S
                      KCal/Mol        Cal/Mol-Kelvin    Cal/Mol-Kelvin
 Total                   95.290             34.518             93.662
 Electronic               0.000              0.000              0.000
 Translational            0.889              2.981             40.679
 Rotational               0.889              2.981             28.879
 Vibrational             93.513             28.556             24.103
 Vibration     1          0.597              1.973              4.448
 Vibration     2          0.618              1.902              2.659
 Vibration     3          0.622              1.890              2.538
 Vibration     4          0.629              1.869              2.347
 Vibration     5          0.645              1.816              1.991
 Vibration     6          0.680              1.711              1.536
 Vibration     7          0.681              1.708              1.524
 Vibration     8          0.707              1.632              1.300
 Vibration     9          0.761              1.484              0.986
 Vibration    10          0.794              1.397              0.848
 Vibration    11          0.818              1.339              0.766
 Vibration    12          0.904              1.142              0.546
 Vibration    13          0.935              1.078              0.488
 Vibration    14          0.948              1.052              0.466

 Optimization completed.
    -- Stationary point found.
 Normal termination of Gaussian 16 at Sun May 28 09:43:46 2023.
