 Gaussian 16, Revision A.03,
 Gaussian 16:  ES64L-G16RevA.03 25-Dec-2016

 -----------------------------
 # opt freq b3lyp/6-31g(2df,p)
 -----------------------------

 -------------------
 Title Card Required
 -------------------
 Symbolic Z-matrix:
 Charge =  0 Multiplicity = 1

 SCF Done:  E(RB3LYP) =  -314.531513865     A.U. after   12 cycles
 SCF Done:  E(RB3LYP) =  -314.532507289     A.U. after   10 cycles
 SCF Done:  E(RB3LYP) =  -314.532673181     A.U. after    8 cycles
 SCF Done:  E(RB3LYP) =  -314.532684518     A.U. after    8 cycles
 SCF Done:  E(RB3LYP) =  -314.532685323     A.U. after    6 cycles
 Optimization completed.
    -- Stationary point found.
 Normal termination of Gaussian 16 at Sun May 28 15:38:13 2023.

 ----------------------------------------------------------------------
 #N Geom=AllCheck Guess=TCheck SCRF=Check GenChk RB3LYP/6-31G(2df,p) Fr
 eq
 ----------------------------------------------------------------------

 Structure from the checkpoint file:  "CC1CCCCqCrC1.chk"
 -------------------
 Title Card Required
 -------------------
 Charge =  0 Multiplicity = 1

                         Standard orientation:
 ---------------------------------------------------------------------
 Center     Atomic      Atomic             Coordinates (Angstroms)
 Number     Number       Type             X           Y           Z
 ---------------------------------------------------------------------
      1          6           0        1.862611   -1.217278   -0.802422
      2          6           0        1.258111   -0.643488    0.489059
      3          6           0        1.446412    0.883893    0.601325
      4          6           0        0.525605    1.668907   -0.345011
      5          6           0       -0.945278    1.281738   -0.139611
      6          6           0       -1.170386   -0.232332   -0.291217
      7          6           0       -2.635419   -0.612749   -0.056024
      8          6           0       -0.233184   -1.004290    0.655598
      9          1           0        2.932646   -0.991365   -0.864844
     10          1           0        1.390262   -0.812896   -1.702886
     11          1           0        1.749625   -2.306353   -0.835105
     12          1           0        1.801559   -1.105187    1.324135
     13          1           0        2.495041    1.146099    0.416020
     14          1           0        1.228503    1.189326    1.633943
     15          1           0        0.809595    1.478355   -1.388161
     16          1           0        0.659087    2.745083   -0.185473
     17          1           0       -1.585643    1.828068   -0.842928
     18          1           0       -1.263026    1.586998    0.868777
     19          1           0       -0.916664   -0.504889   -1.325986
     20          1           0       -2.946539   -0.361272    0.965217
     21          1           0       -2.796527   -1.687254   -0.195738
     22          1           0       -3.300798   -0.081451   -0.745263
     23          1           0       -0.372363   -2.084286    0.518034
     24          1           0       -0.535586   -0.785375    1.690076
 ---------------------------------------------------------------------

 SCF Done:  E(RB3LYP) =  -314.532685323     A.U. after    1 cycles

 The electronic state is 1-A.
 Alpha  occ. eigenvalues --  -10.17841 -10.17735 -10.17134 -10.17025 -10.16991
 Alpha  occ. eigenvalues --  -10.16876 -10.16666 -10.16642  -0.82969  -0.76468
 Alpha  occ. eigenvalues --   -0.74299  -0.67217  -0.66678  -0.59439  -0.57273
 Alpha  occ. eigenvalues --   -0.52557  -0.46791  -0.44512  -0.43889  -0.42186
 Alpha  occ. eigenvalues --   -0.41283  -0.39273  -0.38546  -0.36720  -0.35852
 Alpha  occ. eigenvalues --   -0.34824  -0.33459  -0.32997  -0.32054  -0.30209
 Alpha  occ. eigenvalues --   -0.28737  -0.28461
 Alpha virt. eigenvalues --    0.07849   0.10045   0.11044   0.12728   0.14782
 Alpha virt. eigenvalues --    0.14898   0.16118   0.16717   0.17193   0.18015
 Alpha virt. eigenvalues --    0.18273   0.18345   0.19315   0.19808   0.20432

 Mulliken charges:
               1
     1  C   -0.389480
     2  C    0.023708
     3  C   -0.190592
     4  C   -0.204390
     5  C   -0.174154
     6  C    0.051956
     7  C   -0.401243
     8  C   -0.188704
     9  H    0.108086
    10  H    0.116154
    11  H    0.108278
    12  H    0.062199
    13  H    0.083888
    14  H    0.086716
    15  H    0.093628
    16  H    0.087521
    17  H    0.083757
    18  H    0.085794
    19  H    0.068415
    20  H    0.109574
    21  H    0.106964
    22  H    0.106422
    23  H    0.081959
    24  H    0.083544
 Sum of Mulliken charges =   0.00000

 Dipole moment (field-independent basis, Debye):
    X=              0.0775    Y=              0.0097    Z=              0.0006  Tot=              0.0781
 Quadrupole moment (field-independent basis, Debye-Ang):
   XX=            -53.8050   YY=            -53.1356   ZZ=            -52.7680
   XY=             -0.1156   XZ=              0.2536   YZ=              0.0181

  Exact polarizability:  92.586   0.198  85.206  -0.024   0.054  75.727
 Approx polarizability: 118.195  -0.333 117.908  -0.452   0.651 117.953

                      1                      2                      3
                      A                      A                      A
 Frequencies --    137.7248               158.1723               214.0073
 Red. masses --      2.3933                 2.2981                 1.0459
 Frc consts  --      0.0267                 0.0339                 0.0282
 IR Inten    --      0.0283                 0.0439                 0.0603

                      4                      5                      6
                      A                      A                      A
 Frequencies --    234.1333               264.5504               304.3665
 Red. masses --      1.0617                 2.1671                 2.0743
 Frc consts  --      0.0343                 0.0894                 0.1132
 IR Inten    --      0.0089                 0.0193                 0.0064

                      7                      8                      9
                      A                      A                      A
 Frequencies --    348.6823               368.6792               432.0069
 Red. masses --      2.2702                 2.2149                 1.8749
 Frc consts  --      0.1626                 0.1774                 0.2062
 IR Inten    --      0.0499                 0.1636                 0.0586

                     10                     11                     12
                      A                      A                      A
 Frequencies --    448.4697               484.1532               625.7243
 Red. masses --      2.4691                 2.4076                 2.1047
 Frc consts  --      0.2926                 0.3325                 0.4855
 IR Inten    --      0.1004                 0.1320                 1.3461

                     13                     14                     15
                      A                      A                      A
 Frequencies --    752.4023               804.7809               845.1347
 Red. masses --      2.7249                 2.1846                 1.6457
 Frc consts  --      0.9089                 0.8337                 0.6926
 IR Inten    --      0.0317                 0.0811                 1.8204

                     16                     17                     18
                      A                      A                      A
 Frequencies --    864.1777               868.1718               940.6187
 Red. masses --      1.7973                 1.6487                 1.8960
 Frc consts  --      0.7908                 0.7322                 0.9884
 IR Inten    --      0.9495                 0.3110                 0.2403

                     19                     20                     21
                      A                      A                      A
 Frequencies --    951.0660               972.7772               990.9450
 Red. masses --      1.6844                 1.4846                 1.6575
 Frc consts  --      0.8977                 0.8277                 0.9590
 IR Inten    --      0.4545                 1.5010                 1.3002

                     22                     23                     24
                      A                      A                      A
 Frequencies --   1015.7872              1030.4973              1067.2998
 Red. masses --      1.6395                 1.5909                 1.5639
 Frc consts  --      0.9967                 0.9954                 1.0496
 IR Inten    --      0.0582                 0.3868                 0.6149

                     25                     26                     27
                      A                      A                      A
 Frequencies --   1086.6582              1111.8433              1121.4135
 Red. masses --      1.2811                 2.7098                 1.4031
 Frc consts  --      0.8913                 1.9737                 1.0396
 IR Inten    --      0.2189                 0.9609                 0.5795

                     28                     29                     30
                      A                      A                      A
 Frequencies --   1186.1017              1187.7348              1233.9354
 Red. masses --      1.5009                 2.3019                 1.5702
 Frc consts  --      1.2440                 1.9133                 1.4086
 IR Inten    --      1.8850                 0.2723                 0.8195

                     31                     32                     33
                      A                      A                      A
 Frequencies --   1281.7824              1292.7398              1316.2569
 Red. masses --      1.3027                 1.2573                 1.3767
 Frc consts  --      1.2611                 1.2380                 1.4053
 IR Inten    --      1.0505                 1.2089                 0.8240

                     34                     35                     36
                      A                      A                      A
 Frequencies --   1337.8019              1353.7718              1362.0880
 Red. masses --      1.3007                 1.3774                 1.4576
 Frc consts  --      1.3715                 1.4874                 1.5934
 IR Inten    --      0.4750                 0.5253                 6.7138

                     37                     38                     39
                      A                      A                      A
 Frequencies --   1374.3196              1379.9844              1395.4824
 Red. masses --      1.4771                 1.4107                 1.3531
 Frc consts  --      1.6438                 1.5828                 1.5525
 IR Inten    --      0.5504                 2.0814                 0.5509

                     40                     41                     42
                      A                      A                      A
 Frequencies --   1398.5389              1411.1791              1416.0258
 Red. masses --      1.5035                 1.2607                 1.2734
 Frc consts  --      1.7327                 1.4792                 1.5043
 IR Inten    --      0.1170                 1.9158                 7.5226

                     43                     44                     45
                      A                      A                      A
 Frequencies --   1478.7797              1480.9291              1486.4150
 Red. masses --      1.0889                 1.0843                 1.0811
 Frc consts  --      1.4030                 1.4012                 1.4073
 IR Inten    --      0.5595                 0.8042                 3.7041

                     46                     47                     48
                      A                      A                      A
 Frequencies --   1496.6709              1499.1607              1500.4349
 Red. masses --      1.0447                 1.0741                 1.0603
 Frc consts  --      1.3788                 1.4223                 1.4064
 IR Inten    --      3.8228                 3.0810                 2.9864

                     49                     50                     51
                      A                      A                      A
 Frequencies --   1504.6236              1508.9536              2990.0995
 Red. masses --      1.0661                 1.0677                 1.0750
 Frc consts  --      1.4220                 1.4324                 5.6628
 IR Inten    --      8.0561                 0.6146                 2.6239

                     52                     53                     54
                      A                      A                      A
 Frequencies --   2994.0414              3001.6816              3004.9324
 Red. masses --      1.0660                 1.0737                 1.0659
 Frc consts  --      5.6304                 5.6999                 5.6709
 IR Inten    --      4.9053                28.1193                25.9750

                     55                     56                     57
                      A                      A                      A
 Frequencies --   3017.5947              3019.1857              3021.7486
 Red. masses --      1.0671                 1.0629                 1.0407
 Frc consts  --      5.7253                 5.7083                 5.5987
 IR Inten    --     67.5790                14.0427                51.6677

                     58                     59                     60
                      A                      A                      A
 Frequencies --   3031.6608              3042.0402              3048.4147
 Red. masses --      1.0401                 1.0987                 1.0979
 Frc consts  --      5.6324                 5.9903                 6.0112
 IR Inten    --     15.4204                47.0051                35.7604

                     61                     62                     63
                      A                      A                      A
 Frequencies --   3052.8896              3062.4446              3086.7296
 Red. masses --      1.0924                 1.1038                 1.1004
 Frc consts  --      5.9988                 6.0992                 6.1774
 IR Inten    --     45.8443                71.3011                46.4414

                     64                     65                     66
                      A                      A                      A
 Frequencies --   3092.5565              3093.2728              3104.2732
 Red. masses --      1.1015                 1.1012                 1.0994
 Frc consts  --      6.2066                 6.2082                 6.2418
 IR Inten    --     19.9240                47.3419                43.7821

 - Thermochemistry -
 -------------------
 Temperature   298.150 Kelvin.  Pressure   1.00000 Atm.
 Atom     1 has atomic number  6 and mass  12.00000

 Molecular mass:   112.12520 amu.
 Principal axes and moments of inertia in atomic units:
                           1         2         3
     Eigenvalues --   639.925231074.250671416.25680
           X            0.99997   0.00072  -0.00756
           Y           -0.00066   0.99997   0.00735
           Z            0.00756  -0.00734   0.99994
 This molecule is an asymmetric top.
 Rotational symmetry number  1.
 Warning -- assumption of classical behavior for rotation
           may cause significant error
 Rotational temperatures (Kelvin)      0.13535     0.08063     0.06116
 Rotational constants (GHZ):           2.82024     1.68000     1.27430
 Zero-point vibrational energy     592100.8 (Joules/Mol)
                                  141.51548 (Kcal/Mol)
 Warning -- explicit consideration of  11 degrees of freedom as
           vibrations may cause significant error
 Vibrational temperatures:    198.16   227.57   307.91   336.87   380.63
          (Kelvin)            437.92   501.68   530.45   621.56   645.25
                              696.59   900.28  1082.54  1157.90  1215.96
                             1243.36  1249.11  1353.34  1368.37  1399.61
                             1425.75  1461.49  1482.66  1535.61  1563.46
                             1599.69  1613.46  1706.54  1708.89  1775.36
                             1844.20  1859.96  1893.80  1924.80  1947.78
                             1959.74  1977.34  1985.49  2007.79  2012.19
                             2030.37  2037.35  2127.63  2130.73  2138.62
                             2153.38  2156.96  2158.79  2164.82  2171.05
                             4302.09  4307.76  4318.75  4323.43  4341.65
                             4343.93  4347.62  4361.88  4376.82  4385.99
                             4392.43  4406.17  4441.12  4449.50  4450.53
                             4466.36

 Zero-point correction=                           0.225519 (Hartree/Particle)
 Thermal correction to Energy=                    0.234101
 Thermal correction to Enthalpy=                  0.235045
 Thermal correction to Gibbs Free Energy=         0.193227
 Sum of electronic and zero-point Energies=           -314.307166
 Sum of electronic and thermal Energies=              -314.298584
 Sum of electronic and thermal Enthalpies=            -314.297640
 Sum of electronic and thermal Free Energies=         -314.339458

                     E (Thermal)             CV                S
                      KCal/Mol        Cal/Mol-Kelvin    Cal/Mol-Kelvin
 Total                  146.901             34.182             88.013
 Electronic               0.000              0.000              0.000
 Translational            0.889              2.981             40.059
 Rotational               0.889              2.981             28.367
 Vibrational            145.123             28.221             19.587
 Vibration     1          0.614              1.916              2.835
 Vibration     2          0.621              1.893              2.572
 Vibration     3          0.644              1.820              2.009
 Vibration     4          0.654              1.789              1.847
 Vibration     5          0.671              1.738              1.632
 Vibration     6          0.695              1.665              1.393
 Vibration     7          0.726              1.578              1.172
 Vibration     8          0.741              1.537              1.085
 Vibration     9          0.793              1.401              0.852
 Vibration    10          0.807              1.364              0.800
 Vibration    11          0.840              1.285              0.699

 Optimization completed.
    -- Stationary point found.
 Normal termination of Gaussian 16 at Sun May 28 16:13:26 2023.
