 Gaussian 16, Revision A.03,
 Gaussian 16:  ES64L-G16RevA.03 25-Dec-2016

 -----------------------------
 # opt freq b3lyp/6-31g(2df,p)
 -----------------------------

 -------------------
 Title Card Required
 -------------------
 Symbolic Z-matrix:
 Charge =  0 Multiplicity = 1

 SCF Done:  E(RB3LYP) =  -702.799562199     A.U. after   13 cycles
 SCF Done:  E(RB3LYP) =  -702.816253685     A.U. after   11 cycles
 SCF Done:  E(RB3LYP) =  -702.821539744     A.U. after   11 cycles
 SCF Done:  E(RB3LYP) =  -702.826170869     A.U. after   10 cycles
 SCF Done:  E(RB3LYP) =  -702.831156294     A.U. after   11 cycles
 SCF Done:  E(RB3LYP) =  -702.833087593     A.U. after   11 cycles
 SCF Done:  E(RB3LYP) =  -702.835248404     A.U. after   10 cycles
 SCF Done:  E(RB3LYP) =  -702.836103350     A.U. after   11 cycles
 SCF Done:  E(RB3LYP) =  -702.837286047     A.U. after   12 cycles
 SCF Done:  E(RB3LYP) =  -702.837997047     A.U. after   10 cycles
 SCF Done:  E(RB3LYP) =  -702.844046155     A.U. after   11 cycles
 SCF Done:  E(RB3LYP) =  -702.844694144     A.U. after   11 cycles
 SCF Done:  E(RB3LYP) =  -702.844817980     A.U. after   10 cycles
 SCF Done:  E(RB3LYP) =  -702.844831163     A.U. after   10 cycles
 SCF Done:  E(RB3LYP) =  -702.844874806     A.U. after    9 cycles
 SCF Done:  E(RB3LYP) =  -702.844893237     A.U. after    8 cycles
 SCF Done:  E(RB3LYP) =  -702.844895311     A.U. after    7 cycles
 SCF Done:  E(RB3LYP) =  -702.844895756     A.U. after    7 cycles
 SCF Done:  E(RB3LYP) =  -702.844895875     A.U. after    6 cycles
 Optimization completed.
    -- Stationary point found.

 The electronic state is 1-A.
 Alpha  occ. eigenvalues --  -10.18371 -10.18340 -10.18291 -10.18129 -10.17846
 Alpha  occ. eigenvalues --  -10.17843 -10.17733 -10.17653 -10.17620 -10.17566
 Alpha  occ. eigenvalues --  -10.17476 -10.17461 -10.17437 -10.17433 -10.17400
 Alpha  occ. eigenvalues --  -10.16975 -10.16861 -10.16824  -0.85160  -0.81827
 Alpha  occ. eigenvalues --   -0.80499  -0.78059  -0.76250  -0.74462  -0.72425
 Alpha  occ. eigenvalues --   -0.70409  -0.66941  -0.66790  -0.63216  -0.60662
 Alpha  occ. eigenvalues --   -0.58872  -0.58252  -0.56115  -0.55513  -0.54966
 Alpha  occ. eigenvalues --   -0.49239  -0.48376  -0.46036  -0.45057  -0.44643
 Alpha  occ. eigenvalues --   -0.43780  -0.43568  -0.42752  -0.41932  -0.40825
 Alpha  occ. eigenvalues --   -0.40018  -0.39647  -0.39452  -0.39308  -0.38183
 Alpha  occ. eigenvalues --   -0.37402  -0.36563  -0.35561  -0.35223  -0.34880
 Alpha  occ. eigenvalues --   -0.34721  -0.33816  -0.33501  -0.33153  -0.31601
 Alpha  occ. eigenvalues --   -0.31494  -0.31300  -0.30908  -0.30611  -0.29326
 Alpha  occ. eigenvalues --   -0.28788  -0.23721  -0.22902
 Alpha virt. eigenvalues --    0.00526   0.00864   0.08408   0.08657   0.09565
 Alpha virt. eigenvalues --    0.09851   0.10804   0.11349   0.11606   0.12612
 Alpha virt. eigenvalues --    0.13379   0.14230   0.14484   0.14870   0.15105

 Mulliken charges:
               1
     1  C   -0.403927
     2  C    0.051014
     3  C   -0.211448
     4  C   -0.190779
     5  C   -0.329743
     6  C    0.227135
     7  C   -0.183794
     8  C   -0.118001
     9  C   -0.121777
    10  C   -0.170631
    11  C    0.227916
    12  C   -0.345170
    13  C   -0.174980
    14  C    0.037951
    15  C   -0.398812
    16  C   -0.188619
    17  C   -0.209373
    18  C   -0.172248
    19  H    0.108178
    20  H    0.111509
    21  H    0.112204
    22  H    0.066808
    23  H    0.089422
    24  H    0.087786
    25  H    0.095772
    26  H    0.103994
    27  H    0.116651
    28  H    0.096425
    29  H    0.083679
    30  H    0.091210
    31  H    0.091138
    32  H    0.082706
    33  H    0.097987
    34  H    0.111654
    35  H    0.097232
    36  H    0.093453
    37  H    0.067939
    38  H    0.113233
    39  H    0.108583
    40  H    0.107442
    41  H    0.088554
    42  H    0.088748
    43  H    0.092066
    44  H    0.092586
    45  H    0.093896
    46  H    0.084429
 Sum of Mulliken charges =  -0.00000

 Dipole moment (field-independent basis, Debye):
    X=              0.5440    Y=             -0.0098    Z=             -0.0345  Tot=              0.5452
 Quadrupole moment (field-independent basis, Debye-Ang):
   XX=           -112.5140   YY=           -111.4286   ZZ=           -113.6854
   XY=              0.3878   XZ=              0.0387   YZ=             -2.8642

 Normal termination of Gaussian 16 at Tue May 30 07:15:26 2023.

 ----------------------------------------------------------------------
 #N Geom=AllCheck Guess=TCheck SCRF=Check GenChk RB3LYP/6-31G(2df,p) Fr
 eq
 ----------------------------------------------------------------------

 Structure from the checkpoint file:  "CC1CCCc2ccccc2CCCqCrCCC1.chk"
 -------------------
 Title Card Required
 -------------------
 Charge =  0 Multiplicity = 1

                         Standard orientation:
 ---------------------------------------------------------------------
 Center     Atomic      Atomic             Coordinates (Angstroms)
 Number     Number       Type             X           Y           Z
 ---------------------------------------------------------------------
      1          6           0        3.777428   -2.527466   -0.385546
      2          6           0        2.389277   -1.870808   -0.382210
      3          6           0        1.316013   -2.850532    0.147696
      4          6           0       -0.145595   -2.460226   -0.176293
      5          6           0       -0.869607   -1.603790    0.894895
      6          6           0       -2.067946   -0.836517    0.373764
      7          6           0       -3.352248   -1.320397    0.641044
      8          6           0       -4.493721   -0.663668    0.192564
      9          6           0       -4.360691    0.509166   -0.542314
     10          6           0       -3.088912    0.999926   -0.819567
     11          6           0       -1.931419    0.351689   -0.376315
     12          6           0       -0.586576    0.967602   -0.723552
     13          6           0       -0.049340    1.961999    0.330679
     14          6           0        1.237809    2.726071   -0.078858
     15          6           0        1.230932    4.122197    0.567763
     16          6           0        2.587877    2.039203    0.245431
     17          6           0        2.895574    0.685905   -0.431583
     18          6           0        2.413726   -0.527176    0.380019
     19          1           0        3.795630   -3.423266   -1.015284
     20          1           0        4.068785   -2.827374    0.628392
     21          1           0        4.544532   -1.841819   -0.760238
     22          1           0        2.124341   -1.655569   -1.428233
     23          1           0        1.439119   -2.986373    1.231716
     24          1           0        1.516249   -3.832256   -0.298710
     25          1           0       -0.739444   -3.369006   -0.326666
     26          1           0       -0.167912   -1.942121   -1.141786
     27          1           0       -0.169238   -0.907730    1.360708
     28          1           0       -1.196816   -2.266165    1.704303
     29          1           0       -3.454191   -2.234329    1.219861
     30          1           0       -5.476347   -1.065190    0.417558
     31          1           0       -5.237784    1.036806   -0.902479
     32          1           0       -2.984492    1.912042   -1.401329
     33          1           0       -0.696696    1.513922   -1.668268
     34          1           0        0.152258    0.188591   -0.915756
     35          1           0        0.104285    1.457529    1.293139
     36          1           0       -0.843284    2.696607    0.512534
     37          1           0        1.200795    2.868742   -1.169463
     38          1           0        1.228836    4.046373    1.661945
     39          1           0        0.342608    4.691005    0.274688
     40          1           0        2.113226    4.702781    0.278508
     41          1           0        2.674940    1.925078    1.335794
     42          1           0        3.371760    2.752727   -0.036614
     43          1           0        3.976504    0.607628   -0.598760
     44          1           0        2.440390    0.667626   -1.430757
     45          1           0        1.417197   -0.302412    0.752087
     46          1           0        3.039264   -0.632919    1.277417
 ---------------------------------------------------------------------

 SCF Done:  E(RB3LYP) =  -702.844895875     A.U. after    1 cycles
