 Gaussian 16, Revision A.03,
 Gaussian 16:  ES64L-G16RevA.03 25-Dec-2016

 -----------------------------
 # opt freq b3lyp/6-31g(2df,p)
 -----------------------------

 -------------------
 Title Card Required
 -------------------
 Symbolic Z-matrix:
 Charge =  0 Multiplicity = 1

 SCF Done:  E(RB3LYP) =  -313.063955114     A.U. after   12 cycles
 SCF Done:  E(RB3LYP) =  -313.131202775     A.U. after   11 cycles
 SCF Done:  E(RB3LYP) =  -313.162624719     A.U. after   12 cycles
 SCF Done:  E(RB3LYP) =  -313.193980031     A.U. after   12 cycles
 SCF Done:  E(RB3LYP) =  -313.207985294     A.U. after   11 cycles
 SCF Done:  E(RB3LYP) =  -313.228590681     A.U. after   11 cycles
 SCF Done:  E(RB3LYP) =  -313.235767125     A.U. after   11 cycles
 SCF Done:  E(RB3LYP) =  -313.236304482     A.U. after   10 cycles
 SCF Done:  E(RB3LYP) =  -313.233911308     A.U. after   10 cycles
 SCF Done:  E(RB3LYP) =  -313.233223412     A.U. after   10 cycles
 SCF Done:  E(RB3LYP) =  -313.239585226     A.U. after   10 cycles
 SCF Done:  E(RB3LYP) =  -313.239782328     A.U. after    9 cycles
 SCF Done:  E(RB3LYP) =  -313.240001721     A.U. after    9 cycles
 SCF Done:  E(RB3LYP) =  -313.240076618     A.U. after    9 cycles
 SCF Done:  E(RB3LYP) =  -313.240111169     A.U. after    8 cycles
 SCF Done:  E(RB3LYP) =  -313.240115481     A.U. after    8 cycles
 SCF Done:  E(RB3LYP) =  -313.240116576     A.U. after    6 cycles
 SCF Done:  E(RB3LYP) =  -313.240116936     A.U. after    6 cycles
 SCF Done:  E(RB3LYP) =  -313.240116992     A.U. after    5 cycles
 Optimization completed.
    -- Stationary point found.
 Normal termination of Gaussian 16 at Mon May 29 01:22:03 2023.

 ----------------------------------------------------------------------
 #N Geom=AllCheck Guess=TCheck SCRF=Check GenChk RB3LYP/6-31G(2df,p) Fr
 eq
 ----------------------------------------------------------------------

 Structure from the checkpoint file:  "CC1C2qCrCC1qCrC2.chk"
 -------------------
 Title Card Required
 -------------------
 Charge =  0 Multiplicity = 1

                         Standard orientation:
 ---------------------------------------------------------------------
 Center     Atomic      Atomic             Coordinates (Angstroms)
 Number     Number       Type             X           Y           Z
 ---------------------------------------------------------------------
      1          6           0       -0.000220    2.185229    0.016344
      2          6           0       -0.000060    0.766493    0.567774
      3          6           0       -0.948470   -0.346601    0.000980
      4          6           0       -2.454472   -0.350438    0.001428
      5          6           0        0.000019   -0.451444   -1.233206
      6          6           0        0.948547   -0.346387    0.000949
      7          6           0        2.454552   -0.350167    0.001409
      8          6           0        0.000131   -1.371212    0.693785
      9          1           0       -0.881474    2.733863    0.368186
     10          1           0       -0.000735    2.230117   -1.075843
     11          1           0        0.881429    2.733743    0.367380
     12          1           0       -0.000023    0.804389    1.665514
     13          1           0       -2.853620    0.502901   -0.558545
     14          1           0       -2.849206   -0.294329    1.022279
     15          1           0       -2.847768   -1.263594   -0.459208
     16          1           0       -0.000094    0.373185   -1.948999
     17          1           0        0.000118   -1.412483   -1.757861
     18          1           0        2.853739    0.503323   -0.558306
     19          1           0        2.847847   -1.263200   -0.459472
     20          1           0        2.849246   -0.294351    1.022292
     21          1           0        0.000178   -1.378989    1.788940
     22          1           0        0.000196   -2.387412    0.286863
 ---------------------------------------------------------------------

 SCF Done:  E(RB3LYP) =  -313.240116992     A.U. after    1 cycles

 The electronic state is 1-A.
 Alpha  occ. eigenvalues --  -10.19511 -10.19509 -10.18073 -10.17362 -10.17286
 Alpha  occ. eigenvalues --  -10.16992 -10.16992 -10.16838  -0.90305  -0.73293
 Alpha  occ. eigenvalues --   -0.72770  -0.69942  -0.65733  -0.61199  -0.54189
 Alpha  occ. eigenvalues --   -0.51236  -0.45805  -0.43174  -0.43108  -0.42460
 Alpha  occ. eigenvalues --   -0.41368  -0.39304  -0.39038  -0.38621  -0.36883
 Alpha  occ. eigenvalues --   -0.33922  -0.29586  -0.29356  -0.29177  -0.29028
 Alpha  occ. eigenvalues --   -0.27734
 Alpha virt. eigenvalues --    0.09045   0.11117   0.12852   0.13607   0.14890
 Alpha virt. eigenvalues --    0.15002   0.15046   0.15090   0.15951   0.16680
 Alpha virt. eigenvalues --    0.17138   0.17440   0.18787   0.19649   0.20796

 Mulliken charges:
               1
     1  C   -0.447701
     2  C   -0.004620
     3  C    0.331799
     4  C   -0.513735
     5  C   -0.304407
     6  C    0.331797
     7  C   -0.513736
     8  C   -0.291706
     9  H    0.114957
    10  H    0.115432
    11  H    0.114959
    12  H    0.050503
    13  H    0.116116
    14  H    0.114911
    15  H    0.116170
    16  H    0.084124
    17  H    0.080292
    18  H    0.116112
    19  H    0.116175
    20  H    0.114912
    21  H    0.078753
    22  H    0.078892
 Sum of Mulliken charges =  -0.00000

 Dipole moment (field-independent basis, Debye):
    X=              0.0000    Y=              0.1129    Z=              0.0216  Tot=              0.1150
 Quadrupole moment (field-independent basis, Debye-Ang):
   XX=            -51.6695   YY=            -51.4045   ZZ=            -51.3086
   XY=             -0.0001   XZ=              0.0001   YZ=              0.2185

  Exact polarizability:  88.150  -0.000  85.137   0.000   0.395  76.293
 Approx polarizability: 115.508  -0.000 120.252   0.000   0.788 118.262

                      1                      2                      3
                      A                      A                      A
 Frequencies --    165.2776               183.1842               198.8679
 Red. masses --      1.0507                 2.0984                 1.1135
 Frc consts  --      0.0169                 0.0415                 0.0259
 IR Inten    --      0.0004                 0.0214                 0.0019

                      4                      5                      6
                      A                      A                      A
 Frequencies --    201.2443               214.4479               217.9343
 Red. masses --      1.0559                 2.4143                 2.1710
 Frc consts  --      0.0252                 0.0654                 0.0608
 IR Inten    --      0.0188                 0.0474                 0.0787

                      7                      8                      9
                      A                      A                      A
 Frequencies --    348.9161               360.5415               424.9521
 Red. masses --      2.5158                 2.2193                 2.2320
 Frc consts  --      0.1805                 0.1700                 0.2375
 IR Inten    --      0.1999                 0.0005                 0.1286

                     10                     11                     12
                      A                      A                      A
 Frequencies --    547.7877               578.1757               583.5262
 Red. masses --      2.1881                 2.1627                 3.6935
 Frc consts  --      0.3868                 0.4260                 0.7410
 IR Inten    --      0.1135                 1.4287                 0.0821

                     13                     14                     15
                      A                      A                      A
 Frequencies --    647.1876               740.0185               778.1320
 Red. masses --      2.7633                 2.6687                 2.6355
 Frc consts  --      0.6819                 0.8611                 0.9402
 IR Inten    --      0.2560                 0.0049                 0.1237

                     16                     17                     18
                      A                      A                      A
 Frequencies --    789.4041               910.2553               916.4068
 Red. masses --      2.0866                 1.9408                 2.5261
 Frc consts  --      0.7661                 0.9474                 1.2499
 IR Inten    --      0.3450                 0.5559                 1.2331

                     19                     20                     21
                      A                      A                      A
 Frequencies --    997.9425               998.6245              1015.3821
 Red. masses --      1.3163                 1.0480                 1.1922
 Frc consts  --      0.7723                 0.6158                 0.7242
 IR Inten    --      0.1152                 0.3714                 0.4460

                     22                     23                     24
                      A                      A                      A
 Frequencies --   1019.4680              1041.7992              1098.3460
 Red. masses --      1.1811                 1.7167                 1.7826
 Frc consts  --      0.7233                 1.0977                 1.2670
 IR Inten    --      1.2870                 5.6620                 1.8208

                     25                     26                     27
                      A                      A                      A
 Frequencies --   1110.6342              1128.4157              1146.0702
 Red. masses --      1.8885                 1.6113                 2.6484
 Frc consts  --      1.3725                 1.2088                 2.0495
 IR Inten    --      1.5654                 0.1937                 1.6146

                     28                     29                     30
                      A                      A                      A
 Frequencies --   1154.2891              1174.6165              1200.8946
 Red. masses --      1.4251                 1.6003                 1.5740
 Frc consts  --      1.1187                 1.3009                 1.3374
 IR Inten    --      1.5923                 0.1820                 1.1738

                     31                     32                     33
                      A                      A                      A
 Frequencies --   1208.0418              1230.0567              1306.9702
 Red. masses --      2.6188                 2.6991                 2.6468
 Frc consts  --      2.2517                 2.4061                 2.6638
 IR Inten    --      0.9931                 0.0381                42.5928

                     34                     35                     36
                      A                      A                      A
 Frequencies --   1345.8084              1404.5304              1408.3623
 Red. masses --      2.4285                 1.2481                 1.3168
 Frc consts  --      2.5915                 1.4506                 1.5389
 IR Inten    --      0.8716                 0.7175                 3.4842

                     37                     38                     39
                      A                      A                      A
 Frequencies --   1408.9200              1425.4459              1487.7111
 Red. masses --      1.3329                 1.4925                 1.0673
 Frc consts  --      1.5590                 1.7868                 1.3918
 IR Inten    --      1.4056                 7.0975                 4.9559

                     40                     41                     42
                      A                      A                      A
 Frequencies --   1488.8396              1490.2224              1490.4453
 Red. masses --      1.0472                 1.0526                 1.0465
 Frc consts  --      1.3676                 1.3772                 1.3697
 IR Inten    --      0.4303                 7.5189                 0.2133

                     43                     44                     45
                      A                      A                      A
 Frequencies --   1493.5014              1496.4072              1511.2990
 Red. masses --      1.0547                 1.0478                 1.0858
 Frc consts  --      1.3860                 1.3824                 1.4612
 IR Inten    --      3.6039                 3.2598                 2.9121

                     46                     47                     48
                      A                      A                      A
 Frequencies --   1550.2118              3007.0754              3021.6342
 Red. masses --      1.2428                 1.0820                 1.0358
 Frc consts  --      1.7597                 5.7644                 5.5719
 IR Inten    --      2.0013                37.0955                 0.2593

                     49                     50                     51
                      A                      A                      A
 Frequencies --   3021.7095              3029.2851              3031.8323
 Red. masses --      1.0352                 1.0389                 1.0536
 Frc consts  --      5.5689                 5.6168                 5.7062
 IR Inten    --     64.8295                43.4860                56.7741

                     52                     53                     54
                      A                      A                      A
 Frequencies --   3048.3116              3082.6632              3087.8250
 Red. masses --      1.0583                 1.1002                 1.1006
 Frc consts  --      5.7942                 6.1599                 6.1827
 IR Inten    --     20.7712                24.4199                39.5842

                     55                     56                     57
                      A                      A                      A
 Frequencies --   3087.9589              3088.7030              3089.2122
 Red. masses --      1.1008                 1.1012                 1.1009
 Frc consts  --      6.1847                 6.1898                 6.1902
 IR Inten    --      0.4322                24.8241                 0.1136

                     58                     59                     60
                      A                      A                      A
 Frequencies --   3094.7139              3104.4594              3116.7943
 Red. masses --      1.1093                 1.1040                 1.0989
 Frc consts  --      6.2594                 6.2688                 6.2897
 IR Inten    --     42.6181                58.6386                44.4265

 - Thermochemistry -
 -------------------
 Temperature   298.150 Kelvin.  Pressure   1.00000 Atm.
 Atom     1 has atomic number  6 and mass  12.00000

 Molecular mass:   110.10955 amu.
 Principal axes and moments of inertia in atomic units:
                           1         2         3
     Eigenvalues --   625.47334 937.097001237.31717
           X            1.00000  -0.00001   0.00000
           Y            0.00001   0.99999  -0.00534
           Z           -0.00000   0.00534   0.99999
 This molecule is an asymmetric top.
 Rotational symmetry number  1.
 Warning -- assumption of classical behavior for rotation
           may cause significant error
 Rotational temperatures (Kelvin)      0.13848     0.09243     0.07000
 Rotational constants (GHZ):           2.88540     1.92589     1.45859
 Zero-point vibrational energy     523675.4 (Joules/Mol)
                                  125.16143 (Kcal/Mol)
 Warning -- explicit consideration of  12 degrees of freedom as
           vibrations may cause significant error
 Vibrational temperatures:    237.80   263.56   286.13   289.55   308.54
          (Kelvin)            313.56   502.01   518.74   611.41   788.14
                              831.87   839.56   931.16  1064.72  1119.56
                             1135.78  1309.65  1318.50  1435.82  1436.80
                             1460.91  1466.79  1498.92  1580.27  1597.95
                             1623.54  1648.94  1660.76  1690.01  1727.82
                             1738.10  1769.78  1880.44  1936.32  2020.81
                             2026.32  2027.12  2050.90  2140.48  2142.11
                             2144.10  2144.42  2148.82  2153.00  2174.42
                             2230.41  4326.51  4347.46  4347.57  4358.47
                             4362.13  4385.84  4435.26  4442.69  4442.88
                             4443.95  4444.69  4452.60  4466.62  4484.37

 Zero-point correction=                           0.199457 (Hartree/Particle)
 Thermal correction to Energy=                    0.208162
 Thermal correction to Enthalpy=                  0.209106
 Thermal correction to Gibbs Free Energy=         0.167183
 Sum of electronic and zero-point Energies=           -313.040660
 Sum of electronic and thermal Energies=              -313.031955
 Sum of electronic and thermal Enthalpies=            -313.031011
 Sum of electronic and thermal Free Energies=         -313.072934

                     E (Thermal)             CV                S
                      KCal/Mol        Cal/Mol-Kelvin    Cal/Mol-Kelvin
 Total                  130.623             34.055             88.234
 Electronic               0.000              0.000              0.000
 Translational            0.889              2.981             40.005
 Rotational               0.889              2.981             28.074
 Vibrational            128.846             28.094             20.154
 Vibration     1          0.624              1.885              2.489
 Vibration     2          0.631              1.863              2.296
 Vibration     3          0.637              1.841              2.144
 Vibration     4          0.638              1.838              2.122
 Vibration     5          0.644              1.819              2.005
 Vibration     6          0.646              1.814              1.976
 Vibration     7          0.726              1.577              1.171
 Vibration     8          0.735              1.554              1.120
 Vibration     9          0.787              1.416              0.875
 Vibration    10          0.903              1.145              0.549
 Vibration    11          0.935              1.078              0.489
 Vibration    12          0.940              1.067              0.479

 Optimization completed.
    -- Stationary point found.
 Normal termination of Gaussian 16 at Mon May 29 01:52:21 2023.
