 Gaussian 16, Revision A.03,
 Gaussian 16:  ES64L-G16RevA.03 25-Dec-2016

 -----------------------------
 # opt freq b3lyp/6-31g(2df,p)
 -----------------------------

 -------------------
 Title Card Required
 -------------------
 Symbolic Z-matrix:
 Charge =  0 Multiplicity = 1

 SCF Done:  E(RB3LYP) =  -669.280472950     A.U. after   12 cycles
 SCF Done:  E(RB3LYP) =  -669.352299059     A.U. after   10 cycles
 SCF Done:  E(RB3LYP) =  -669.413061380     A.U. after   11 cycles
 SCF Done:  E(RB3LYP) =  -669.463005724     A.U. after   10 cycles
 SCF Done:  E(RB3LYP) =  -669.498432289     A.U. after   10 cycles
 SCF Done:  E(RB3LYP) =  -669.515214560     A.U. after   10 cycles
 SCF Done:  E(RB3LYP) =  -669.527342241     A.U. after   10 cycles
 SCF Done:  E(RB3LYP) =  -669.532006733     A.U. after   10 cycles
 SCF Done:  E(RB3LYP) =  -669.535468421     A.U. after    9 cycles
 SCF Done:  E(RB3LYP) =  -669.537724628     A.U. after    9 cycles
 SCF Done:  E(RB3LYP) =  -669.542884956     A.U. after    8 cycles
 SCF Done:  E(RB3LYP) =  -669.542891809     A.U. after    8 cycles
 SCF Done:  E(RB3LYP) =  -669.542899516     A.U. after    8 cycles
 SCF Done:  E(RB3LYP) =  -669.542902594     A.U. after    7 cycles
 SCF Done:  E(RB3LYP) =  -669.542903338     A.U. after    7 cycles
 SCF Done:  E(RB3LYP) =  -669.542903714     A.U. after    6 cycles
 SCF Done:  E(RB3LYP) =  -669.542904020     A.U. after    5 cycles
 SCF Done:  E(RB3LYP) =  -669.542904240     A.U. after    5 cycles
 SCF Done:  E(RB3LYP) =  -669.542904083     A.U. after    6 cycles
 Optimization completed.
    -- Stationary point found.

 The electronic state is 1-A.
 Alpha  occ. eigenvalues --  -10.18627 -10.18399 -10.17534 -10.17511 -10.17354
 Alpha  occ. eigenvalues --  -10.17329 -10.17262 -10.17134 -10.16992 -10.16963
 Alpha  occ. eigenvalues --  -10.16956 -10.16933 -10.16842 -10.16722 -10.16523
 Alpha  occ. eigenvalues --  -10.16428 -10.16373  -0.82412  -0.79751  -0.78839
 Alpha  occ. eigenvalues --   -0.78320  -0.73577  -0.71891  -0.71388  -0.68832
 Alpha  occ. eigenvalues --   -0.67708  -0.65444  -0.62619  -0.62019  -0.59621
 Alpha  occ. eigenvalues --   -0.57174  -0.56072  -0.53391  -0.51756  -0.47948
 Alpha  occ. eigenvalues --   -0.46293  -0.45495  -0.44569  -0.44336  -0.43220
 Alpha  occ. eigenvalues --   -0.42619  -0.42091  -0.41544  -0.41368  -0.40656
 Alpha  occ. eigenvalues --   -0.40573  -0.38924  -0.38624  -0.37855  -0.37162
 Alpha  occ. eigenvalues --   -0.36493  -0.36417  -0.36234  -0.35199  -0.34620
 Alpha  occ. eigenvalues --   -0.34459  -0.34236  -0.33754  -0.32898  -0.31869
 Alpha  occ. eigenvalues --   -0.31841  -0.31767  -0.31598  -0.30971  -0.30399
 Alpha  occ. eigenvalues --   -0.29987  -0.29668  -0.28078  -0.27722
 Alpha virt. eigenvalues --    0.04796   0.08114   0.08663   0.09073   0.09900
 Alpha virt. eigenvalues --    0.11099   0.11337   0.12105   0.12467   0.13470
 Alpha virt. eigenvalues --    0.13725   0.14231   0.14365   0.15118   0.15815

 Mulliken charges:
               1
     1  C   -0.424136
     2  C    0.061567
     3  C   -0.215637
     4  C   -0.178294
     5  C   -0.193933
     6  C   -0.194296
     7  C   -0.179532
     8  C   -0.204693
     9  C    0.245992
    10  C   -0.403622
    11  C   -0.404949
    12  C   -0.187704
    13  C   -0.255744
    14  C   -0.380918
    15  C   -0.147563
    16  C   -0.143220
    17  C   -0.378645
    18  H    0.111347
    19  H    0.127422
    20  H    0.118021
    21  H    0.078564
    22  H    0.090246
    23  H    0.094207
    24  H    0.094157
    25  H    0.090356
    26  H    0.086327
    27  H    0.088089
    28  H    0.089689
    29  H    0.087370
    30  H    0.091712
    31  H    0.109572
    32  H    0.086368
    33  H    0.083319
    34  H    0.104590
    35  H    0.104019
    36  H    0.106209
    37  H    0.105520
    38  H    0.114161
    39  H    0.103613
    40  H    0.091051
    41  H    0.086917
    42  H    0.093326
    43  H    0.098707
    44  H    0.110982
    45  H    0.112554
    46  H    0.114968
    47  H    0.092393
    48  H    0.097657
    49  H    0.093960
    50  H    0.092618
    51  H    0.112738
    52  H    0.109916
    53  H    0.112660
 Sum of Mulliken charges =  -0.00000

 Dipole moment (field-independent basis, Debye):
    X=             -0.2127    Y=              0.2044    Z=             -0.1046  Tot=              0.3130
 Quadrupole moment (field-independent basis, Debye-Ang):
   XX=           -113.6929   YY=           -115.1462   ZZ=           -115.2074
   XY=              0.1419   XZ=             -0.0897   YZ=              0.4897

 Normal termination of Gaussian 16 at Wed May 24 02:04:07 2023.

 ----------------------------------------------------------------------
 #N Geom=AllCheck Guess=TCheck SCRF=Check GenChk RB3LYP/6-31G(2df,p) Fr
 eq
 ----------------------------------------------------------------------

 Structure from the checkpoint file:  "CC1CCCCCCCqCrqCrCC1.CCCC.chk"
 -------------------
 Title Card Required
 -------------------
 Charge =  0 Multiplicity = 1

                         Standard orientation:
 ---------------------------------------------------------------------
 Center     Atomic      Atomic             Coordinates (Angstroms)
 Number     Number       Type             X           Y           Z
 ---------------------------------------------------------------------
      1          6           0       -0.334892    1.178070    1.036180
      2          6           0       -0.076288    1.264683   -0.473899
      3          6           0        0.986943    2.356250   -0.885290
      4          6           0        1.932490    3.010739    0.162531
      5          6           0        3.365908    2.469754    0.351024
      6          6           0        3.486824    1.092849    1.019767
      7          6           0        3.151567   -0.054029    0.053534
      8          6           0        2.581995   -1.320754    0.707540
      9          6           0        1.620497   -2.144353   -0.183125
     10          6           0        1.337996   -3.473039    0.549313
     11          6           0        2.268759   -2.475100   -1.540329
     12          6           0        0.237276   -1.451075   -0.380489
     13          6           0        0.075073   -0.133058   -1.194510
     14          6           0       -4.306561   -1.666203    1.112105
     15          6           0       -4.559120   -0.707679   -0.054442
     16          6           0       -5.123342    0.647184    0.386705
     17          6           0       -5.372005    1.607354   -0.779373
     18          1           0       -0.568012    2.166290    1.445358
     19          1           0        0.516693    0.781343    1.596189
     20          1           0       -1.197398    0.536833    1.245213
     21          1           0       -1.012791    1.658365   -0.884084
     22          1           0        0.408641    3.183011   -1.312230
     23          1           0        1.587188    1.981738   -1.723197
     24          1           0        1.441584    3.047984    1.141603
     25          1           0        2.043266    4.059559   -0.138363
     26          1           0        3.907301    3.207411    0.956784
     27          1           0        3.878021    2.448276   -0.621601
     28          1           0        2.815354    1.061820    1.887993
     29          1           0        4.498173    0.962727    1.423922
     30          1           0        4.043743   -0.302544   -0.533749
     31          1           0        2.432098    0.318546   -0.671370
     32          1           0        2.038866   -1.047667    1.621969
     33          1           0        3.403763   -1.969836    1.037894
     34          1           0        2.261626   -4.043046    0.697664
     35          1           0        0.645020   -4.102939   -0.019398
     36          1           0        0.894278   -3.295389    1.535578
     37          1           0        3.212092   -3.014720   -1.398085
     38          1           0        2.489727   -1.581988   -2.130830
     39          1           0        1.609285   -3.112830   -2.139788
     40          1           0       -0.215346   -1.329202    0.609066
     41          1           0       -0.388280   -2.198498   -0.884321
     42          1           0       -0.845258   -0.264209   -1.774049
     43          1           0        0.859195   -0.063908   -1.955148
     44          1           0       -3.903055   -2.623048    0.766236
     45          1           0       -5.231683   -1.874095    1.661509
     46          1           0       -3.589842   -1.241849    1.825036
     47          1           0       -5.252465   -1.172016   -0.768530
     48          1           0       -3.622861   -0.545995   -0.605900
     49          1           0       -4.430828    1.110244    1.102479
     50          1           0       -6.060585    0.485508    0.936014
     51          1           0       -4.444489    1.816331   -1.324524
     52          1           0       -5.776188    2.563897   -0.433302
     53          1           0       -6.085561    1.184354   -1.495492
 ---------------------------------------------------------------------

 SCF Done:  E(RB3LYP) =  -669.542904083     A.U. after    1 cycles
