 Gaussian 16, Revision A.03,
 Gaussian 16:  ES64L-G16RevA.03 25-Dec-2016

 -----------------------------
 # opt freq b3lyp/6-31g(2df,p)
 -----------------------------

 -------------------
 Title Card Required
 -------------------
 Symbolic Z-matrix:
 Charge =  0 Multiplicity = 1

 SCF Done:  E(RB3LYP) =  -275.206993616     A.U. after   11 cycles
 SCF Done:  E(RB3LYP) =  -275.209452582     A.U. after   10 cycles
 SCF Done:  E(RB3LYP) =  -275.209748407     A.U. after    8 cycles
 SCF Done:  E(RB3LYP) =  -275.209829858     A.U. after    8 cycles
 SCF Done:  E(RB3LYP) =  -275.209837388     A.U. after    7 cycles
 SCF Done:  E(RB3LYP) =  -275.209851177     A.U. after    8 cycles
 SCF Done:  E(RB3LYP) =  -275.209869007     A.U. after    8 cycles
 SCF Done:  E(RB3LYP) =  -275.209867765     A.U. after    8 cycles
 SCF Done:  E(RB3LYP) =  -275.209888428     A.U. after    7 cycles
 SCF Done:  E(RB3LYP) =  -275.209925805     A.U. after    9 cycles
 SCF Done:  E(RB3LYP) =  -275.209929429     A.U. after    7 cycles
 SCF Done:  E(RB3LYP) =  -275.209931375     A.U. after    8 cycles
 SCF Done:  E(RB3LYP) =  -275.209932112     A.U. after    8 cycles
 SCF Done:  E(RB3LYP) =  -275.209932204     A.U. after    7 cycles
 Optimization completed.
    -- Stationary point found.
 Normal termination of Gaussian 16 at Sun May 28 03:52:11 2023.

 ----------------------------------------------------------------------
 #N Geom=AllCheck Guess=TCheck SCRF=Check GenChk RB3LYP/6-31G(2df,p) Fr
 eq
 ----------------------------------------------------------------------

 Structure from the checkpoint file:  "CC1CCCqCrC1.chk"
 -------------------
 Title Card Required
 -------------------
 Charge =  0 Multiplicity = 1

                         Standard orientation:
 ---------------------------------------------------------------------
 Center     Atomic      Atomic             Coordinates (Angstroms)
 Number     Number       Type             X           Y           Z
 ---------------------------------------------------------------------
      1          6           0       -2.547706   -0.581047    0.113841
      2          6           0       -1.185874   -0.115583   -0.400278
      3          6           0       -0.760690    1.283380    0.092643
      4          6           0        0.760622    1.283353   -0.092804
      5          6           0        1.185574   -0.115662    0.400085
      6          6           0        2.547935   -0.580885   -0.112843
      7          6           0        0.000097   -1.042067   -0.000788
      8          1           0       -3.345824    0.106825   -0.186748
      9          1           0       -2.552448   -0.638586    1.208982
     10          1           0       -2.803474   -1.574227   -0.271145
     11          1           0       -1.231571   -0.075735   -1.496697
     12          1           0       -1.006104    1.393402    1.158075
     13          1           0       -1.269469    2.092553   -0.440851
     14          1           0        1.269428    2.092452    0.440772
     15          1           0        1.006107    1.393368   -1.158220
     16          1           0        1.230179   -0.076074    1.496566
     17          1           0        2.553806   -0.637893   -1.208007
     18          1           0        2.803286   -1.574264    0.271913
     19          1           0        3.345761    0.106809    0.188916
     20          1           0       -0.278689   -1.699575    0.830023
     21          1           0        0.279273   -1.697994   -0.832717
 ---------------------------------------------------------------------

 SCF Done:  E(RB3LYP) =  -275.209932204     A.U. after    1 cycles

 The electronic state is 1-A.
 Alpha  occ. eigenvalues --  -10.17740 -10.17740 -10.16926 -10.16905 -10.16748
 Alpha  occ. eigenvalues --  -10.16736 -10.16736  -0.83255  -0.75278  -0.71287
 Alpha  occ. eigenvalues --   -0.67027  -0.62593  -0.55761  -0.53718  -0.46808
 Alpha  occ. eigenvalues --   -0.45978  -0.41918  -0.41270  -0.39953  -0.39154
 Alpha  occ. eigenvalues --   -0.37984  -0.35671  -0.32518  -0.31882  -0.31609
 Alpha  occ. eigenvalues --   -0.30814  -0.30207  -0.29838
 Alpha virt. eigenvalues --    0.08524   0.09898   0.11148   0.13488   0.15603
 Alpha virt. eigenvalues --    0.15932   0.16331   0.17003   0.17147   0.18276
 Alpha virt. eigenvalues --    0.18683   0.19176   0.20654   0.20704   0.21002

 Mulliken charges:
               1
     1  C   -0.406713
     2  C    0.067729
     3  C   -0.208686
     4  C   -0.208667
     5  C    0.067757
     6  C   -0.406741
     7  C   -0.226063
     8  H    0.108614
     9  H    0.109319
    10  H    0.109978
    11  H    0.066320
    12  H    0.088733
    13  H    0.087304
    14  H    0.087305
    15  H    0.088728
    16  H    0.066316
    17  H    0.109320
    18  H    0.109980
    19  H    0.108614
    20  H    0.090424
    21  H    0.090426
 Sum of Mulliken charges =  -0.00000

 Dipole moment (field-independent basis, Debye):
    X=             -0.0000    Y=              0.0244    Z=             -0.0000  Tot=              0.0244
 Quadrupole moment (field-independent basis, Debye-Ang):
   XX=            -47.4423   YY=            -46.6422   ZZ=            -45.6207
   XY=             -0.0000   XZ=              0.3814   YZ=             -0.0001

  Exact polarizability:  84.278  -0.001  72.893   0.033   0.000  65.474
 Approx polarizability: 102.070  -0.001 101.677   0.180   0.000 102.443

                      1                      2                      3
                      A                      A                      A
 Frequencies --     28.1799               196.3166               237.2548
 Red. masses --      2.2671                 1.8866                 1.4072
 Frc consts  --      0.0011                 0.0428                 0.0467
 IR Inten    --      0.0036                 0.0006                 0.0277

                      4                      5                      6
                      A                      A                      A
 Frequencies --    251.2030               257.5545               354.3560
 Red. masses --      1.0531                 1.5253                 2.1487
 Frc consts  --      0.0392                 0.0596                 0.1590
 IR Inten    --      0.0009                 0.0124                 0.0583

                      7                      8                      9
                      A                      A                      A
 Frequencies --    412.3904               417.6721               548.6810
 Red. masses --      2.3199                 1.6453                 3.0520
 Frc consts  --      0.2325                 0.1691                 0.5413
 IR Inten    --      0.0066                 0.2130                 0.0624

                     10                     11                     12
                      A                      A                      A
 Frequencies --    553.3024               786.7505               819.6491
 Red. masses --      2.5194                 1.7281                 3.3451
 Frc consts  --      0.4544                 0.6302                 1.3241
 IR Inten    --      0.5099                 0.1390                 0.0247

                     13                     14                     15
                      A                      A                      A
 Frequencies --    861.7628               905.4421               909.8515
 Red. masses --      1.8910                 1.9323                 1.5158
 Frc consts  --      0.8274                 0.9334                 0.7393
 IR Inten    --      0.9508                 0.0037                 0.1329

                     16                     17                     18
                      A                      A                      A
 Frequencies --    940.8134               962.6105               993.1231
 Red. masses --      1.2691                 1.7152                 1.8105
 Frc consts  --      0.6618                 0.9364                 1.0521
 IR Inten    --      0.7668                 0.0271                 1.7381

                     19                     20                     21
                      A                      A                      A
 Frequencies --   1003.5813              1044.4640              1082.7817
 Red. masses --      1.2011                 1.2913                 2.1864
 Frc consts  --      0.7127                 0.8300                 1.5103
 IR Inten    --      1.3937                 0.3136                 0.2255

                     22                     23                     24
                      A                      A                      A
 Frequencies --   1096.3811              1160.0730              1166.2907
 Red. masses --      2.0883                 2.3581                 2.0796
 Frc consts  --      1.4790                 1.8697                 1.6667
 IR Inten    --      0.6115                 1.0381                 1.8133

                     25                     26                     27
                      A                      A                      A
 Frequencies --   1221.9005              1223.5377              1259.6306
 Red. masses --      1.5572                 1.6870                 1.3720
 Frc consts  --      1.3698                 1.4880                 1.2826
 IR Inten    --      0.0943                 0.1664                 0.4080

                     28                     29                     30
                      A                      A                      A
 Frequencies --   1293.1584              1319.2539              1327.9450
 Red. masses --      1.3396                 1.2513                 1.2977
 Frc consts  --      1.3199                 1.2831                 1.3483
 IR Inten    --      0.0711                 1.7931                 0.2264

                     31                     32                     33
                      A                      A                      A
 Frequencies --   1343.1417              1350.4278              1373.1752
 Red. masses --      1.2515                 1.3163                 1.4568
 Frc consts  --      1.3303                 1.4144                 1.6184
 IR Inten    --      4.6444                 3.3734                 0.6945

                     34                     35                     36
                      A                      A                      A
 Frequencies --   1386.0707              1410.6652              1411.0772
 Red. masses --      1.5932                 1.2555                 1.2335
 Frc consts  --      1.8033                 1.4720                 1.4471
 IR Inten    --      3.3577                 0.2041                 1.9166

                     37                     38                     39
                      A                      A                      A
 Frequencies --   1489.3602              1491.8464              1496.4588
 Red. masses --      1.0856                 1.0804                 1.0506
 Frc consts  --      1.4188                 1.4167                 1.3862
 IR Inten    --      1.0621                 1.3782                 0.4634

                     40                     41                     42
                      A                      A                      A
 Frequencies --   1498.1800              1498.6249              1500.4402
 Red. masses --      1.0605                 1.0538                 1.0454
 Frc consts  --      1.4025                 1.3944                 1.3866
 IR Inten    --      1.7121                 0.0802                11.5237

                     43                     44                     45
                      A                      A                      A
 Frequencies --   1507.2828              3001.3311              3004.6808
 Red. masses --      1.0938                 1.0811                 1.0801
 Frc consts  --      1.4642                 5.7380                 5.7454
 IR Inten    --      0.0955                13.8059                 6.1765

                     46                     47                     48
                      A                      A                      A
 Frequencies --   3012.9203              3018.1900              3021.1717
 Red. masses --      1.0697                 1.0528                 1.0385
 Frc consts  --      5.7210                 5.6506                 5.5850
 IR Inten    --     10.7496                13.2850                 0.0685

                     49                     50                     51
                      A                      A                      A
 Frequencies --   3022.1601              3034.6469              3070.5485
 Red. masses --      1.0467                 1.0600                 1.1039
 Frc consts  --      5.6324                 5.7512                 6.1320
 IR Inten    --    100.4717                35.8849                23.8368

                     52                     53                     54
                      A                      A                      A
 Frequencies --   3074.7368              3078.0676              3087.6149
 Red. masses --      1.0938                 1.1016                 1.1005
 Frc consts  --      6.0927                 6.1491                 6.1816
 IR Inten    --     33.8795                12.1789                 1.4444

                     55                     56                     57
                      A                      A                      A
 Frequencies --   3089.8125              3091.1496              3091.2998
 Red. masses --      1.1006                 1.1014                 1.1010
 Frc consts  --      6.1908                 6.2008                 6.1992
 IR Inten    --    137.0524                 6.5164                57.3052

 - Thermochemistry -
 -------------------
 Temperature   298.150 Kelvin.  Pressure   1.00000 Atm.
 Atom     1 has atomic number  6 and mass  12.00000

 Molecular mass:    98.10955 amu.
 Principal axes and moments of inertia in atomic units:
                           1         2         3
     Eigenvalues --   363.88790 999.863161245.78199
           X            0.99998  -0.00000  -0.00555
           Y            0.00000   1.00000  -0.00000
           Z            0.00555   0.00000   0.99998
 This molecule is an asymmetric top.
 Rotational symmetry number  1.
 Rotational temperatures (Kelvin)      0.23802     0.08663     0.06953
 Rotational constants (GHZ):           4.95961     1.80499     1.44868
 Zero-point vibrational energy     514938.5 (Joules/Mol)
                                  123.07325 (Kcal/Mol)
 Warning -- explicit consideration of  10 degrees of freedom as
           vibrations may cause significant error
 Vibrational temperatures:     40.54   282.46   341.36   361.43   370.56
          (Kelvin)            509.84   593.34   600.94   789.43   796.08
                             1131.96  1179.29  1239.88  1302.73  1309.07
                             1353.62  1384.98  1428.88  1443.93  1502.75
                             1557.88  1577.45  1669.09  1678.03  1758.04
                             1760.40  1812.33  1860.57  1898.11  1910.62
                             1932.48  1942.96  1975.69  1994.25  2029.63
                             2030.23  2142.86  2146.43  2153.07  2155.55
                             2156.19  2158.80  2168.64  4318.25  4323.07
                             4334.92  4342.50  4346.79  4348.21  4366.18
                             4417.83  4423.86  4428.65  4442.39  4445.55
                             4447.47  4447.69

 Zero-point correction=                           0.196130 (Hartree/Particle)
 Thermal correction to Energy=                    0.203967
 Thermal correction to Enthalpy=                  0.204911
 Thermal correction to Gibbs Free Energy=         0.163758
 Sum of electronic and zero-point Energies=           -275.013802
 Sum of electronic and thermal Energies=              -275.005965
 Sum of electronic and thermal Enthalpies=            -275.005021
 Sum of electronic and thermal Free Energies=         -275.046174

                     E (Thermal)             CV                S
                      KCal/Mol        Cal/Mol-Kelvin    Cal/Mol-Kelvin
 Total                  127.991             29.812             86.613
 Electronic               0.000              0.000              0.000
 Translational            0.889              2.981             39.661
 Rotational               0.889              2.981             27.607
 Vibrational            126.214             23.851             19.345
 Vibration     1          0.593              1.984              5.954
 Vibration     2          0.636              1.845              2.167
 Vibration     3          0.656              1.784              1.823
 Vibration     4          0.663              1.761              1.722
 Vibration     5          0.667              1.750              1.678
 Vibration     6          0.730              1.566              1.147
 Vibration     7          0.776              1.443              0.918
 Vibration     8          0.781              1.432              0.900
 Vibration     9          0.904              1.143              0.547
 Vibration    10          0.909              1.132              0.537

                           ! Non-Optimized Parameters !
 Normal termination of Gaussian 16 at Sun May 28 04:14:12 2023.
