 Gaussian 16, Revision A.03,
 Gaussian 16:  ES64L-G16RevA.03 25-Dec-2016

 -----------------------------
 # opt freq b3lyp/6-31g(2df,p)
 -----------------------------

 -------------------
 Title Card Required
 -------------------
 Symbolic Z-matrix:
 Charge =  0 Multiplicity = 1

 SCF Done:  E(RB3LYP) =  -351.262850485     A.U. after   12 cycles
 SCF Done:  E(RB3LYP) =  -351.289327190     A.U. after   10 cycles
 SCF Done:  E(RB3LYP) =  -351.297233615     A.U. after   11 cycles
 SCF Done:  E(RB3LYP) =  -351.297900320     A.U. after   10 cycles
 SCF Done:  E(RB3LYP) =  -351.298937713     A.U. after   10 cycles
 SCF Done:  E(RB3LYP) =  -351.299279641     A.U. after    9 cycles
 SCF Done:  E(RB3LYP) =  -351.299487543     A.U. after    9 cycles
 SCF Done:  E(RB3LYP) =  -351.299554817     A.U. after    9 cycles
 SCF Done:  E(RB3LYP) =  -351.299636810     A.U. after    9 cycles
 SCF Done:  E(RB3LYP) =  -351.299649213     A.U. after    8 cycles
 SCF Done:  E(RB3LYP) =  -351.299657078     A.U. after    8 cycles
 SCF Done:  E(RB3LYP) =  -351.299661074     A.U. after    8 cycles
 SCF Done:  E(RB3LYP) =  -351.299662014     A.U. after    7 cycles
 SCF Done:  E(RB3LYP) =  -351.299662074     A.U. after    6 cycles
 Optimization completed.
    -- Stationary point found.
 Normal termination of Gaussian 16 at Sun May 28 18:48:35 2023.

 ----------------------------------------------------------------------
 #N Geom=AllCheck Guess=TCheck SCRF=Check GenChk RB3LYP/6-31G(2df,p) Fr
 eq
 ----------------------------------------------------------------------

 Structure from the checkpoint file:  "CC1C2CC1C21CCC1.chk"
 -------------------
 Title Card Required
 -------------------
 Charge =  0 Multiplicity = 1

                         Standard orientation:
 ---------------------------------------------------------------------
 Center     Atomic      Atomic             Coordinates (Angstroms)
 Number     Number       Type             X           Y           Z
 ---------------------------------------------------------------------
      1          6           0       -2.028678   -1.573808    0.001584
      2          6           0       -1.735174   -0.080307   -0.046874
      3          6           0       -0.740944    0.629606    0.929263
      4          6           0       -0.795684    1.840283   -0.050132
      5          6           0       -0.635400    0.577585   -0.949124
      6          6           0        0.452886    0.114389    0.067972
      7          6           0        1.865476    0.763064    0.108064
      8          6           0        2.498624   -0.631311   -0.144728
      9          6           0        1.115095   -1.293358    0.089858
     10          1           0       -2.756236   -1.780423    0.795038
     11          1           0       -1.155624   -2.196726    0.189837
     12          1           0       -2.479839   -1.905225   -0.941120
     13          1           0       -2.689810    0.455415   -0.122500
     14          1           0       -0.794307    0.663439    2.020577
     15          1           0        0.041516    2.539134   -0.022488
     16          1           0       -1.751613    2.366422   -0.117301
     17          1           0       -0.570855    0.549988   -2.039934
     18          1           0        2.112879    1.170945    1.093727
     19          1           0        2.078919    1.532710   -0.638891
     20          1           0        3.301823   -0.930144    0.532504
     21          1           0        2.855281   -0.753681   -1.170646
     22          1           0        1.036291   -1.787364    1.063635
     23          1           0        0.794380   -2.001355   -0.677746
 ---------------------------------------------------------------------

 SCF Done:  E(RB3LYP) =  -351.299662074     A.U. after    1 cycles

 The electronic state is 1-A.
 Alpha  occ. eigenvalues --  -10.19027 -10.18921 -10.18887 -10.18591 -10.17899
 Alpha  occ. eigenvalues --  -10.17322 -10.17210 -10.17019 -10.16688  -0.90568
 Alpha  occ. eigenvalues --   -0.81326  -0.72746  -0.65589  -0.63868  -0.61766
 Alpha  occ. eigenvalues --   -0.61103  -0.55878  -0.49730  -0.48786  -0.46161
 Alpha  occ. eigenvalues --   -0.44489  -0.43368  -0.40413  -0.38110  -0.37983
 Alpha  occ. eigenvalues --   -0.35997  -0.34888  -0.33030  -0.31855  -0.30855
 Alpha  occ. eigenvalues --   -0.29204  -0.27976  -0.27918  -0.27227
 Alpha virt. eigenvalues --    0.09233   0.09659   0.10572   0.11675   0.13712
 Alpha virt. eigenvalues --    0.14261   0.15224   0.15819   0.16477   0.16850
 Alpha virt. eigenvalues --    0.17347   0.17759   0.18440   0.19539   0.19947

 Mulliken charges:
               1
     1  C   -0.449257
     2  C    0.067372
     3  C   -0.133962
     4  C   -0.231559
     5  C   -0.131911
     6  C    0.441731
     7  C   -0.307670
     8  C   -0.234517
     9  C   -0.317170
    10  H    0.112609
    11  H    0.124211
    12  H    0.112812
    13  H    0.058005
    14  H    0.058100
    15  H    0.093294
    16  H    0.085049
    17  H    0.060174
    18  H    0.098012
    19  H    0.097789
    20  H    0.095799
    21  H    0.100022
    22  H    0.099298
    23  H    0.101771
 Sum of Mulliken charges =  -0.00000

 Dipole moment (field-independent basis, Debye):
    X=              0.0436    Y=             -0.1015    Z=              0.0068  Tot=              0.1107
 Quadrupole moment (field-independent basis, Debye-Ang):
   XX=            -56.8317   YY=            -57.1722   ZZ=            -55.5981
   XY=              0.0898   XZ=              0.1226   YZ=             -0.0386

  Exact polarizability: 100.779   0.408  91.491   0.218  -0.079  78.315
 Approx polarizability: 132.112   0.267 129.593   0.308  -0.151 125.637

                      1                      2                      3
                      A                      A                      A
 Frequencies --     58.1553               154.7434               178.4406
 Red. masses --      1.7475                 1.1515                 2.2650
 Frc consts  --      0.0035                 0.0162                 0.0425
 IR Inten    --      0.0134                 0.0162                 0.0342

                      4                      5                      6
                      A                      A                      A
 Frequencies --    233.8080               312.2409               327.0938
 Red. masses --      2.6087                 2.1142                 2.5613
 Frc consts  --      0.0840                 0.1214                 0.1615
 IR Inten    --      0.0813                 0.0378                 0.3042

                      7                      8                      9
                      A                      A                      A
 Frequencies --    332.6458               454.4926               549.7086
 Red. masses --      2.5353                 3.5452                 2.5237
 Frc consts  --      0.1653                 0.4315                 0.4493
 IR Inten    --      0.4538                 0.1399                 0.6188

                     10                     11                     12
                      A                      A                      A
 Frequencies --    618.3883               709.7899               758.7605
 Red. masses --      3.4821                 1.4775                 1.8695
 Frc consts  --      0.7845                 0.4386                 0.6341
 IR Inten    --      0.3279                 1.0046                 0.0298

                     13                     14                     15
                      A                      A                      A
 Frequencies --    771.0329               783.4792               797.2045
 Red. masses --      2.2292                 1.9668                 1.6289
 Frc consts  --      0.7808                 0.7113                 0.6099
 IR Inten    --      0.1342                 0.1933                 0.0432

                     16                     17                     18
                      A                      A                      A
 Frequencies --    852.1564               864.9321               892.4115
 Red. masses --      2.3895                 2.2360                 2.2228
 Frc consts  --      1.0223                 0.9856                 1.0430
 IR Inten    --      0.1613                 0.4201                 0.0321

                     19                     20                     21
                      A                      A                      A
 Frequencies --    959.7728               970.4098              1015.7981
 Red. masses --      2.5383                 2.6520                 1.3500
 Frc consts  --      1.3776                 1.4714                 0.8207
 IR Inten    --      0.5324                 0.2763                 1.0666

                     22                     23                     24
                      A                      A                      A
 Frequencies --   1017.1395              1027.0641              1042.8620
 Red. masses --      1.2917                 1.0950                 1.5383
 Frc consts  --      0.7874                 0.6806                 0.9857
 IR Inten    --      0.9130                 2.6407                 9.6465

                     25                     26                     27
                      A                      A                      A
 Frequencies --   1044.8870              1054.0210              1095.8711
 Red. masses --      1.0878                 4.1813                 1.3837
 Frc consts  --      0.6997                 2.7369                 0.9791
 IR Inten    --      0.2273                 2.0778                 0.2759

                     28                     29                     30
                      A                      A                      A
 Frequencies --   1135.0944              1135.4152              1153.4087
 Red. masses --      3.1794                 1.8650                 2.5173
 Frc consts  --      2.4136                 1.4166                 1.9731
 IR Inten    --      3.9444                 0.1528                 0.9742

                     31                     32                     33
                      A                      A                      A
 Frequencies --   1166.6079              1192.2486              1196.8378
 Red. masses --      1.7649                 2.3284                 1.5075
 Frc consts  --      1.4152                 1.9500                 1.2723
 IR Inten    --      0.0900                 0.6699                 1.8240

                     34                     35                     36
                      A                      A                      A
 Frequencies --   1219.8675              1234.1715              1244.5863
 Red. masses --      1.3026                 1.4534                 1.7589
 Frc consts  --      1.1421                 1.3044                 1.6052
 IR Inten    --      0.5363                 1.0218                 2.5100

                     37                     38                     39
                      A                      A                      A
 Frequencies --   1253.9993              1265.8290              1280.8168
 Red. masses --      1.1879                 1.5689                 1.4704
 Frc consts  --      1.1006                 1.4812                 1.4213
 IR Inten    --      0.5024                 4.3389                 0.1676

                     40                     41                     42
                      A                      A                      A
 Frequencies --   1282.7379              1318.6787              1411.2230
 Red. masses --      1.5935                 2.6044                 1.2202
 Frc consts  --      1.5448                 2.6683                 1.4318
 IR Inten    --      1.9049                 5.8827                 0.7775

                     43                     44                     45
                      A                      A                      A
 Frequencies --   1433.1425              1471.7552              1479.6937
 Red. masses --      1.2914                 1.0884                 1.0825
 Frc consts  --      1.5628                 1.3891                 1.3964
 IR Inten    --     10.7471                 0.7230                 0.6664

                     46                     47                     48
                      A                      A                      A
 Frequencies --   1497.7095              1501.4902              1505.3796
 Red. masses --      1.0538                 1.0660                 1.1064
 Frc consts  --      1.3927                 1.4160                 1.4772
 IR Inten    --      1.2536                 1.6162                 1.0139

                     49                     50                     51
                      A                      A                      A
 Frequencies --   1523.4340              3014.4590              3033.7703
 Red. masses --      1.1285                 1.0807                 1.0454
 Frc consts  --      1.5432                 5.7858                 5.6687
 IR Inten    --      2.3954                41.0391                48.1140

                     52                     53                     54
                      A                      A                      A
 Frequencies --   3040.7494              3046.0970              3057.4592
 Red. masses --      1.0584                 1.0602                 1.0581
 Frc consts  --      5.7661                 5.7960                 5.8277
 IR Inten    --     42.2702                19.8943                47.0183

                     55                     56                     57
                      A                      A                      A
 Frequencies --   3061.9145              3072.5345              3080.9710
 Red. masses --      1.0622                 1.0894                 1.0989
 Frc consts  --      5.8673                 6.0592                 6.1461
 IR Inten    --     46.9377               117.7339                21.2271

                     58                     59                     60
                      A                      A                      A
 Frequencies --   3081.6518              3086.3920              3096.6991
 Red. masses --      1.0915                 1.1042                 1.1054
 Frc consts  --      6.1071                 6.1971                 6.2456
 IR Inten    --     17.0310                11.6623                 6.7346

                     61                     62                     63
                      A                      A                      A
 Frequencies --   3116.9794              3128.8707              3159.2563
 Red. masses --      1.1075                 1.1077                 1.0924
 Frc consts  --      6.3395                 6.3895                 6.4238
 IR Inten    --     57.1660                39.2121                19.4659

 - Thermochemistry -
 -------------------
 Temperature   298.150 Kelvin.  Pressure   1.00000 Atm.
 Atom     1 has atomic number  6 and mass  12.00000

 Molecular mass:   122.10955 amu.
 Principal axes and moments of inertia in atomic units:
                           1         2         3
     Eigenvalues --   660.402381184.021811583.28093
           X            0.99979   0.02071  -0.00009
           Y           -0.02071   0.99979  -0.00060
           Z            0.00008   0.00060   1.00000
 This molecule is an asymmetric top.
 Rotational symmetry number  1.
 Warning -- assumption of classical behavior for rotation
           may cause significant error
 Rotational temperatures (Kelvin)      0.13115     0.07315     0.05471
 Rotational constants (GHZ):           2.73279     1.52425     1.13987
 Zero-point vibrational energy     543459.0 (Joules/Mol)
                                  129.88981 (Kcal/Mol)
 Warning -- explicit consideration of  10 degrees of freedom as
           vibrations may cause significant error
 Vibrational temperatures:     83.67   222.64   256.74   336.40   449.25
          (Kelvin)            470.62   478.60   653.91   790.91   889.72
                             1021.23  1091.69  1109.34  1127.25  1147.00
                             1226.06  1244.44  1283.98  1380.90  1396.20
                             1461.51  1463.44  1477.72  1500.45  1503.36
                             1516.50  1576.71  1633.15  1633.61  1659.50
                             1678.49  1715.38  1721.98  1755.12  1775.70
                             1790.68  1804.23  1821.25  1842.81  1845.57
                             1897.28  2030.44  2061.97  2117.53  2128.95
                             2154.87  2160.31  2165.91  2191.88  4337.13
                             4364.92  4374.96  4382.65  4399.00  4405.41
                             4420.69  4432.83  4433.81  4440.63  4455.46
                             4484.64  4501.75  4545.47

 Zero-point correction=                           0.206993 (Hartree/Particle)
 Thermal correction to Energy=                    0.215357
 Thermal correction to Enthalpy=                  0.216301
 Thermal correction to Gibbs Free Energy=         0.174034
 Sum of electronic and zero-point Energies=           -351.092669
 Sum of electronic and thermal Energies=              -351.084305
 Sum of electronic and thermal Enthalpies=            -351.083361
 Sum of electronic and thermal Free Energies=         -351.125628

                     E (Thermal)             CV                S
                      KCal/Mol        Cal/Mol-Kelvin    Cal/Mol-Kelvin
 Total                  135.139             33.605             88.959
 Electronic               0.000              0.000              0.000
 Translational            0.889              2.981             40.313
 Rotational               0.889              2.981             28.606
 Vibrational            133.361             27.643             20.040
 Vibration     1          0.596              1.974              4.519
 Vibration     2          0.620              1.897              2.613
 Vibration     3          0.629              1.869              2.345
 Vibration     4          0.654              1.789              1.850
 Vibration     5          0.701              1.650              1.350
 Vibration     6          0.711              1.621              1.274
 Vibration     7          0.715              1.610              1.247
 Vibration     8          0.813              1.351              0.782
 Vibration     9          0.905              1.140              0.545
 Vibration    10          0.978              0.993              0.419

 Optimization completed.
    -- Stationary point found.
 Normal termination of Gaussian 16 at Sun May 28 19:29:49 2023.
