 Gaussian 16, Revision A.03,
 Gaussian 16:  ES64L-G16RevA.03 25-Dec-2016

 -----------------------------
 # opt freq b3lyp/6-31g(2df,p)
 -----------------------------

 -------------------
 Title Card Required
 -------------------
 Symbolic Z-matrix:
 Charge =  0 Multiplicity = 1

 SCF Done:  E(RB3LYP) =  -351.238521750     A.U. after   13 cycles
 SCF Done:  E(RB3LYP) =  -351.272044425     A.U. after   11 cycles
 SCF Done:  E(RB3LYP) =  -351.308551439     A.U. after   11 cycles
 SCF Done:  E(RB3LYP) =  -351.325734758     A.U. after   10 cycles
 SCF Done:  E(RB3LYP) =  -351.331283080     A.U. after   11 cycles
 SCF Done:  E(RB3LYP) =  -351.332384488     A.U. after   10 cycles
 SCF Done:  E(RB3LYP) =  -351.332655466     A.U. after   10 cycles
 SCF Done:  E(RB3LYP) =  -351.332998169     A.U. after    9 cycles
 SCF Done:  E(RB3LYP) =  -351.333049257     A.U. after    8 cycles
 SCF Done:  E(RB3LYP) =  -351.333078013     A.U. after    8 cycles
 SCF Done:  E(RB3LYP) =  -351.333088600     A.U. after    8 cycles
 SCF Done:  E(RB3LYP) =  -351.333102431     A.U. after    8 cycles
 SCF Done:  E(RB3LYP) =  -351.333103145     A.U. after    6 cycles
 SCF Done:  E(RB3LYP) =  -351.333103283     A.U. after    6 cycles
 SCF Done:  E(RB3LYP) =  -351.333103345     A.U. after    6 cycles
 SCF Done:  E(RB3LYP) =  -351.333103401     A.U. after    6 cycles
 SCF Done:  E(RB3LYP) =  -351.333103456     A.U. after    6 cycles
 SCF Done:  E(RB3LYP) =  -351.333103505     A.U. after    6 cycles
 SCF Done:  E(RB3LYP) =  -351.333103534     A.U. after    5 cycles
 Optimization completed.
    -- Stationary point found.
 Normal termination of Gaussian 16 at Sun May 28 13:02:29 2023.

 ----------------------------------------------------------------------
 #N Geom=AllCheck Guess=TCheck SCRF=Check GenChk RB3LYP/6-31G(2df,p) Fr
 eq
 ----------------------------------------------------------------------

 Structure from the checkpoint file:  "CC1C2C3CCC2qCrC13.chk"
 -------------------
 Title Card Required
 -------------------
 Charge =  0 Multiplicity = 1

                         Standard orientation:
 ---------------------------------------------------------------------
 Center     Atomic      Atomic             Coordinates (Angstroms)
 Number     Number       Type             X           Y           Z
 ---------------------------------------------------------------------
      1          6           0       -2.713055   -0.193189    0.018635
      2          6           0       -1.339631   -0.855257   -0.013818
      3          6           0       -0.163933   -0.478890    0.931735
      4          6           0        0.769556   -1.308673   -0.012471
      5          6           0        2.176700   -0.731312    0.004778
      6          6           0        1.820275    0.771813    0.022016
      7          6           0        0.280253    0.720164    0.002319
      8          6           0       -0.345890    2.104715   -0.011051
      9          6           0       -0.155680   -0.457268   -0.947755
     10          1           0       -3.340935   -0.695046    0.763810
     11          1           0       -3.216637   -0.301742   -0.949163
     12          1           0       -2.703822    0.865335    0.273793
     13          1           0       -1.504278   -1.940464   -0.039370
     14          1           0       -0.153642   -0.493403    2.025627
     15          1           0        0.646467   -2.393540   -0.024338
     16          1           0        2.755480   -1.022714   -0.877846
     17          1           0        2.742665   -1.048725    0.886700
     18          1           0        2.210158    1.313104   -0.847418
     19          1           0        2.190273    1.289893    0.914170
     20          1           0       -0.181794    2.610171    0.948290
     21          1           0       -1.413901    2.119654   -0.218753
     22          1           0        0.139124    2.718053   -0.780156
     23          1           0       -0.140733   -0.453190   -2.041686
 ---------------------------------------------------------------------

 SCF Done:  E(RB3LYP) =  -351.333103534     A.U. after    1 cycles

 The electronic state is 1-A.
 Alpha  occ. eigenvalues --  -10.19027 -10.18673 -10.18650 -10.18400 -10.18282
 Alpha  occ. eigenvalues --  -10.16980 -10.16851 -10.16815 -10.16735  -0.91342
 Alpha  occ. eigenvalues --   -0.77230  -0.73464  -0.70909  -0.64296  -0.61826
 Alpha  occ. eigenvalues --   -0.58803  -0.55548  -0.48966  -0.48280  -0.45701
 Alpha  occ. eigenvalues --   -0.44559  -0.41802  -0.40712  -0.40018  -0.38605
 Alpha  occ. eigenvalues --   -0.36976  -0.35215  -0.32870  -0.32080  -0.29808
 Alpha  occ. eigenvalues --   -0.29599  -0.28864  -0.28348  -0.27239
 Alpha virt. eigenvalues --    0.09740   0.10553   0.11939   0.12736   0.13869
 Alpha virt. eigenvalues --    0.14306   0.14868   0.15085   0.15255   0.16338
 Alpha virt. eigenvalues --    0.17177   0.17751   0.18995   0.19592   0.20532

 Mulliken charges:
               1
     1  C   -0.450754
     2  C    0.055646
     3  C   -0.125884
     4  C    0.016400
     5  C   -0.265775
     6  C   -0.256981
     7  C    0.371987
     8  C   -0.505386
     9  C   -0.126152
    10  H    0.112489
    11  H    0.113684
    12  H    0.120255
    13  H    0.059700
    14  H    0.054353
    15  H    0.056911
    16  H    0.093813
    17  H    0.093615
    18  H    0.090909
    19  H    0.091235
    20  H    0.113835
    21  H    0.120030
    22  H    0.112224
    23  H    0.053844
 Sum of Mulliken charges =  -0.00000

 Dipole moment (field-independent basis, Debye):
    X=              0.0006    Y=              0.0609    Z=              0.0055  Tot=              0.0612
 Quadrupole moment (field-independent basis, Debye-Ang):
   XX=            -57.0437   YY=            -56.5337   ZZ=            -55.8050
   XY=              0.1645   XZ=             -0.0007   YZ=              0.0023

  Exact polarizability: 100.922   1.054  90.282  -0.056  -0.122  78.705
 Approx polarizability: 131.706   1.892 129.881  -0.201  -0.302 127.928

                      1                      2                      3
                      A                      A                      A
 Frequencies --     75.2626               130.6009               180.8536
 Red. masses --      1.1781                 1.0259                 2.0544
 Frc consts  --      0.0039                 0.0103                 0.0396
 IR Inten    --      0.0255                 0.0684                 0.0184

                      4                      5                      6
                      A                      A                      A
 Frequencies --    214.1985               288.1139               339.0249
 Red. masses --      1.8437                 2.4867                 2.3981
 Frc consts  --      0.0498                 0.1216                 0.1624
 IR Inten    --      0.0984                 0.3523                 0.4065

                      7                      8                      9
                      A                      A                      A
 Frequencies --    350.3558               398.0621               483.6651
 Red. masses --      2.2680                 2.1848                 3.4652
 Frc consts  --      0.1640                 0.2040                 0.4776
 IR Inten    --      0.4912                 0.0392                 0.0266

                     10                     11                     12
                      A                      A                      A
 Frequencies --    624.1830               675.6764               709.3293
 Red. masses --      3.7942                 3.2990                 3.7908
 Frc consts  --      0.8710                 0.8874                 1.1238
 IR Inten    --      0.2505                 1.3608                 0.2657

                     13                     14                     15
                      A                      A                      A
 Frequencies --    718.5106               798.9690               802.1233
 Red. masses --      3.1198                 2.3031                 2.3213
 Frc consts  --      0.9490                 0.8662                 0.8799
 IR Inten    --      0.0737                 0.0134                 0.0109

                     16                     17                     18
                      A                      A                      A
 Frequencies --    823.4891               885.4654               900.3398
 Red. masses --      1.3625                 1.8075                 2.4660
 Frc consts  --      0.5444                 0.8350                 1.1778
 IR Inten    --      0.1531                 0.0170                 0.1469

                     19                     20                     21
                      A                      A                      A
 Frequencies --    928.7953               971.4206               998.0344
 Red. masses --      1.9946                 2.2051                 1.2066
 Frc consts  --      1.0138                 1.2260                 0.7081
 IR Inten    --      0.0225                 1.0623                 1.4136

                     22                     23                     24
                      A                      A                      A
 Frequencies --   1016.2542              1020.6238              1048.0617
 Red. masses --      1.2813                 1.7252                 2.9812
 Frc consts  --      0.7796                 1.0588                 1.9294
 IR Inten    --      1.7020                 0.7887                 2.8915

                     25                     26                     27
                      A                      A                      A
 Frequencies --   1069.3652              1075.9910              1092.1431
 Red. masses --      1.4243                 1.2979                 1.4662
 Frc consts  --      0.9596                 0.8854                 1.0304
 IR Inten    --      3.9575                 4.0909                 1.0333

                     28                     29                     30
                      A                      A                      A
 Frequencies --   1116.8589              1123.6626              1163.3462
 Red. masses --      2.0051                 1.8081                 1.6211
 Frc consts  --      1.4736                 1.3451                 1.2927
 IR Inten    --      0.9068                 0.0407                 0.7923

                     31                     32                     33
                      A                      A                      A
 Frequencies --   1186.4985              1209.7039              1211.7490
 Red. masses --      2.2162                 2.0752                 1.4546
 Frc consts  --      1.8382                 1.7893                 1.2584
 IR Inten    --      0.2351                 5.9413                 0.2111

                     34                     35                     36
                      A                      A                      A
 Frequencies --   1225.7717              1253.3626              1262.6446
 Red. masses --      2.2293                 1.1395                 1.7192
 Frc consts  --      1.9735                 1.0547                 1.6149
 IR Inten    --      3.7752                 0.0691                 4.1683

                     37                     38                     39
                      A                      A                      A
 Frequencies --   1279.9949              1300.3409              1331.9707
 Red. masses --      1.9981                 2.2381                 1.7162
 Frc consts  --      1.9287                 2.2297                 1.7939
 IR Inten    --      3.6539                 0.6521                 6.9481

                     40                     41                     42
                      A                      A                      A
 Frequencies --   1362.1597              1403.5237              1419.8962
 Red. masses --      1.7798                 1.2611                 1.2306
 Frc consts  --      1.9457                 1.4636                 1.4617
 IR Inten    --      4.6989                 0.4472                 2.4126

                     43                     44                     45
                      A                      A                      A
 Frequencies --   1447.5803              1484.1038              1489.7436
 Red. masses --      1.2992                 1.0706                 1.0581
 Frc consts  --      1.6040                 1.3893                 1.3836
 IR Inten    --      9.6760                 0.2195                 1.0107

                     46                     47                     48
                      A                      A                      A
 Frequencies --   1491.4927              1501.7442              1509.5923
 Red. masses --      1.0620                 1.0470                 1.1088
 Frc consts  --      1.3919                 1.3912                 1.4888
 IR Inten    --      2.0734                 7.3915                 0.5109

                     49                     50                     51
                      A                      A                      A
 Frequencies --   1518.3512              3005.5005              3026.2497
 Red. masses --      1.0567                 1.0817                 1.0479
 Frc consts  --      1.4353                 5.7570                 5.6545
 IR Inten    --      2.6288                41.7914                 2.2179

                     52                     53                     54
                      A                      A                      A
 Frequencies --   3031.1546              3034.0459              3043.9666
 Red. masses --      1.0533                 1.0449                 1.0602
 Frc consts  --      5.7018                 5.6674                 5.7877
 IR Inten    --     77.0000                38.2225                56.3101

                     55                     56                     57
                      A                      A                      A
 Frequencies --   3061.2112              3061.6390              3066.7317
 Red. masses --      1.0930                 1.1011                 1.0884
 Frc consts  --      6.0349                 6.0811                 6.0310
 IR Inten    --     84.2146                40.4728                 1.1500

                     58                     59                     60
                      A                      A                      A
 Frequencies --   3075.4968              3081.7764              3084.7777
 Red. masses --      1.0996                 1.0999                 1.1051
 Frc consts  --      6.1278                 6.1548                 6.1958
 IR Inten    --     14.5114                25.3620                57.4745

                     61                     62                     63
                      A                      A                      A
 Frequencies --   3095.7839              3141.9965              3169.7530
 Red. masses --      1.0894                 1.0955                 1.0886
 Frc consts  --      6.1512                 6.3717                 6.4445
 IR Inten    --     56.4642                30.2141                21.6153

 - Thermochemistry -
 -------------------
 Temperature   298.150 Kelvin.  Pressure   1.00000 Atm.
 Atom     1 has atomic number  6 and mass  12.00000

 Molecular mass:   122.10955 amu.
 Principal axes and moments of inertia in atomic units:
                           1         2         3
     Eigenvalues --   641.100431111.402351496.63380
           X            0.99999  -0.00480  -0.00020
           Y            0.00480   0.99999  -0.00019
           Z            0.00020   0.00019   1.00000
 This molecule is an asymmetric top.
 Rotational symmetry number  1.
 Warning -- assumption of classical behavior for rotation
           may cause significant error
 Rotational temperatures (Kelvin)      0.13510     0.07793     0.05787
 Rotational constants (GHZ):           2.81507     1.62384     1.20587
 Zero-point vibrational energy     543661.4 (Joules/Mol)
                                  129.93819 (Kcal/Mol)
 Warning -- explicit consideration of   9 degrees of freedom as
           vibrations may cause significant error
 Vibrational temperatures:    108.29   187.91   260.21   308.18   414.53
          (Kelvin)            487.78   504.08   572.72   695.89   898.06
                              972.15  1020.57  1033.78  1149.54  1154.08
                             1184.82  1273.99  1295.39  1336.33  1397.66
                             1435.95  1462.16  1468.45  1507.93  1538.58
                             1548.11  1571.35  1606.91  1616.70  1673.80
                             1707.11  1740.49  1743.44  1763.61  1803.31
                             1816.66  1841.63  1870.90  1916.41  1959.84
                             2019.36  2042.91  2082.75  2135.29  2143.41
                             2145.93  2160.67  2171.97  2184.57  4324.24
                             4354.10  4361.16  4365.32  4379.59  4404.40
                             4405.02  4412.34  4424.95  4433.99  4438.31
                             4454.14  4520.63  4560.57

 Zero-point correction=                           0.207070 (Hartree/Particle)
 Thermal correction to Energy=                    0.215590
 Thermal correction to Enthalpy=                  0.216534
 Thermal correction to Gibbs Free Energy=         0.174159
 Sum of electronic and zero-point Energies=           -351.126034
 Sum of electronic and thermal Energies=              -351.117513
 Sum of electronic and thermal Enthalpies=            -351.116569
 Sum of electronic and thermal Free Energies=         -351.158945

                     E (Thermal)             CV                S
                      KCal/Mol        Cal/Mol-Kelvin    Cal/Mol-Kelvin
 Total                  135.285             33.948             89.187
 Electronic               0.000              0.000              0.000
 Translational            0.889              2.981             40.313
 Rotational               0.889              2.981             28.457
 Vibrational            133.507             27.986             20.416
 Vibration     1          0.599              1.966              4.011
 Vibration     2          0.612              1.923              2.937
 Vibration     3          0.630              1.866              2.320
 Vibration     4          0.644              1.819              2.008
 Vibration     5          0.685              1.696              1.485
 Vibration     6          0.719              1.598              1.217
 Vibration     7          0.727              1.575              1.165
 Vibration     8          0.764              1.474              0.970
 Vibration     9          0.840              1.286              0.700

 Optimization completed.
    -- Stationary point found.
 Normal termination of Gaussian 16 at Sun May 28 13:42:40 2023.
