 Gaussian 16, Revision A.03,
 Gaussian 16:  ES64L-G16RevA.03 25-Dec-2016

 -----------------------------
 # opt freq b3lyp/6-31g(2df,p)
 -----------------------------

 -------------------
 Title Card Required
 -------------------
 Symbolic Z-matrix:
 Charge =  0 Multiplicity = 1

 SCF Done:  E(RB3LYP) =  -507.648891466     A.U. after   12 cycles
 SCF Done:  E(RB3LYP) =  -507.667048127     A.U. after   11 cycles
 SCF Done:  E(RB3LYP) =  -507.673959977     A.U. after   11 cycles
 SCF Done:  E(RB3LYP) =  -507.675247015     A.U. after   10 cycles
 SCF Done:  E(RB3LYP) =  -507.676024034     A.U. after   10 cycles
 SCF Done:  E(RB3LYP) =  -507.676136192     A.U. after    9 cycles
 SCF Done:  E(RB3LYP) =  -507.676145018     A.U. after    8 cycles
 SCF Done:  E(RB3LYP) =  -507.676147572     A.U. after    7 cycles
 SCF Done:  E(RB3LYP) =  -507.676151185     A.U. after    7 cycles
 SCF Done:  E(RB3LYP) =  -507.676151429     A.U. after    6 cycles
 SCF Done:  E(RB3LYP) =  -507.676151525     A.U. after    6 cycles
 SCF Done:  E(RB3LYP) =  -507.676151537     A.U. after    5 cycles
 SCF Done:  E(RB3LYP) =  -507.676151536     A.U. after    6 cycles
 SCF Done:  E(RB3LYP) =  -507.676151523     A.U. after    6 cycles
 SCF Done:  E(RB3LYP) =  -507.676151508     A.U. after    6 cycles
 SCF Done:  E(RB3LYP) =  -507.676151498     A.U. after    6 cycles
 Optimization completed.
    -- Stationary point found.
 Normal termination of Gaussian 16 at Tue May 23 19:10:47 2023.

 ----------------------------------------------------------------------
 #N Geom=AllCheck Guess=TCheck SCRF=Check GenChk RB3LYP/6-31G(2df,p) Fr
 eq
 ----------------------------------------------------------------------

 Structure from the checkpoint file:  "CC1CCCCCqCrCqCrqOrC1.chk"
 -------------------
 Title Card Required
 -------------------
 Charge =  0 Multiplicity = 1

                         Standard orientation:
 ---------------------------------------------------------------------
 Center     Atomic      Atomic             Coordinates (Angstroms)
 Number     Number       Type             X           Y           Z
 ---------------------------------------------------------------------
      1          6           0        2.479562   -1.839069    0.746615
      2          6           0        1.463293   -0.735359    0.395640
      3          6           0        2.122392    0.253066   -0.586254
      4          6           0        1.535973    1.686039   -0.724090
      5          6           0        0.593062    2.200247    0.382902
      6          6           0       -0.908344    1.925369    0.169044
      7          6           0       -1.530547    0.534900    0.446506
      8          6           0       -1.528055    0.172338    1.940293
      9          6           0       -1.114619   -0.662612   -0.464008
     10          6           0       -1.112925   -0.280196   -1.951715
     11          8           0       -2.123678   -1.685773   -0.292604
     12          6           0        0.167661   -1.431492   -0.063550
     13          1           0        3.385460   -1.414819    1.191553
     14          1           0        2.778914   -2.396389   -0.149268
     15          1           0        2.059126   -2.557755    1.457403
     16          1           0        1.258002   -0.196840    1.326185
     17          1           0        2.182173   -0.215705   -1.577382
     18          1           0        3.162938    0.360050   -0.258049
     19          1           0        1.017916    1.797767   -1.682890
     20          1           0        2.386583    2.373754   -0.787823
     21          1           0        0.697441    3.291498    0.413762
     22          1           0        0.919321    1.855891    1.370694
     23          1           0       -1.156714    2.223943   -0.857258
     24          1           0       -1.460155    2.623204    0.812551
     25          1           0       -2.590466    0.678140    0.180945
     26          1           0       -0.520959    0.109603    2.360971
     27          1           0       -2.019698   -0.790895    2.094498
     28          1           0       -2.072111    0.929906    2.514480
     29          1           0       -2.030460    0.259220   -2.219221
     30          1           0       -1.070982   -1.194773   -2.549946
     31          1           0       -0.268072    0.349589   -2.231564
     32          1           0       -2.945641   -1.345942   -0.663489
     33          1           0        0.412874   -2.095886   -0.903080
     34          1           0       -0.140786   -2.096764    0.749457
 ---------------------------------------------------------------------

 SCF Done:  E(RB3LYP) =  -507.676151498     A.U. after    1 cycles

 The electronic state is 1-A.
 Alpha  occ. eigenvalues --  -19.12373 -10.23093 -10.18191 -10.18057 -10.17589
 Alpha  occ. eigenvalues --  -10.17566 -10.17494 -10.17298 -10.16946 -10.16702
 Alpha  occ. eigenvalues --  -10.16692 -10.16324  -1.00659  -0.81975  -0.78706
 Alpha  occ. eigenvalues --   -0.76829  -0.72825  -0.69714  -0.67899  -0.64555
 Alpha  occ. eigenvalues --   -0.61769  -0.57525  -0.56544  -0.51548  -0.48118
 Alpha  occ. eigenvalues --   -0.46892  -0.45807  -0.44848  -0.42960  -0.42486
 Alpha  occ. eigenvalues --   -0.41423  -0.40144  -0.39715  -0.38868  -0.37794
 Alpha  occ. eigenvalues --   -0.37306  -0.35986  -0.35768  -0.34618  -0.33614
 Alpha  occ. eigenvalues --   -0.32550  -0.32305  -0.31826  -0.30917  -0.30130
 Alpha  occ. eigenvalues --   -0.29336  -0.28939  -0.25613
 Alpha virt. eigenvalues --    0.06438   0.08477   0.09595   0.10611   0.11021
 Alpha virt. eigenvalues --    0.11826   0.13893   0.14398   0.14616   0.15626
 Alpha virt. eigenvalues --    0.15874   0.16658   0.17119   0.17530   0.18454

 Mulliken charges:
               1
     1  C   -0.395451
     2  C    0.011924
     3  C   -0.185469
     4  C   -0.207321
     5  C   -0.191244
     6  C   -0.218789
     7  C    0.027564
     8  C   -0.417208
     9  C    0.305635
    10  C   -0.449191
    11  O   -0.459860
    12  C   -0.180883
    13  H    0.105912
    14  H    0.111990
    15  H    0.110012
    16  H    0.073943
    17  H    0.090059
    18  H    0.091889
    19  H    0.097139
    20  H    0.091447
    21  H    0.090913
    22  H    0.096839
    23  H    0.091298
    24  H    0.090138
    25  H    0.054501
    26  H    0.117380
    27  H    0.129794
    28  H    0.103470
    29  H    0.099124
    30  H    0.119966
    31  H    0.125763
    32  H    0.269411
    33  H    0.089302
    34  H    0.110001
 Sum of Mulliken charges =  -0.00000

 Dipole moment (field-independent basis, Debye):
    X=             -0.1412    Y=              1.3021    Z=             -0.5120  Tot=              1.4063
 Quadrupole moment (field-independent basis, Debye-Ang):
   XX=            -74.6265   YY=            -81.2801   ZZ=            -77.4415
   XY=             -1.8041   XZ=              1.9617   YZ=              0.6065

  Exact polarizability: 126.980  -1.308 120.993  -0.022  -0.304 111.322
 Approx polarizability: 173.713   1.026 170.468   1.284   0.012 167.407

                      1                      2                      3
                      A                      A                      A
 Frequencies --     43.6738               112.3089               160.9847
 Red. masses --      1.9869                 2.7809                 2.5028
 Frc consts  --      0.0022                 0.0207                 0.0382
 IR Inten    --      0.1641                 0.2283                 0.3177

                      4                      5                      6
                      A                      A                      A
 Frequencies --    165.3302               210.4120               222.5753
 Red. masses --      2.7826                 2.3036                 1.1075
 Frc consts  --      0.0448                 0.0601                 0.0323
 IR Inten    --      0.2082                 0.2779                 0.2305

                      7                      8                      9
                      A                      A                      A
 Frequencies --    232.2758               245.3710               254.0127
 Red. masses --      1.3300                 1.3607                 2.0582
 Frc consts  --      0.0423                 0.0483                 0.0782
 IR Inten    --      0.2086                 0.4707                 0.3291

                     10                     11                     12
                      A                      A                      A
 Frequencies --    288.5901               295.3584               307.3385
 Red. masses --      1.9099                 2.4160                 2.4228
 Frc consts  --      0.0937                 0.1242                 0.1348
 IR Inten    --      0.3398                 0.6781                 3.9617

                     13                     14                     15
                      A                      A                      A
 Frequencies --    318.8182               336.4387               379.8457
 Red. masses --      1.2806                 2.1807                 2.4213
 Frc consts  --      0.0767                 0.1454                 0.2058
 IR Inten    --     51.6942                34.5701                 3.2417

                     16                     17                     18
                      A                      A                      A
 Frequencies --    394.0560               404.8376               464.6230
 Red. masses --      2.1015                 2.0564                 2.5769
 Frc consts  --      0.1923                 0.1986                 0.3278
 IR Inten    --      0.1275                 0.2133                 5.3139

                     19                     20                     21
                      A                      A                      A
 Frequencies --    472.3115               501.8560               541.0902
 Red. masses --      2.7484                 2.0897                 3.2669
 Frc consts  --      0.3612                 0.3101                 0.5635
 IR Inten    --      4.7765                 2.1933                 3.2185

                     22                     23                     24
                      A                      A                      A
 Frequencies --    601.0718               699.2874               755.3564
 Red. masses --      2.8078                 2.6896                 1.7495
 Frc consts  --      0.5977                 0.7749                 0.5881
 IR Inten    --      0.6608                 2.1434                 4.3661

                     25                     26                     27
                      A                      A                      A
 Frequencies --    796.2263               813.5395               852.0176
 Red. masses --      1.7929                 2.4349                 1.5911
 Frc consts  --      0.6697                 0.9495                 0.6805
 IR Inten    --      3.7560                 3.1735                 0.8011

                     28                     29                     30
                      A                      A                      A
 Frequencies --    885.3655               917.5742               921.6794
 Red. masses --      2.2206                 1.6720                 2.1441
 Frc consts  --      1.0256                 0.8294                 1.0731
 IR Inten    --      5.4106                 2.2694                27.2716

                     31                     32                     33
                      A                      A                      A
 Frequencies --    928.5350               930.9522               981.8494
 Red. masses --      2.0564                 1.8702                 1.8388
 Frc consts  --      1.0446                 0.9550                 1.0444
 IR Inten    --      1.5474                 1.7065                 1.3136

                     34                     35                     36
                      A                      A                      A
 Frequencies --    996.3513              1017.7151              1039.2368
 Red. masses --      1.7329                 1.6121                 1.7010
 Frc consts  --      1.0136                 0.9838                 1.0824
 IR Inten    --      1.3912                 1.0419                 2.7091

                     37                     38                     39
                      A                      A                      A
 Frequencies --   1049.3097              1074.8583              1078.2891
 Red. masses --      2.0821                 1.8722                 1.8802
 Frc consts  --      1.3507                 1.2744                 1.2880
 IR Inten    --      5.0731                 1.9988                19.4616

                     40                     41                     42
                      A                      A                      A
 Frequencies --   1103.2371              1121.5851              1141.2188
 Red. masses --      2.1134                 2.2527                 2.2125
 Frc consts  --      1.5156                 1.6697                 1.6977
 IR Inten    --      1.3041                49.7398                 3.0684

                     43                     44                     45
                      A                      A                      A
 Frequencies --   1173.5002              1180.5711              1206.8658
 Red. masses --      2.1215                 2.2763                 1.7164
 Frc consts  --      1.7213                 1.8692                 1.4730
 IR Inten    --      7.0097                 6.8392                 1.9868

                     46                     47                     48
                      A                      A                      A
 Frequencies --   1209.7760              1260.0917              1271.2762
 Red. masses --      1.5471                 1.1013                 1.4102
 Frc consts  --      1.3341                 1.0303                 1.3428
 IR Inten    --      7.0461                 4.4041                 4.6191

                     49                     50                     51
                      A                      A                      A
 Frequencies --   1297.0860              1315.2250              1330.0285
 Red. masses --      1.1939                 1.2661                 1.1717
 Frc consts  --      1.1835                 1.2904                 1.2212
 IR Inten    --      7.1794                 0.9094                 8.9208

                     52                     53                     54
                      A                      A                      A
 Frequencies --   1340.8446              1348.6928              1357.5782
 Red. masses --      1.3542                 1.5194                 1.2505
 Frc consts  --      1.4345                 1.6284                 1.3579
 IR Inten    --      0.9368                18.0047                 5.2534

                     55                     56                     57
                      A                      A                      A
 Frequencies --   1378.0789              1384.0084              1390.1219
 Red. masses --      1.3144                 1.3146                 1.3798
 Frc consts  --      1.4707                 1.4836                 1.5709
 IR Inten    --      1.9526                 5.0546                 4.3103

                     58                     59                     60
                      A                      A                      A
 Frequencies --   1397.4074              1399.2260              1403.8825
 Red. masses --      1.3416                 1.3436                 1.2805
 Frc consts  --      1.5435                 1.5499                 1.4869
 IR Inten    --      7.5316                 8.3983                 7.3439

                     61                     62                     63
                      A                      A                      A
 Frequencies --   1410.7886              1417.3744              1423.5662
 Red. masses --      1.3359                 1.3006                 1.3683
 Frc consts  --      1.5666                 1.5395                 1.6337
 IR Inten    --      4.2772                 9.1529                 3.8806

                     64                     65                     66
                      A                      A                      A
 Frequencies --   1474.0816              1479.6525              1481.8490
 Red. masses --      1.0760                 1.0779                 1.0741
 Frc consts  --      1.3775                 1.3904                 1.3896
 IR Inten    --      0.6203                 3.0772                 3.7847

                     67                     68                     69
                      A                      A                      A
 Frequencies --   1492.5940              1496.9189              1498.6532
 Red. masses --      1.0749                 1.0577                 1.0541
 Frc consts  --      1.4109                 1.3964                 1.3949
 IR Inten    --      6.9531                 2.5142                 2.2419

                     70                     71                     72
                      A                      A                      A
 Frequencies --   1499.1645              1499.9560              1503.6322
 Red. masses --      1.0714                 1.0520                 1.0654
 Frc consts  --      1.4187                 1.3944                 1.4192
 IR Inten    --      1.7548                 4.2058                 0.1731

                     73                     74                     75
                      A                      A                      A
 Frequencies --   1513.7471              1515.6654              2958.4126
 Red. masses --      1.0708                 1.0680                 1.0819
 Frc consts  --      1.4456                 1.4455                 5.5791
 IR Inten    --      8.2107                 3.3841                34.6660

                     76                     77                     78
                      A                      A                      A
 Frequencies --   3010.5009              3012.3688              3016.1327
 Red. masses --      1.0640                 1.0602                 1.0628
 Frc consts  --      5.6817                 5.6684                 5.6963
 IR Inten    --     28.5622                 2.6181                13.0973

                     79                     80                     81
                      A                      A                      A
 Frequencies --   3024.3088              3025.1032              3027.5688
 Red. masses --      1.0438                 1.0604                 1.0491
 Frc consts  --      5.6251                 5.7172                 5.6659
 IR Inten    --     27.8171                37.7189                26.4952

                     82                     83                     84
                      A                      A                      A
 Frequencies --   3037.2616              3038.1966              3041.7201
 Red. masses --      1.0770                 1.0800                 1.0479
 Frc consts  --      5.8537                 5.8738                 5.7123
 IR Inten    --     19.1442                36.6488                 4.2880

                     85                     86                     87
                      A                      A                      A
 Frequencies --   3045.9156              3053.2814              3064.3532
 Red. masses --      1.0892                 1.0851                 1.0991
 Frc consts  --      5.9538                 5.9603                 6.0809
 IR Inten    --     43.5728                25.5050                43.4784

                     88                     89                     90
                      A                      A                      A
 Frequencies --   3069.5613              3074.2563              3093.1085
 Red. masses --      1.0963                 1.0961                 1.0990
 Frc consts  --      6.0859                 6.1035                 6.1950
 IR Inten    --     15.1936                61.5842                57.5442

                     91                     92                     93
                      A                      A                      A
 Frequencies --   3098.6742              3100.2225              3105.4224
 Red. masses --      1.0941                 1.1016                 1.0964
 Frc consts  --      6.1896                 6.2379                 6.2295
 IR Inten    --     34.0103                37.5768                32.9693

                     94                     95                     96
                      A                      A                      A
 Frequencies --   3128.4975              3148.9838              3795.4730
 Red. masses --      1.1006                 1.0955                 1.0658
 Frc consts  --      6.3470                 6.4001                 9.0463
 IR Inten    --     18.3889                15.7556                 7.1507

 - Thermochemistry -
 -------------------
 Temperature   298.150 Kelvin.  Pressure   1.00000 Atm.
 Atom     1 has atomic number  6 and mass  12.00000

 Molecular mass:   170.16707 amu.
 Principal axes and moments of inertia in atomic units:
                           1         2         3
     Eigenvalues --  1771.204222158.962042729.94413
           X            0.99642  -0.08449   0.00032
           Y            0.08448   0.99636  -0.01147
           Z            0.00065   0.01146   0.99993
 This molecule is an asymmetric top.
 Rotational symmetry number  1.
 Warning -- assumption of classical behavior for rotation
           may cause significant error
 Rotational temperatures (Kelvin)      0.04890     0.04012     0.03173
 Rotational constants (GHZ):           1.01893     0.83593     0.66109
 Zero-point vibrational energy     827687.8 (Joules/Mol)
                                  197.82213 (Kcal/Mol)
 Warning -- explicit consideration of  22 degrees of freedom as
           vibrations may cause significant error
 Vibrational temperatures:     62.84   161.59   231.62   237.87   302.74
          (Kelvin)            320.24   334.19   353.03   365.47   415.22
                              424.95   442.19   458.71   484.06   546.51
                              566.96   582.47   668.49   679.55   722.06
                              778.51   864.81  1006.12  1086.79  1145.59
                             1170.50  1225.86  1273.84  1320.18  1326.09
                             1335.95  1339.43  1412.66  1433.53  1464.27
                             1495.23  1509.72  1546.48  1551.42  1587.31
                             1613.71  1641.96  1688.41  1698.58  1736.41
                             1740.60  1812.99  1829.08  1866.22  1892.32
                             1913.61  1929.18  1940.47  1953.25  1982.75
                             1991.28  2000.08  2010.56  2013.17  2019.87
                             2029.81  2039.29  2048.19  2120.87  2128.89
                             2132.05  2147.51  2153.73  2156.23  2156.96
                             2158.10  2163.39  2177.94  2180.70  4256.50
                             4331.44  4334.13  4339.54  4351.31  4352.45
                             4356.00  4369.94  4371.29  4376.36  4382.39
                             4392.99  4408.92  4416.41  4423.17  4450.29
                             4458.30  4460.53  4468.01  4501.21  4530.69
                             5460.84

 Zero-point correction=                           0.315250 (Hartree/Particle)
 Thermal correction to Energy=                    0.328760
 Thermal correction to Enthalpy=                  0.329704
 Thermal correction to Gibbs Free Energy=         0.277040
 Sum of electronic and zero-point Energies=           -507.360902
 Sum of electronic and thermal Energies=              -507.347392
 Sum of electronic and thermal Enthalpies=            -507.346448
 Sum of electronic and thermal Free Energies=         -507.399111

                     E (Thermal)             CV                S
                      KCal/Mol        Cal/Mol-Kelvin    Cal/Mol-Kelvin
 Total                  206.300             54.166            110.840
 Electronic               0.000              0.000              0.000
 Translational            0.889              2.981             41.303
 Rotational               0.889              2.981             30.724
 Vibrational            204.522             48.204             38.813
 Vibration     1          0.595              1.980              5.085
 Vibration     2          0.607              1.939              3.229
 Vibration     3          0.622              1.890              2.538
 Vibration     4          0.624              1.885              2.488
 Vibration     5          0.643              1.825              2.040
 Vibration     6          0.648              1.807              1.938
 Vibration     7          0.653              1.792              1.861
 Vibration     8          0.660              1.770              1.764
 Vibration     9          0.665              1.756              1.703
 Vibration    10          0.685              1.695              1.482
 Vibration    11          0.690              1.682              1.443
 Vibration    12          0.697              1.660              1.377
 Vibration    13          0.705              1.638              1.316
 Vibration    14          0.717              1.603              1.229
 Vibration    15          0.750              1.513              1.040
 Vibration    16          0.761              1.483              0.985
 Vibration    17          0.770              1.460              0.945
 Vibration    18          0.822              1.329              0.753
 Vibration    19          0.829              1.311              0.731
 Vibration    20          0.857              1.246              0.653
 Vibration    21          0.896              1.159              0.563
 Vibration    22          0.959              1.030              0.448

                           ! Non-Optimized Parameters !
 Normal termination of Gaussian 16 at Tue May 23 21:11:20 2023.
