 Gaussian 16, Revision A.03,
 Gaussian 16:  ES64L-G16RevA.03 25-Dec-2016

 -----------------------------
 # opt freq b3lyp/6-31g(2df,p)
 -----------------------------

 -------------------
 Title Card Required
 -------------------
 Symbolic Z-matrix:
 Charge =  0 Multiplicity = 1

 SCF Done:  E(RB3LYP) =  -625.618266650     A.U. after   12 cycles
 SCF Done:  E(RB3LYP) =  -625.628757273     A.U. after   10 cycles
 SCF Done:  E(RB3LYP) =  -625.631479399     A.U. after    9 cycles
 SCF Done:  E(RB3LYP) =  -625.632335384     A.U. after   10 cycles
 SCF Done:  E(RB3LYP) =  -625.632697697     A.U. after   10 cycles
 SCF Done:  E(RB3LYP) =  -625.632833151     A.U. after    8 cycles
 SCF Done:  E(RB3LYP) =  -625.632920528     A.U. after    9 cycles
 SCF Done:  E(RB3LYP) =  -625.632994129     A.U. after    9 cycles
 SCF Done:  E(RB3LYP) =  -625.633052124     A.U. after    9 cycles
 SCF Done:  E(RB3LYP) =  -625.633086562     A.U. after    8 cycles
 SCF Done:  E(RB3LYP) =  -625.636012107     A.U. after    9 cycles
 SCF Done:  E(RB3LYP) =  -625.636484062     A.U. after    9 cycles
 SCF Done:  E(RB3LYP) =  -625.636575972     A.U. after    9 cycles
 SCF Done:  E(RB3LYP) =  -625.636610192     A.U. after    9 cycles
 SCF Done:  E(RB3LYP) =  -625.636619790     A.U. after    8 cycles
 SCF Done:  E(RB3LYP) =  -625.636625584     A.U. after    8 cycles
 SCF Done:  E(RB3LYP) =  -625.636626403     A.U. after    8 cycles
 SCF Done:  E(RB3LYP) =  -625.636626489     A.U. after    6 cycles
 SCF Done:  E(RB3LYP) =  -625.636626501     A.U. after    6 cycles
 Optimization completed.
    -- Stationary point found.
 Normal termination of Gaussian 16 at Mon May 22 23:23:47 2023.

 ----------------------------------------------------------------------
 #N Geom=AllCheck Guess=TCheck SCRF=Check GenChk RB3LYP/6-31G(2df,p) Fr
 eq
 ----------------------------------------------------------------------

 Structure from the checkpoint file:  "CC1CCCCCqCCCCCCOrC1.chk"
 -------------------
 Title Card Required
 -------------------
 Charge =  0 Multiplicity = 1

                         Standard orientation:
 ---------------------------------------------------------------------
 Center     Atomic      Atomic             Coordinates (Angstroms)
 Number     Number       Type             X           Y           Z
 ---------------------------------------------------------------------
      1          6           0       -2.750485    2.815796    0.115413
      2          6           0       -2.942413    1.296607    0.242468
      3          6           0       -4.441367    0.952345    0.129219
      4          6           0       -4.852601   -0.475500    0.512035
      5          6           0       -4.101937   -1.617258   -0.191867
      6          6           0       -2.633306   -1.748722    0.246152
      7          6           0       -1.603551   -0.862919   -0.488949
      8          6           0       -0.284871   -0.847137    0.313565
      9          6           0        0.961142   -0.438433   -0.480954
     10          6           0        2.243466   -0.454912    0.359113
     11          6           0        3.496384   -0.062156   -0.431411
     12          6           0        4.778365   -0.084145    0.407731
     13          6           0        6.021556    0.321220   -0.384317
     14          8           0        7.217362    0.245187    0.376714
     15          6           0       -2.104382    0.561285   -0.829234
     16          1           0       -3.336822    3.358170    0.864735
     17          1           0       -3.069336    3.168516   -0.873206
     18          1           0       -1.699546    3.096230    0.242226
     19          1           0       -2.590578    1.001283    1.241534
     20          1           0       -4.756174    1.155885   -0.904837
     21          1           0       -5.013547    1.647258    0.757427
     22          1           0       -5.927779   -0.582040    0.320765
     23          1           0       -4.727154   -0.605535    1.596317
     24          1           0       -4.169196   -1.505228   -1.282480
     25          1           0       -4.620165   -2.554274    0.044471
     26          1           0       -2.309175   -2.790202    0.130978
     27          1           0       -2.578775   -1.546228    1.325031
     28          1           0       -1.388278   -1.350072   -1.451039
     29          1           0       -0.115684   -1.850736    0.727356
     30          1           0       -0.400080   -0.184156    1.183495
     31          1           0        0.829411    0.564085   -0.908404
     32          1           0        1.080230   -1.117500   -1.336973
     33          1           0        2.384992   -1.456504    0.788289
     34          1           0        2.126388    0.225167    1.214481
     35          1           0        3.355741    0.940561   -0.858930
     36          1           0        3.611796   -0.741075   -1.287771
     37          1           0        4.942093   -1.085582    0.824742
     38          1           0        4.664894    0.594718    1.266293
     39          1           0        5.882467    1.329082   -0.809958
     40          1           0        6.167470   -0.362675   -1.228172
     41          1           0        7.130720    0.853980    1.117131
     42          1           0       -2.697871    0.524779   -1.751644
     43          1           0       -1.230935    1.174163   -1.079342
 ---------------------------------------------------------------------

 SCF Done:  E(RB3LYP) =  -625.636626501     A.U. after    1 cycles

 The electronic state is 1-A.
 Alpha  occ. eigenvalues --  -19.12833 -10.22075 -10.17996 -10.17933 -10.17835
 Alpha  occ. eigenvalues --  -10.17699 -10.17672 -10.17454 -10.17297 -10.17277
 Alpha  occ. eigenvalues --  -10.17221 -10.17110 -10.17093 -10.16893 -10.16802
 Alpha  occ. eigenvalues --   -1.00914  -0.82805  -0.80391  -0.77994  -0.76653
 Alpha  occ. eigenvalues --   -0.74402  -0.69738  -0.68023  -0.64928  -0.62970
 Alpha  occ. eigenvalues --   -0.60155  -0.58107  -0.57581  -0.55419  -0.52994
 Alpha  occ. eigenvalues --   -0.49881  -0.47829  -0.46336  -0.45953  -0.44518
 Alpha  occ. eigenvalues --   -0.43754  -0.43228  -0.42656  -0.40737  -0.40361
 Alpha  occ. eigenvalues --   -0.39541  -0.39312  -0.38351  -0.37879  -0.36554
 Alpha  occ. eigenvalues --   -0.35881  -0.35801  -0.34773  -0.33912  -0.33009
 Alpha  occ. eigenvalues --   -0.32590  -0.32278  -0.31740  -0.31506  -0.30929
 Alpha  occ. eigenvalues --   -0.30424  -0.29654  -0.29308  -0.28854  -0.25912
 Alpha virt. eigenvalues --    0.07551   0.08030   0.09224   0.09473   0.10564
 Alpha virt. eigenvalues --    0.10690   0.11656   0.12167   0.12612   0.13997
 Alpha virt. eigenvalues --    0.14204   0.14662   0.15507   0.15822   0.16334

 Mulliken charges:
               1
     1  C   -0.399997
     2  C    0.048800
     3  C   -0.171388
     4  C   -0.196678
     5  C   -0.205481
     6  C   -0.197840
     7  C    0.015393
     8  C   -0.187281
     9  C   -0.193297
    10  C   -0.176546
    11  C   -0.182599
    12  C   -0.198166
    13  C   -0.056295
    14  O   -0.419417
    15  C   -0.206760
    16  H    0.106280
    17  H    0.111106
    18  H    0.105908
    19  H    0.066798
    20  H    0.087726
    21  H    0.084392
    22  H    0.087235
    23  H    0.090427
    24  H    0.089593
    25  H    0.089167
    26  H    0.087892
    27  H    0.089527
    28  H    0.062987
    29  H    0.087339
    30  H    0.090619
    31  H    0.095991
    32  H    0.091502
    33  H    0.093404
    34  H    0.090826
    35  H    0.092785
    36  H    0.095665
    37  H    0.104437
    38  H    0.082087
    39  H    0.082679
    40  H    0.109449
    41  H    0.278505
    42  H    0.087181
    43  H    0.086045
 Sum of Mulliken charges =  -0.00000

 Dipole moment (field-independent basis, Debye):
    X=             -1.3976    Y=              0.6639    Z=              0.4179  Tot=              1.6027
 Quadrupole moment (field-independent basis, Debye-Ang):
   XX=           -115.8805   YY=            -96.5652   ZZ=            -95.8487
   XY=              5.9066   XZ=              3.2670   YZ=              2.0459

  Exact polarizability: 190.078   1.970 147.559  -0.456   0.893 131.253
 Approx polarizability: 215.872  -1.124 211.506   1.867   2.413 212.682

                      1                      2                      3
                      A                      A                      A
 Frequencies --     23.1968                32.5354                41.8767
 Red. masses --      4.0924                 1.8886                 3.0635
 Frc consts  --      0.0013                 0.0012                 0.0032
 IR Inten    --      0.2350                 1.2296                 1.0436

                      4                      5                      6
                      A                      A                      A
 Frequencies --     61.2148                88.4090               106.7367
 Red. masses --      3.5697                 3.0137                 1.7901
 Frc consts  --      0.0079                 0.0139                 0.0120
 IR Inten    --      0.6161                 0.1466                 1.5138

                      7                      8                      9
                      A                      A                      A
 Frequencies --    119.9923               147.0007               161.8940
 Red. masses --      2.6284                 3.1905                 2.2092
 Frc consts  --      0.0223                 0.0406                 0.0341
 IR Inten    --      1.1272                 0.5443                 0.6105

                     10                     11                     12
                      A                      A                      A
 Frequencies --    164.1648               178.6232               195.2161
 Red. masses --      1.8977                 3.2671                 2.6415
 Frc consts  --      0.0301                 0.0614                 0.0593
 IR Inten    --      0.3471                 0.0169                 0.1665

                     13                     14                     15
                      A                      A                      A
 Frequencies --    229.8420               268.6309               293.5632
 Red. masses --      1.2434                 2.1161                 2.2730
 Frc consts  --      0.0387                 0.0900                 0.1154
 IR Inten    --      0.2523                 5.3166                 0.0901

                     16                     17                     18
                      A                      A                      A
 Frequencies --    302.5017               313.2424               343.5384
 Red. masses --      1.4048                 2.1040                 2.2472
 Frc consts  --      0.0757                 0.1216                 0.1563
 IR Inten    --     72.1935                30.4073                 2.7848

                     19                     20                     21
                      A                      A                      A
 Frequencies --    357.2785               385.6904               429.0248
 Red. masses --      2.4187                 2.8664                 3.7360
 Frc consts  --      0.1819                 0.2512                 0.4052
 IR Inten    --      0.7664                 3.7148                 3.3374

                     22                     23                     24
                      A                      A                      A
 Frequencies --    444.9717               481.2727               503.5512
 Red. masses --      1.8133                 2.3695                 1.9758
 Frc consts  --      0.2115                 0.3234                 0.2952
 IR Inten    --      0.0524                 1.0030                 0.7629

                     25                     26                     27
                      A                      A                      A
 Frequencies --    520.7638               564.6078               731.2956
 Red. masses --      2.6231                 2.5900                 1.0723
 Frc consts  --      0.4191                 0.4865                 0.3379
 IR Inten    --      2.0291                 0.6752                 3.4479

                     28                     29                     30
                      A                      A                      A
 Frequencies --    746.3460               766.0924               786.1343
 Red. masses --      1.1087                 2.4789                 1.2189
 Frc consts  --      0.3639                 0.8572                 0.4438
 IR Inten    --      0.5828                 0.2939                 0.9872

                     31                     32                     33
                      A                      A                      A
 Frequencies --    794.7248               823.2488               843.6967
 Red. masses --      1.7861                 1.8329                 1.7420
 Frc consts  --      0.6646                 0.7319                 0.7306
 IR Inten    --      0.6060                 1.3288                 0.5879

                     34                     35                     36
                      A                      A                      A
 Frequencies --    876.2953               903.0534               909.8333
 Red. masses --      1.3993                 1.9168                 1.6790
 Frc consts  --      0.6331                 0.9210                 0.8189
 IR Inten    --      0.7252                 3.4876                 0.1618

                     37                     38                     39
                      A                      A                      A
 Frequencies --    949.7693               958.9156               979.8439
 Red. masses --      1.9970                 1.9146                 1.6676
 Frc consts  --      1.0613                 1.0373                 0.9433
 IR Inten    --      2.5022                 1.7704                 2.0820

                     40                     41                     42
                      A                      A                      A
 Frequencies --    987.0306               996.6306              1017.1338
 Red. masses --      1.9790                 3.4502                 2.4984
 Frc consts  --      1.1359                 2.0191                 1.5229
 IR Inten    --      6.0330                10.6420                 3.6263

                     43                     44                     45
                      A                      A                      A
 Frequencies --   1025.0750              1045.4785              1057.8459
 Red. masses --      1.6024                 2.5642                 2.1848
 Frc consts  --      0.9920                 1.6513                 1.4405
 IR Inten    --      1.1016                 6.8571                 0.5239

                     46                     47                     48
                      A                      A                      A
 Frequencies --   1066.7880              1078.2232              1078.9098
 Red. masses --      2.2458                 2.4863                 2.8891
 Frc consts  --      1.5058                 1.7030                 1.9815
 IR Inten    --      2.1831                34.8889                49.1472

                     49                     50                     51
                      A                      A                      A
 Frequencies --   1084.1185              1084.5286              1091.3883
 Red. masses --      3.2924                 1.5660                 1.3378
 Frc consts  --      2.2799                 1.0852                 0.9389
 IR Inten    --     20.1247                 8.7309                 1.4565

                     52                     53                     54
                      A                      A                      A
 Frequencies --   1114.6941              1136.9631              1161.3656
 Red. masses --      1.9333                 1.3875                 2.0733
 Frc consts  --      1.4153                 1.0568                 1.6476
 IR Inten    --      0.7086                 5.1459                 2.1313

                     55                     56                     57
                      A                      A                      A
 Frequencies --   1176.3038              1203.0145              1230.2740
 Red. masses --      2.2842                 1.6418                 1.2339
 Frc consts  --      1.8622                 1.4000                 1.1003
 IR Inten    --      0.9002                 0.7497                 1.8649

                     58                     59                     60
                      A                      A                      A
 Frequencies --   1235.9993              1246.1075              1257.0419
 Red. masses --      1.3215                 1.5052                 1.2849
 Frc consts  --      1.1895                 1.3771                 1.1963
 IR Inten    --      2.2238                 7.4352                 5.4736

                     61                     62                     63
                      A                      A                      A
 Frequencies --   1276.0905              1292.3298              1294.3055
 Red. masses --      1.2703                 1.2981                 1.3030
 Frc consts  --      1.2188                 1.2773                 1.2861
 IR Inten    --      1.3325                 0.8054                 4.0579

                     64                     65                     66
                      A                      A                      A
 Frequencies --   1309.5827              1318.6221              1326.0640
 Red. masses --      1.1140                 1.1018                 1.2505
 Frc consts  --      1.1256                 1.1287                 1.2956
 IR Inten    --      0.7620                 1.4862                 1.6091

                     67                     68                     69
                      A                      A                      A
 Frequencies --   1331.7661              1333.2974              1333.9914
 Red. masses --      1.1867                 1.1215                 1.1966
 Frc consts  --      1.2401                 1.1746                 1.2546
 IR Inten    --      1.2957                 1.3097                 0.6354

                     70                     71                     72
                      A                      A                      A
 Frequencies --   1343.3652              1363.9338              1376.5554
 Red. masses --      1.2491                 1.3259                 1.3879
 Frc consts  --      1.3281                 1.4533                 1.5495
 IR Inten    --      0.6034                 3.0149                 1.9840

                     73                     74                     75
                      A                      A                      A
 Frequencies --   1378.7676              1387.0077              1389.2117
 Red. masses --      1.3321                 1.4168                 1.4112
 Frc consts  --      1.4920                 1.6059                 1.6047
 IR Inten    --      0.9842                 3.2602                 1.4756

                     76                     77                     78
                      A                      A                      A
 Frequencies --   1393.6847              1395.9678              1400.0901
 Red. masses --      1.3890                 1.4597                 1.5116
 Frc consts  --      1.5896                 1.6759                 1.7458
 IR Inten    --      3.5947                 1.5879                 1.9984

                     79                     80                     81
                      A                      A                      A
 Frequencies --   1403.1086              1404.9201              1418.7116
 Red. masses --      1.4929                 1.3634                 1.3051
 Frc consts  --      1.7317                 1.5856                 1.5477
 IR Inten    --      2.6919                 0.2487                 2.9111

                     82                     83                     84
                      A                      A                      A
 Frequencies --   1424.2140              1477.0642              1478.8573
 Red. masses --      1.2958                 1.0766                 1.0795
 Frc consts  --      1.5486                 1.3838                 1.3910
 IR Inten    --     55.8745                 0.8926                 0.5322

                     85                     86                     87
                      A                      A                      A
 Frequencies --   1483.0719              1485.3453              1486.8350
 Red. masses --      1.0728                 1.0846                 1.0917
 Frc consts  --      1.3902                 1.4099                 1.4219
 IR Inten    --      0.0823                 0.4182                 1.8642

                     88                     89                     90
                      A                      A                      A
 Frequencies --   1488.5899              1495.2003              1498.6812
 Red. masses --      1.0904                 1.0912                 1.0579
 Frc consts  --      1.4235                 1.4373                 1.4000
 IR Inten    --      1.5267                 1.9839                 1.3940

                     91                     92                     93
                      A                      A                      A
 Frequencies --   1499.4745              1501.4905              1504.5346
 Red. masses --      1.0733                 1.0622                 1.0832
 Frc consts  --      1.4218                 1.4109                 1.4447
 IR Inten    --      8.8168                 3.3620                 1.1592

                     94                     95                     96
                      A                      A                      A
 Frequencies --   1509.6399              1518.2169              2964.7408
 Red. masses --      1.0952                 1.0969                 1.0710
 Frc consts  --      1.4705                 1.4897                 5.5462
 IR Inten    --      3.6650                 1.1940                52.5172

                     97                     98                     99
                      A                      A                      A
 Frequencies --   2984.7122              2993.5287              2996.1979
 Red. masses --      1.0798                 1.0727                 1.0641
 Frc consts  --      5.6674                 5.6635                 5.6283
 IR Inten    --      7.1220                 1.0597                 9.0134

                    100                    101                    102
                      A                      A                      A
 Frequencies --   2997.1635              3000.9590              3001.3885
 Red. masses --      1.0603                 1.0590                 1.0690
 Frc consts  --      5.6119                 5.6189                 5.6737
 IR Inten    --      5.6911                 2.5366                15.1566

                    103                    104                    105
                      A                      A                      A
 Frequencies --   3003.1730              3004.6108              3008.8093
 Red. masses --      1.0646                 1.0626                 1.0643
 Frc consts  --      5.6570                 5.6518                 5.6770
 IR Inten    --      9.8326                17.0061                 6.4697

                    106                    107                    108
                      A                      A                      A
 Frequencies --   3013.0666              3014.9370              3019.3338
 Red. masses --      1.0630                 1.0624                 1.0498
 Frc consts  --      5.6859                 5.6898                 5.6385
 IR Inten    --     14.8359                99.6495                23.2123

                    109                    110                    111
                      A                      A                      A
 Frequencies --   3022.2351              3025.0274              3028.3133
 Red. masses --      1.0850                 1.0735                 1.0870
 Frc consts  --      5.8388                 5.7878                 5.8732
 IR Inten    --     11.0829                34.1266                26.9366

                    112                    113                    114
                      A                      A                      A
 Frequencies --   3039.0681              3039.5616              3044.4608
 Red. masses --      1.0992                 1.0947                 1.1002
 Frc consts  --      5.9814                 5.9589                 6.0080
 IR Inten    --     11.5707                60.7896                32.2543

                    115                    116                    117
                      A                      A                      A
 Frequencies --   3050.5377              3052.3398              3053.7920
 Red. masses --      1.0967                 1.0958                 1.0946
 Frc consts  --      6.0129                 6.0152                 6.0142
 IR Inten    --     43.5127                37.7483                43.3281

                    118                    119                    120
                      A                      A                      A
 Frequencies --   3057.5090              3063.4611              3073.0925
 Red. masses --      1.1008                 1.1013                 1.1006
 Frc consts  --      6.0633                 6.0893                 6.1241
 IR Inten    --     68.0452                59.3353               127.0909

                    121                    122                    123
                      A                      A                      A
 Frequencies --   3086.7588              3095.9425              3814.2496
 Red. masses --      1.1001                 1.1016                 1.0661
 Frc consts  --      6.1755                 6.2209                 9.1380
 IR Inten    --     44.3765                42.5411                14.3402

 - Thermochemistry -
 -------------------
 Temperature   298.150 Kelvin.  Pressure   1.00000 Atm.
 Atom     1 has atomic number  6 and mass  12.00000

 Molecular mass:   212.21402 amu.
 Principal axes and moments of inertia in atomic units:
                           1         2         3
     Eigenvalues --  1285.75341********************
           X            1.00000  -0.00090  -0.00108
           Y            0.00090   0.99999  -0.00326
           Z            0.00108   0.00326   0.99999
 This molecule is an asymmetric top.
 Rotational symmetry number  1.
 Warning -- assumption of classical behavior for rotation
           may cause significant error
 Rotational temperatures (Kelvin)      0.06736     0.00732     0.00684
 Rotational constants (GHZ):           1.40364     0.15256     0.14243
 Zero-point vibrational energy    1053162.8 (Joules/Mol)
                                  251.71194 (Kcal/Mol)
 Warning -- explicit consideration of  26 degrees of freedom as
           vibrations may cause significant error
 Vibrational temperatures:     33.37    46.81    60.25    88.07   127.20
          (Kelvin)            153.57   172.64   211.50   232.93   236.20
                              257.00   280.87   330.69   386.50   422.37
                              435.23   450.69   494.28   514.04   554.92
                              617.27   640.22   692.44   724.50   749.26
                              812.34  1052.17  1073.83  1102.24  1131.07
                             1143.43  1184.47  1213.89  1260.79  1299.29
                             1309.05  1366.51  1379.67  1409.78  1420.12
                             1433.93  1463.43  1474.85  1504.21  1522.00
                             1534.87  1551.32  1552.31  1559.80  1560.39
                             1570.26  1603.80  1635.84  1670.95  1692.44
                             1730.87  1770.09  1778.33  1792.87  1808.60
                             1836.01  1859.37  1862.22  1884.20  1897.20
                             1907.91  1916.11  1918.32  1919.32  1932.80
                             1962.40  1980.56  1983.74  1995.59  1998.77
                             2005.20  2008.49  2014.42  2018.76  2021.37
                             2041.21  2049.13  2125.17  2127.75  2133.81
                             2137.08  2139.22  2141.75  2151.26  2156.27
                             2157.41  2160.31  2164.69  2172.04  2184.38
                             4265.60  4294.34  4307.02  4310.86  4312.25
                             4317.71  4318.33  4320.90  4322.96  4329.01
                             4335.13  4337.82  4344.15  4348.32  4352.34
                             4357.07  4372.54  4373.25  4380.30  4389.04
                             4391.64  4393.73  4399.07  4407.64  4421.49
                             4441.16  4454.37  5487.85

 Zero-point correction=                           0.401129 (Hartree/Particle)
 Thermal correction to Energy=                    0.418952
 Thermal correction to Enthalpy=                  0.419896
 Thermal correction to Gibbs Free Energy=         0.353854
 Sum of electronic and zero-point Energies=           -625.235498
 Sum of electronic and thermal Energies=              -625.217675
 Sum of electronic and thermal Enthalpies=            -625.216731
 Sum of electronic and thermal Free Energies=         -625.282772

                     E (Thermal)             CV                S
                      KCal/Mol        Cal/Mol-Kelvin    Cal/Mol-Kelvin
 Total                  262.896             66.944            138.996
 Electronic               0.000              0.000              0.000
 Translational            0.889              2.981             41.961
 Rotational               0.889              2.981             33.621
 Vibrational            261.119             60.982             63.414
 Vibration     1          0.593              1.985              6.340
 Vibration     2          0.594              1.983              5.669
 Vibration     3          0.594              1.980              5.168
 Vibration     4          0.597              1.973              4.418
 Vibration     5          0.601              1.957              3.695
 Vibration     6          0.606              1.944              3.327
 Vibration     7          0.609              1.933              3.100
 Vibration     8          0.617              1.906              2.711
 Vibration     9          0.622              1.889              2.528
 Vibration    10          0.623              1.886              2.501
 Vibration    11          0.629              1.869              2.343
 Vibration    12          0.636              1.847              2.178
 Vibration    13          0.652              1.795              1.880
 Vibration    14          0.673              1.731              1.605
 Vibration    15          0.688              1.686              1.453
 Vibration    16          0.694              1.669              1.403
 Vibration    17          0.701              1.648              1.345
 Vibration    18          0.722              1.588              1.196
 Vibration    19          0.732              1.560              1.134
 Vibration    20          0.754              1.501              1.017
 Vibration    21          0.790              1.407              0.862
 Vibration    22          0.804              1.372              0.811
 Vibration    23          0.838              1.292              0.707
 Vibration    24          0.859              1.242              0.649
 Vibration    25          0.876              1.204              0.608
 Vibration    26          0.920              1.108              0.515

 Optimization completed on the basis of negligible forces.
    -- Stationary point found.
 Normal termination of Gaussian 16 at Tue May 23 02:47:58 2023.
