 Gaussian 16, Revision A.03,
 Gaussian 16:  ES64L-G16RevA.03 25-Dec-2016

 -----------------------------
 # opt freq b3lyp/6-31g(2df,p)
 -----------------------------

 -------------------
 Title Card Required
 -------------------
 Symbolic Z-matrix:
 Charge =  0 Multiplicity = 1

 SCF Done:  E(RB3LYP) =  -582.840641300     A.U. after   12 cycles
 SCF Done:  E(RB3LYP) =  -582.860228600     A.U. after   11 cycles
 SCF Done:  E(RB3LYP) =  -582.854558998     A.U. after   12 cycles
 SCF Done:  E(RB3LYP) =  -582.872170286     A.U. after   10 cycles
 SCF Done:  E(RB3LYP) =  -582.871755924     A.U. after   10 cycles
 SCF Done:  E(RB3LYP) =  -582.874909191     A.U. after   10 cycles
 SCF Done:  E(RB3LYP) =  -582.876526855     A.U. after   10 cycles
 SCF Done:  E(RB3LYP) =  -582.876879279     A.U. after   10 cycles
 SCF Done:  E(RB3LYP) =  -582.877956992     A.U. after   11 cycles
 SCF Done:  E(RB3LYP) =  -582.877911639     A.U. after   10 cycles
 SCF Done:  E(RB3LYP) =  -582.879274556     A.U. after   10 cycles
 SCF Done:  E(RB3LYP) =  -582.879281666     A.U. after    7 cycles
 SCF Done:  E(RB3LYP) =  -582.879327726     A.U. after   10 cycles
 SCF Done:  E(RB3LYP) =  -582.879332208     A.U. after    9 cycles
 SCF Done:  E(RB3LYP) =  -582.879332543     A.U. after    7 cycles
 SCF Done:  E(RB3LYP) =  -582.879332335     A.U. after    6 cycles
 SCF Done:  E(RB3LYP) =  -582.879333111     A.U. after    7 cycles
 SCF Done:  E(RB3LYP) =  -582.879333132     A.U. after    6 cycles
 SCF Done:  E(RB3LYP) =  -582.879333170     A.U. after    5 cycles
 Optimization completed.
    -- Stationary point found.
 Normal termination of Gaussian 16 at Wed May 24 02:45:48 2023.

 ----------------------------------------------------------------------
 #N Geom=AllCheck Guess=TCheck SCRF=Check GenChk RB3LYP/6-31G(2df,p) Fr
 eq
 ----------------------------------------------------------------------

 Structure from the checkpoint file:  "CC1CCCCCqCrOCqCrqCrO1.chk"
 -------------------
 Title Card Required
 -------------------
 Charge =  0 Multiplicity = 1

                         Standard orientation:
 ---------------------------------------------------------------------
 Center     Atomic      Atomic             Coordinates (Angstroms)
 Number     Number       Type             X           Y           Z
 ---------------------------------------------------------------------
      1          6           0        2.578918    0.018601   -0.873270
      2          6           0        1.962991    0.136329    0.528087
      3          6           0        1.682256    1.608846    0.948857
      4          6           0        0.251949    2.116602    0.730408
      5          6           0       -0.240447    2.116186   -0.732467
      6          6           0       -1.673868    1.616771   -0.949614
      7          6           0       -1.962996    0.146477   -0.526923
      8          6           0       -2.576639    0.033263    0.875817
      9          8           0       -0.824981   -0.672611   -0.859590
     10          6           0       -0.004228   -1.451813   -0.000213
     11          6           0        0.743286   -2.369799   -0.987236
     12          6           0       -0.755547   -2.366940    0.986663
     13          8           0        0.819259   -0.675464    0.859197
     14          1           0        3.409620    0.729469   -0.927822
     15          1           0        1.886262    0.254032   -1.682038
     16          1           0        2.992746   -0.975299   -1.050507
     17          1           0        2.741413   -0.228286    1.212438
     18          1           0        2.403434    2.256913    0.435281
     19          1           0        1.902215    1.701429    2.019044
     20          1           0        0.180636    3.128934    1.145657
     21          1           0       -0.401938    1.499049    1.344835
     22          1           0        0.409366    1.492688   -1.345217
     23          1           0       -0.162676    3.126903   -1.150466
     24          1           0       -1.893679    1.709127   -2.019853
     25          1           0       -2.391061    2.269729   -0.436642
     26          1           0       -2.745028   -0.213798   -1.209459
     27          1           0       -1.880313    0.263248    1.682964
     28          1           0       -2.997301   -0.957663    1.053760
     29          1           0       -3.401985    0.750171    0.932465
     30          1           0        0.054815   -3.150972   -1.320592
     31          1           0        1.593668   -2.847950   -0.494892
     32          1           0        1.079815   -1.830898   -1.869643
     33          1           0       -1.608288   -2.840874    0.494297
     34          1           0       -1.089385   -1.827007    1.869447
     35          1           0       -0.070613   -3.151472    1.319432
 ---------------------------------------------------------------------

 SCF Done:  E(RB3LYP) =  -582.879333170     A.U. after    1 cycles

 The electronic state is 1-A.
 Alpha  occ. eigenvalues --  -19.12565 -19.12563 -10.28204 -10.22968 -10.22963
 Alpha  occ. eigenvalues --  -10.17125 -10.17120 -10.17043 -10.17041 -10.16610
 Alpha  occ. eigenvalues --  -10.16608 -10.16607 -10.16588  -1.03916  -0.98501
 Alpha  occ. eigenvalues --   -0.80900  -0.76979  -0.76214  -0.73161  -0.70698
 Alpha  occ. eigenvalues --   -0.67990  -0.65298  -0.61160  -0.60424  -0.55786
 Alpha  occ. eigenvalues --   -0.51738  -0.49279  -0.47744  -0.45865  -0.45003
 Alpha  occ. eigenvalues --   -0.44188  -0.43544  -0.42502  -0.40991  -0.39906
 Alpha  occ. eigenvalues --   -0.39829  -0.39262  -0.38684  -0.37840  -0.37397
 Alpha  occ. eigenvalues --   -0.36075  -0.35703  -0.35446  -0.35400  -0.32114
 Alpha  occ. eigenvalues --   -0.31906  -0.30657  -0.30511  -0.29395  -0.27076
 Alpha  occ. eigenvalues --   -0.25954  -0.23882
 Alpha virt. eigenvalues --    0.08041   0.09719   0.10063   0.11082   0.11676
 Alpha virt. eigenvalues --    0.11890   0.13157   0.14142   0.14547   0.15257
 Alpha virt. eigenvalues --    0.15635   0.16341   0.16607   0.16977   0.18045

 Mulliken charges:
               1
     1  C   -0.430925
     2  C    0.153313
     3  C   -0.213774
     4  C   -0.180648
     5  C   -0.180674
     6  C   -0.213765
     7  C    0.153359
     8  C   -0.430990
     9  O   -0.319793
    10  C    0.436721
    11  C   -0.409745
    12  C   -0.409684
    13  O   -0.319929
    14  H    0.113034
    15  H    0.142787
    16  H    0.119005
    17  H    0.079203
    18  H    0.088448
    19  H    0.092421
    20  H    0.083034
    21  H    0.111659
    22  H    0.111700
    23  H    0.083009
    24  H    0.092420
    25  H    0.088409
    26  H    0.079202
    27  H    0.142952
    28  H    0.118965
    29  H    0.112979
    30  H    0.114705
    31  H    0.114404
    32  H    0.124570
    33  H    0.114400
    34  H    0.124583
    35  H    0.114647
 Sum of Mulliken charges =  -0.00000

 Dipole moment (field-independent basis, Debye):
    X=              0.0034    Y=              0.0597    Z=              0.0012  Tot=              0.0598
 Quadrupole moment (field-independent basis, Debye-Ang):
   XX=            -78.2161   YY=            -80.7583   ZZ=            -84.3203
   XY=             -0.0103   XZ=             -0.9462   YZ=              0.0012

  Exact polarizability: 133.842  -0.002 131.176  -0.070  -0.002 109.793
 Approx polarizability: 180.038  -0.007 175.683   1.550  -0.000 169.631

                      1                      2                      3
                      A                      A                      A
 Frequencies --     12.2401                73.2597               100.9208
 Red. masses --      2.9951                 2.5477                 4.8513
 Frc consts  --      0.0003                 0.0081                 0.0291
 IR Inten    --      2.2117                 0.2300                 2.5845

                      4                      5                      6
                      A                      A                      A
 Frequencies --    170.2098               177.3843               228.3730
 Red. masses --      2.8145                 2.0265                 2.3876
 Frc consts  --      0.0480                 0.0376                 0.0734
 IR Inten    --      0.1433                 0.1101                 1.0960

                      7                      8                      9
                      A                      A                      A
 Frequencies --    231.0390               268.7092               276.8869
 Red. masses --      2.2254                 2.0685                 2.0030
 Frc consts  --      0.0700                 0.0880                 0.0905
 IR Inten    --      0.4346                 0.4115                 0.7976

                     10                     11                     12
                      A                      A                      A
 Frequencies --    294.7966               303.3062               315.4778
 Red. masses --      1.3093                 1.6084                 1.1934
 Frc consts  --      0.0670                 0.0872                 0.0700
 IR Inten    --      0.5208                 0.5379                 0.5572

                     13                     14                     15
                      A                      A                      A
 Frequencies --    318.3769               322.2553               357.7934
 Red. masses --      1.5314                 1.6762                 2.5478
 Frc consts  --      0.0915                 0.1026                 0.1922
 IR Inten    --      1.9474                 0.0758                 0.5196

                     16                     17                     18
                      A                      A                      A
 Frequencies --    380.2363               382.8043               406.9200
 Red. masses --      2.5647                 1.6635                 2.6020
 Frc consts  --      0.2185                 0.1436                 0.2538
 IR Inten    --      1.9320                 0.2707                 2.1399

                     19                     20                     21
                      A                      A                      A
 Frequencies --    433.3363               435.6985               551.4879
 Red. masses --      2.2633                 2.8623                 2.6457
 Frc consts  --      0.2504                 0.3201                 0.4741
 IR Inten    --      1.8099                 4.4182                 5.8493

                     22                     23                     24
                      A                      A                      A
 Frequencies --    561.3930               626.8566               630.3855
 Red. masses --      2.7307                 2.8232                 2.8068
 Frc consts  --      0.5071                 0.6536                 0.6572
 IR Inten    --      3.3485                 0.0844                 3.1784

                     25                     26                     27
                      A                      A                      A
 Frequencies --    689.6978               730.3929               738.3046
 Red. masses --      3.3667                 1.9926                 3.3061
 Frc consts  --      0.9436                 0.6263                 1.0618
 IR Inten    --      0.0568                 5.4029                10.0305

                     28                     29                     30
                      A                      A                      A
 Frequencies --    767.5520               825.3667               863.4566
 Red. masses --      2.1712                 2.4915                 2.3429
 Frc consts  --      0.7537                 1.0000                 1.0292
 IR Inten    --      3.0507                19.7229                 4.1774

                     31                     32                     33
                      A                      A                      A
 Frequencies --    866.3261               923.7730               926.8040
 Red. masses --      1.6430                 1.8603                 1.7158
 Frc consts  --      0.7265                 0.9353                 0.8683
 IR Inten    --     10.1465                 1.8513                45.0886

                     34                     35                     36
                      A                      A                      A
 Frequencies --    943.9091               956.1023              1002.8605
 Red. masses --      1.6863                 1.9976                 1.7115
 Frc consts  --      0.8852                 1.0759                 1.0142
 IR Inten    --     28.3603                15.2200                26.0985

                     37                     38                     39
                      A                      A                      A
 Frequencies --   1008.1961              1011.6927              1020.1174
 Red. masses --      2.1644                 2.1540                 1.4375
 Frc consts  --      1.2962                 1.2990                 0.8814
 IR Inten    --     22.8021                73.3169                 7.3315

                     40                     41                     42
                      A                      A                      A
 Frequencies --   1062.9690              1078.8453              1108.1819
 Red. masses --      2.1032                 1.6298                 2.5720
 Frc consts  --      1.4001                 1.1176                 1.8610
 IR Inten    --      5.8660                 4.7443                80.4778

                     43                     44                     45
                      A                      A                      A
 Frequencies --   1108.7999              1143.5685              1149.0241
 Red. masses --      1.6474                 2.3956                 2.1381
 Frc consts  --      1.1933                 1.8458                 1.6632
 IR Inten    --     12.7557                10.0561               178.5891

                     46                     47                     48
                      A                      A                      A
 Frequencies --   1167.9221              1179.8437              1197.3717
 Red. masses --      2.1282                 2.5107                 1.7174
 Frc consts  --      1.7104                 2.0592                 1.4507
 IR Inten    --      6.6527                49.2744                62.7797

                     49                     50                     51
                      A                      A                      A
 Frequencies --   1220.2356              1227.4600              1253.5392
 Red. masses --      2.0432                 2.0747                 1.6895
 Frc consts  --      1.7924                 1.8417                 1.5642
 IR Inten    --    116.7075                11.8988                23.8522

                     52                     53                     54
                      A                      A                      A
 Frequencies --   1293.7955              1307.6353              1348.1451
 Red. masses --      1.2036                 1.3135                 1.1417
 Frc consts  --      1.1870                 1.3233                 1.2226
 IR Inten    --      3.0080                 4.4103                 0.9459

                     55                     56                     57
                      A                      A                      A
 Frequencies --   1355.3916              1367.8899              1384.4682
 Red. masses --      1.3385                 1.3053                 1.2907
 Frc consts  --      1.4488                 1.4391                 1.4576
 IR Inten    --      0.8546                 3.5214                 3.6240

                     58                     59                     60
                      A                      A                      A
 Frequencies --   1388.2079              1392.4040              1399.6922
 Red. masses --      1.2676                 1.2755                 1.3665
 Frc consts  --      1.4393                 1.4570                 1.5774
 IR Inten    --      8.6884                 3.9139                 0.3231

                     61                     62                     63
                      A                      A                      A
 Frequencies --   1407.4248              1409.1721              1411.9180
 Red. masses --      1.2644                 1.2789                 1.2326
 Frc consts  --      1.4756                 1.4963                 1.4477
 IR Inten    --      6.2831                31.2463                13.4808

                     64                     65                     66
                      A                      A                      A
 Frequencies --   1412.4606              1416.4199              1474.5784
 Red. masses --      1.2957                 1.2269                 1.0547
 Frc consts  --      1.5231                 1.4502                 1.3512
 IR Inten    --      0.0539                 6.0694                 2.7738

                     67                     68                     69
                      A                      A                      A
 Frequencies --   1474.6775              1483.4890              1485.0788
 Red. masses --      1.0537                 1.0591                 1.0797
 Frc consts  --      1.3501                 1.3733                 1.4030
 IR Inten    --      1.8776                 1.9271                 5.8119

                     70                     71                     72
                      A                      A                      A
 Frequencies --   1486.8353              1490.8512              1492.8396
 Red. masses --      1.0797                 1.0601                 1.0923
 Frc consts  --      1.4063                 1.3883                 1.4342
 IR Inten    --      0.0186                 7.1680                 0.8821

                     73                     74                     75
                      A                      A                      A
 Frequencies --   1497.5757              1505.8868              1507.4234
 Red. masses --      1.0513                 1.0686                 1.0538
 Frc consts  --      1.3891                 1.4278                 1.4108
 IR Inten    --      1.4765                10.3127                 0.0782

                     76                     77                     78
                      A                      A                      A
 Frequencies --   1523.3881              1529.8480              2990.3824
 Red. masses --      1.0472                 1.0495                 1.0835
 Frc consts  --      1.4318                 1.4472                 5.7088
 IR Inten    --      0.1282                 1.6950                56.5486

                     79                     80                     81
                      A                      A                      A
 Frequencies --   2990.8003              3020.5120              3022.4848
 Red. masses --      1.0835                 1.0655                 1.0622
 Frc consts  --      5.7102                 5.7273                 5.7175
 IR Inten    --      6.5582                57.4989                 2.3664

                     82                     83                     84
                      A                      A                      A
 Frequencies --   3032.5778              3045.4359              3051.9586
 Red. masses --      1.0720                 1.0692                 1.0516
 Frc consts  --      5.8084                 5.8426                 5.7710
 IR Inten    --     46.4510                56.7677                18.4582

                     85                     86                     87
                      A                      A                      A
 Frequencies --   3053.0887              3054.6688              3058.1766
 Red. masses --      1.0544                 1.0427                 1.0856
 Frc consts  --      5.7906                 5.7325                 5.9818
 IR Inten    --     22.2481                 5.2207                79.0741

                     88                     89                     90
                      A                      A                      A
 Frequencies --   3058.8114              3060.7418              3116.0948
 Red. masses --      1.0830                 1.0448                 1.0989
 Frc consts  --      5.9703                 5.7666                 6.2869
 IR Inten    --      4.2869                10.8195                39.7534

                     91                     92                     93
                      A                      A                      A
 Frequencies --   3116.8061              3120.6159              3125.0719
 Red. masses --      1.0975                 1.0990                 1.0997
 Frc consts  --      6.2814                 6.3055                 6.3276
 IR Inten    --     35.3219                 1.2938                14.6560

                     94                     95                     96
                      A                      A                      A
 Frequencies --   3135.1325              3136.9365              3152.2565
 Red. masses --      1.0889                 1.0938                 1.0957
 Frc consts  --      6.3061                 6.3418                 6.4150
 IR Inten    --     46.8042                36.4040                24.8338

                     97                     98                     99
                      A                      A                      A
 Frequencies --   3152.5018              3176.8768              3177.1657
 Red. masses --      1.0964                 1.0981                 1.0979
 Frc consts  --      6.4200                 6.5294                 6.5296
 IR Inten    --      1.3929                19.9504                10.8647

 - Thermochemistry -
 -------------------
 Temperature   298.150 Kelvin.  Pressure   1.00000 Atm.
 Atom     1 has atomic number  6 and mass  12.00000

 Molecular mass:   186.16198 amu.
 Principal axes and moments of inertia in atomic units:
                           1         2         3
     Eigenvalues --  2058.354992113.195183137.16505
           X            0.99956  -0.00075  -0.02980
           Y            0.00076   1.00000   0.00007
           Z            0.02980  -0.00010   0.99956
 This molecule is an asymmetric top.
 Rotational symmetry number  1.
 Warning -- assumption of classical behavior for rotation
           may cause significant error
 Rotational temperatures (Kelvin)      0.04208     0.04099     0.02761
 Rotational constants (GHZ):           0.87679     0.85403     0.57528
 Zero-point vibrational energy     838157.9 (Joules/Mol)
                                  200.32454 (Kcal/Mol)
 Warning -- explicit consideration of  22 degrees of freedom as
           vibrations may cause significant error
 Vibrational temperatures:     17.61   105.40   145.20   244.89   255.22
          (Kelvin)            328.58   332.41   386.61   398.38   424.15
                              436.39   453.90   458.07   463.65   514.78
                              547.08   550.77   585.47   623.47   626.87
                              793.47   807.72   901.91   906.98   992.32
                             1050.87  1062.26  1104.34  1187.52  1242.32
                             1246.45  1329.10  1333.46  1358.07  1375.62
                             1442.89  1450.57  1455.60  1467.72  1529.38
                             1552.22  1594.43  1595.32  1645.34  1653.19
                             1680.38  1697.53  1722.75  1755.65  1766.04
                             1803.56  1861.48  1881.40  1939.68  1950.11
                             1968.09  1991.94  1997.32  2003.36  2013.84
                             2024.97  2027.48  2031.44  2032.22  2037.91
                             2121.59  2121.73  2134.41  2136.70  2139.22
                             2145.00  2147.86  2154.68  2166.64  2168.85
                             2191.82  2201.11  4302.49  4303.09  4345.84
                             4348.68  4363.20  4381.70  4391.09  4392.71
                             4394.99  4400.03  4400.95  4403.72  4483.37
                             4484.39  4489.87  4496.28  4510.76  4513.35
                             4535.39  4535.75  4570.82  4571.23

 Zero-point correction=                           0.319237 (Hartree/Particle)
 Thermal correction to Energy=                    0.333563
 Thermal correction to Enthalpy=                  0.334507
 Thermal correction to Gibbs Free Energy=         0.278758
 Sum of electronic and zero-point Energies=           -582.560096
 Sum of electronic and thermal Energies=              -582.545771
 Sum of electronic and thermal Enthalpies=            -582.544826
 Sum of electronic and thermal Free Energies=         -582.600576

                     E (Thermal)             CV                S
                      KCal/Mol        Cal/Mol-Kelvin    Cal/Mol-Kelvin
 Total                  209.314             57.364            117.334
 Electronic               0.000              0.000              0.000
 Translational            0.889              2.981             41.570
 Rotational               0.889              2.981             30.990
 Vibrational            207.536             51.402             44.773
 Vibration     1          0.593              1.987              7.609
 Vibration     2          0.599              1.967              4.064
 Vibration     3          0.604              1.948              3.436
 Vibration     4          0.625              1.879              2.433
 Vibration     5          0.628              1.870              2.356
 Vibration     6          0.651              1.798              1.892
 Vibration     7          0.653              1.794              1.871
 Vibration     8          0.673              1.731              1.604
 Vibration     9          0.678              1.716              1.553
 Vibration    10          0.689              1.683              1.446
 Vibration    11          0.695              1.667              1.399
 Vibration    12          0.703              1.644              1.333
 Vibration    13          0.705              1.638              1.318
 Vibration    14          0.707              1.631              1.299
 Vibration    15          0.733              1.559              1.132
 Vibration    16          0.750              1.512              1.038
 Vibration    17          0.752              1.507              1.028
 Vibration    18          0.772              1.455              0.938
 Vibration    19          0.794              1.398              0.848
 Vibration    20          0.796              1.392              0.840
 Vibration    21          0.907              1.136              0.541
 Vibration    22          0.917              1.115              0.521

                           ! Non-Optimized Parameters !
 Normal termination of Gaussian 16 at Wed May 24 05:13:13 2023.
