 Gaussian 16, Revision A.03,
 Gaussian 16:  ES64L-G16RevA.03 25-Dec-2016

 -----------------------------
 # opt freq b3lyp/6-31g(2df,p)
 -----------------------------

 -------------------
 Title Card Required
 -------------------
 Symbolic Z-matrix:
 Charge =  0 Multiplicity = 1

 SCF Done:  E(RB3LYP) =  -391.861879510     A.U. after   11 cycles
 SCF Done:  E(RB3LYP) =  -391.875050158     A.U. after   10 cycles
 SCF Done:  E(RB3LYP) =  -391.877942059     A.U. after   10 cycles
 SCF Done:  E(RB3LYP) =  -391.879600493     A.U. after   10 cycles
 SCF Done:  E(RB3LYP) =  -391.881942311     A.U. after   12 cycles
 SCF Done:  E(RB3LYP) =  -391.882983226     A.U. after   10 cycles
 SCF Done:  E(RB3LYP) =  -391.883500336     A.U. after    9 cycles
 SCF Done:  E(RB3LYP) =  -391.883988585     A.U. after   10 cycles
 SCF Done:  E(RB3LYP) =  -391.883978179     A.U. after    9 cycles
 SCF Done:  E(RB3LYP) =  -391.884012393     A.U. after    8 cycles
 SCF Done:  E(RB3LYP) =  -391.884013816     A.U. after    7 cycles
 Optimization completed.
    -- Stationary point found.
 Normal termination of Gaussian 16 at Sun May 28 22:20:25 2023.

 ----------------------------------------------------------------------
 #N Geom=AllCheck Guess=TCheck SCRF=Check GenChk RB3LYP/6-31G(2df,p) Fr
 eq
 ----------------------------------------------------------------------

 Structure from the checkpoint file:  "CC1CC1CCCC1CC1.chk"
 -------------------
 Title Card Required
 -------------------
 Charge =  0 Multiplicity = 1

                         Standard orientation:
 ---------------------------------------------------------------------
 Center     Atomic      Atomic             Coordinates (Angstroms)
 Number     Number       Type             X           Y           Z
 ---------------------------------------------------------------------
      1          6           0       -3.557238    1.636807   -0.183932
      2          6           0       -2.819035    0.481571    0.454129
      3          6           0       -3.366370   -0.923705    0.364493
      4          6           0       -2.110195   -0.551547   -0.387139
      5          6           0       -0.763321   -1.105121    0.028349
      6          6           0        0.416209   -0.234492   -0.424030
      7          6           0        1.782355   -0.799366   -0.014197
      8          6           0        2.945675    0.056520   -0.469609
      9          6           0        3.401151    1.232025    0.359499
     10          6           0        4.270471    0.002524    0.246364
     11          1           0       -4.349951    2.016784    0.470710
     12          1           0       -4.026744    1.329717   -1.124896
     13          1           0       -2.881668    2.470200   -0.408250
     14          1           0       -2.327010    0.726937    1.393297
     15          1           0       -4.278398   -1.078726   -0.203479
     16          1           0       -3.268478   -1.572009    1.229648
     17          1           0       -2.229252   -0.431973   -1.462895
     18          1           0       -0.641834   -2.120385   -0.375207
     19          1           0       -0.739647   -1.211424    1.121828
     20          1           0        0.302102    0.776837   -0.013345
     21          1           0        0.384434   -0.122409   -1.516807
     22          1           0        1.892183   -1.815044   -0.419725
     23          1           0        1.820324   -0.905001    1.079075
     24          1           0        2.999793    0.195623   -1.547281
     25          1           0        2.897325    1.408750    1.304727
     26          1           0        3.718742    2.136755   -0.147183
     27          1           0        4.348875   -0.642823    1.115576
     28          1           0        5.180990    0.066898   -0.339352
 ---------------------------------------------------------------------

 SCF Done:  E(RB3LYP) =  -391.884013816     A.U. after    1 cycles

 The electronic state is 1-A.
 Alpha  occ. eigenvalues --  -10.18319 -10.18256 -10.17997 -10.17738 -10.17698
 Alpha  occ. eigenvalues --  -10.17570 -10.17511 -10.17362 -10.17219 -10.17166
 Alpha  occ. eigenvalues --   -0.85552  -0.84990  -0.77487  -0.71186  -0.68403
 Alpha  occ. eigenvalues --   -0.60225  -0.59037  -0.57195  -0.55877  -0.55279
 Alpha  occ. eigenvalues --   -0.48661  -0.46772  -0.46169  -0.44505  -0.43603
 Alpha  occ. eigenvalues --   -0.40252  -0.39840  -0.38161  -0.36792  -0.36571
 Alpha  occ. eigenvalues --   -0.35659  -0.34569  -0.33424  -0.32862  -0.32262
 Alpha  occ. eigenvalues --   -0.28389  -0.27576  -0.26527  -0.26055
 Alpha virt. eigenvalues --    0.09466   0.09901   0.10710   0.11446   0.11592
 Alpha virt. eigenvalues --    0.12711   0.13630   0.14590   0.15504   0.15719
 Alpha virt. eigenvalues --    0.15896   0.16611   0.17347   0.17730   0.18470

 Mulliken charges:
               1
     1  C   -0.405743
     2  C    0.027392
     3  C   -0.308215
     4  C    0.012666
     5  C   -0.213545
     6  C   -0.161675
     7  C   -0.206254
     8  C    0.037034
     9  C   -0.253812
    10  C   -0.277187
    11  H    0.113859
    12  H    0.111524
    13  H    0.114464
    14  H    0.075977
    15  H    0.103542
    16  H    0.103684
    17  H    0.073780
    18  H    0.091389
    19  H    0.087090
    20  H    0.098300
    21  H    0.088784
    22  H    0.092451
    23  H    0.087210
    24  H    0.077500
    25  H    0.106745
    26  H    0.107757
    27  H    0.107438
    28  H    0.107846
 Sum of Mulliken charges =  -0.00000

 Dipole moment (field-independent basis, Debye):
    X=              0.0088    Y=              0.0590    Z=             -0.1191  Tot=              0.1332
 Quadrupole moment (field-independent basis, Debye-Ang):
   XX=            -65.8440   YY=            -65.0790   ZZ=            -62.8144
   XY=             -0.1731   XZ=             -0.3474   YZ=             -0.4312

  Exact polarizability: 126.152  -0.341 100.300  -0.330  -0.595  89.521
 Approx polarizability: 146.462  -0.070 144.742  -0.624   1.578 140.599

                      1                      2                      3
                      A                      A                      A
 Frequencies --     41.9578                45.7211                77.2755
 Red. masses --      2.9376                 2.6365                 2.7739
 Frc consts  --      0.0030                 0.0032                 0.0098
 IR Inten    --      0.0090                 0.0092                 0.0119

                      4                      5                      6
                      A                      A                      A
 Frequencies --    112.5464               138.1410               172.0853
 Red. masses --      2.6560                 1.8367                 2.6776
 Frc consts  --      0.0198                 0.0207                 0.0467
 IR Inten    --      0.0295                 0.0027                 0.1441

                      7                      8                      9
                      A                      A                      A
 Frequencies --    214.4057               256.8648               282.8707
 Red. masses --      1.0821                 3.2220                 2.3456
 Frc consts  --      0.0293                 0.1253                 0.1106
 IR Inten    --      0.0066                 0.0885                 0.0863

                     10                     11                     12
                      A                      A                      A
 Frequencies --    311.8480               376.0220               405.2956
 Red. masses --      2.5764                 2.0937                 2.3096
 Frc consts  --      0.1476                 0.1744                 0.2235
 IR Inten    --      0.1976                 0.1186                 0.3092

                     13                     14                     15
                      A                      A                      A
 Frequencies --    452.0965               487.8002               740.2477
 Red. masses --      2.3692                 2.6763                 1.1303
 Frc consts  --      0.2853                 0.3752                 0.3649
 IR Inten    --      0.2956                 1.1602                 2.2153

                     16                     17                     18
                      A                      A                      A
 Frequencies --    771.8010               778.7802               799.7653
 Red. masses --      1.5384                 1.3306                 1.9073
 Frc consts  --      0.5399                 0.4755                 0.7188
 IR Inten    --      1.4949                 1.1352                 2.8476

                     19                     20                     21
                      A                      A                      A
 Frequencies --    820.8285               836.7022               850.6214
 Red. masses --      1.3875                 1.8507                 1.3672
 Frc consts  --      0.5508                 0.7634                 0.5829
 IR Inten    --      5.3423                 6.5907                 1.5014

                     22                     23                     24
                      A                      A                      A
 Frequencies --    877.9224               900.1774               925.3327
 Red. masses --      1.5548                 1.5342                 2.8117
 Frc consts  --      0.7061                 0.7324                 1.4185
 IR Inten    --      1.6589                 7.7960                 3.4056

                     25                     26                     27
                      A                      A                      A
 Frequencies --    962.2007               993.3640              1010.0951
 Red. masses --      1.9230                 1.7223                 1.9768
 Frc consts  --      1.0490                 1.0013                 1.1883
 IR Inten    --      7.8130                 1.8108                 3.5907

                     28                     29                     30
                      A                      A                      A
 Frequencies --   1045.6699              1053.5299              1056.7468
 Red. masses --      1.5665                 1.3051                 1.7588
 Frc consts  --      1.0092                 0.8534                 1.1572
 IR Inten    --      6.2947                 2.3378                 3.4254

                     31                     32                     33
                      A                      A                      A
 Frequencies --   1073.4759              1076.3246              1089.2818
 Red. masses --      1.8810                 1.4406                 2.1066
 Frc consts  --      1.2771                 0.9833                 1.4727
 IR Inten    --      0.4996                 1.0581                 0.5151

                     34                     35                     36
                      A                      A                      A
 Frequencies --   1103.9795              1113.6853              1137.1249
 Red. masses --      1.8846                 1.2727                 1.4818
 Frc consts  --      1.3533                 0.9301                 1.1289
 IR Inten    --      0.7898                 2.9517                 1.5596

                     37                     38                     39
                      A                      A                      A
 Frequencies --   1140.8318              1198.3298              1198.8685
 Red. masses --      1.1268                 1.4329                 1.6680
 Frc consts  --      0.8641                 1.2123                 1.4125
 IR Inten    --      0.1610                 0.1936                 0.8119

                     40                     41                     42
                      A                      A                      A
 Frequencies --   1205.2089              1223.4719              1231.5121
 Red. masses --      1.9282                 1.6001                 1.7642
 Frc consts  --      1.6501                 1.4112                 1.5764
 IR Inten    --      0.0148                 0.1645                 0.5010

                     43                     44                     45
                      A                      A                      A
 Frequencies --   1243.4161              1264.0348              1302.6678
 Red. masses --      1.6606                 1.2987                 1.2951
 Frc consts  --      1.5126                 1.2226                 1.2948
 IR Inten    --      1.4135                 9.2078                 0.1719

                     46                     47                     48
                      A                      A                      A
 Frequencies --   1328.9190              1340.1016              1359.9530
 Red. masses --      1.0823                 1.2636                 1.3629
 Frc consts  --      1.1261                 1.3370                 1.4851
 IR Inten    --      0.2082                 7.7244                 2.8017

                     49                     50                     51
                      A                      A                      A
 Frequencies --   1390.5716              1415.1480              1418.4545
 Red. masses --      1.5079                 1.2465                 1.6483
 Frc consts  --      1.7179                 1.4708                 1.9539
 IR Inten    --      3.9070                 1.8252                 0.4228

                     52                     53                     54
                      A                      A                      A
 Frequencies --   1441.4704              1468.9497              1480.4962
 Red. masses --      1.5916                 1.0881                 1.0785
 Frc consts  --      1.9485                 1.3833                 1.3929
 IR Inten    --      0.3094                 0.7630                 1.3616

                     55                     56                     57
                      A                      A                      A
 Frequencies --   1484.1202              1492.6758              1495.4509
 Red. masses --      1.1020                 1.0498                 1.2148
 Frc consts  --      1.4302                 1.3781                 1.6006
 IR Inten    --      0.3689                 1.6600                 4.0737

                     58                     59                     60
                      A                      A                      A
 Frequencies --   1504.1670              1506.4545              1508.6780
 Red. masses --      1.1781                 1.2723                 1.2801
 Frc consts  --      1.5705                 1.7011                 1.7167
 IR Inten    --      1.0173                 2.0341                 4.0871

                     61                     62                     63
                      A                      A                      A
 Frequencies --   2998.5732              3001.2777              3012.4757
 Red. masses --      1.0588                 1.0582                 1.0661
 Frc consts  --      5.6093                 5.6162                 5.7000
 IR Inten    --      0.8762                23.0715                59.9566

                     64                     65                     66
                      A                      A                      A
 Frequencies --   3021.7759              3026.9961              3032.2159
 Red. masses --      1.0352                 1.0923                 1.1020
 Frc consts  --      5.5692                 5.8968                 5.9699
 IR Inten    --     37.3350                16.0700                 1.0289

                     67                     68                     69
                      A                      A                      A
 Frequencies --   3061.3152              3083.0785              3088.4104
 Red. masses --      1.1038                 1.1012                 1.0989
 Frc consts  --      6.0946                 6.1669                 6.1757
 IR Inten    --     65.7909                30.4650                15.0237

                     70                     71                     72
                      A                      A                      A
 Frequencies --   3115.1672              3122.2635              3125.2140
 Red. masses --      1.0829                 1.0598                 1.0509
 Frc consts  --      6.1916                 6.0871                 6.0472
 IR Inten    --     13.4193                18.6521                23.0060

                     73                     74                     75
                      A                      A                      A
 Frequencies --   3125.8764              3126.3082              3131.3828
 Red. masses --      1.0803                 1.0870                 1.0666
 Frc consts  --      6.2192                 6.2593                 6.1622
 IR Inten    --     11.1192                53.3591                 6.0661

                     76                     77                     78
                      A                      A                      A
 Frequencies --   3202.5326              3204.6345              3217.9256
 Red. masses --      1.1174                 1.1159                 1.1151
 Frc consts  --      6.7521                 6.7520                 6.8035
 IR Inten    --      0.2951                15.8081                26.6216

 - Thermochemistry -
 -------------------
 Temperature   298.150 Kelvin.  Pressure   1.00000 Atm.
 Atom     1 has atomic number  6 and mass  12.00000

 Molecular mass:   138.14085 amu.
 Principal axes and moments of inertia in atomic units:
                           1         2         3
     Eigenvalues --   555.624674092.792744425.02674
           X            0.99999  -0.00467   0.00210
           Y            0.00471   0.99981  -0.01870
           Z           -0.00201   0.01871   0.99982
 This molecule is an asymmetric top.
 Rotational symmetry number  1.
 Warning -- assumption of classical behavior for rotation
           may cause significant error
 Rotational temperatures (Kelvin)      0.15589     0.02116     0.01957
 Rotational constants (GHZ):           3.24813     0.44096     0.40785
 Zero-point vibrational energy     674298.8 (Joules/Mol)
                                  161.16129 (Kcal/Mol)
 Warning -- explicit consideration of  14 degrees of freedom as
           vibrations may cause significant error
 Vibrational temperatures:     60.37    65.78   111.18   161.93   198.75
          (Kelvin)            247.59   308.48   369.57   406.99   448.68
                              541.01   583.13   650.47   701.84  1065.05
                             1110.45  1120.49  1150.68  1180.99  1203.83
                             1223.85  1263.13  1295.15  1331.35  1384.39
                             1429.23  1453.30  1504.49  1515.79  1520.42
                             1544.49  1548.59  1567.23  1588.38  1602.34
                             1636.07  1641.40  1724.13  1724.90  1734.03
                             1760.30  1771.87  1789.00  1818.66  1874.25
                             1912.02  1928.11  1956.67  2000.72  2036.08
                             2040.84  2073.95  2113.49  2130.10  2135.32
                             2147.63  2151.62  2164.16  2167.45  2170.65
                             4314.28  4318.17  4334.28  4347.66  4355.17
                             4362.68  4404.55  4435.86  4443.53  4482.03
                             4492.24  4496.49  4497.44  4498.06  4505.36
                             4607.73  4610.75  4629.88

 Zero-point correction=                           0.256827 (Hartree/Particle)
 Thermal correction to Energy=                    0.268419
 Thermal correction to Enthalpy=                  0.269364
 Thermal correction to Gibbs Free Energy=         0.218359
 Sum of electronic and zero-point Energies=           -391.627187
 Sum of electronic and thermal Energies=              -391.615594
 Sum of electronic and thermal Enthalpies=            -391.614650
 Sum of electronic and thermal Free Energies=         -391.665655

                     E (Thermal)             CV                S
                      KCal/Mol        Cal/Mol-Kelvin    Cal/Mol-Kelvin
 Total                  168.436             43.185            107.349
 Electronic               0.000              0.000              0.000
 Translational            0.889              2.981             40.681
 Rotational               0.889              2.981             30.688
 Vibrational            166.658             37.224             35.980
 Vibration     1          0.595              1.980              5.164
 Vibration     2          0.595              1.979              4.994
 Vibration     3          0.599              1.964              3.959
 Vibration     4          0.607              1.939              3.225
 Vibration     5          0.614              1.915              2.829
 Vibration     6          0.626              1.877              2.413
 Vibration     7          0.644              1.819              2.006
 Vibration     8          0.666              1.751              1.683
 Vibration     9          0.682              1.705              1.516
 Vibration    10          0.700              1.651              1.353
 Vibration    11          0.747              1.521              1.055
 Vibration    12          0.770              1.459              0.943
 Vibration    13          0.811              1.356              0.789
 Vibration    14          0.844              1.277              0.689

                           ! Non-Optimized Parameters !
 Normal termination of Gaussian 16 at Sun May 28 23:04:00 2023.
