 Gaussian 16, Revision A.03,
 Gaussian 16:  ES64L-G16RevA.03 25-Dec-2016

 -----------------------------
 # opt freq b3lyp/6-31g(2df,p)
 -----------------------------

 -------------------
 Title Card Required
 -------------------
 Symbolic Z-matrix:
 Charge =  0 Multiplicity = 1

 SCF Done:  E(RB3LYP) =  -353.834126229     A.U. after   12 cycles
 SCF Done:  E(RB3LYP) =  -353.836505949     A.U. after   10 cycles
 SCF Done:  E(RB3LYP) =  -353.836757361     A.U. after    9 cycles
 SCF Done:  E(RB3LYP) =  -353.836810049     A.U. after    8 cycles
 SCF Done:  E(RB3LYP) =  -353.836821222     A.U. after    7 cycles
 SCF Done:  E(RB3LYP) =  -353.836831008     A.U. after    8 cycles
 SCF Done:  E(RB3LYP) =  -353.836833629     A.U. after    7 cycles
 SCF Done:  E(RB3LYP) =  -353.836833905     A.U. after    6 cycles
 Optimization completed.
    -- Stationary point found.
 Normal termination of Gaussian 16 at Sun May 28 20:30:35 2023.

 ----------------------------------------------------------------------
 #N Geom=AllCheck Guess=TCheck SCRF=Check GenChk RB3LYP/6-31G(2df,p) Fr
 eq
 ----------------------------------------------------------------------

 Structure from the checkpoint file:  "CC1CCCCCC1C.chk"
 -------------------
 Title Card Required
 -------------------
 Charge =  0 Multiplicity = 1

                         Standard orientation:
 ---------------------------------------------------------------------
 Center     Atomic      Atomic             Coordinates (Angstroms)
 Number     Number       Type             X           Y           Z
 ---------------------------------------------------------------------
      1          6           0       -2.278328   -1.310943   -0.181343
      2          6           0       -0.964300   -0.681865    0.314250
      3          6           0        0.179974   -1.668729   -0.000614
      4          6           0        1.621491   -1.283255    0.369824
      5          6           0        2.214851   -0.176609   -0.516019
      6          6           0        1.840609    1.261990   -0.111048
      7          6           0        0.439959    1.453907    0.494636
      8          6           0       -0.738517    0.756770   -0.228528
      9          6           0       -1.998752    1.629680   -0.097399
     10          1           0       -2.360042   -2.348176    0.160391
     11          1           0       -2.320667   -1.323537   -1.277516
     12          1           0       -3.159929   -0.777496    0.181272
     13          1           0       -1.034985   -0.592461    1.409668
     14          1           0        0.156953   -1.891589   -1.078069
     15          1           0       -0.063629   -2.614746    0.499647
     16          1           0        2.237331   -2.184155    0.260845
     17          1           0        1.686355   -1.005060    1.430269
     18          1           0        1.897122   -0.365322   -1.549601
     19          1           0        3.307903   -0.258357   -0.526172
     20          1           0        1.946169    1.910941   -0.989531
     21          1           0        2.570503    1.632636    0.619727
     22          1           0        0.247640    2.532538    0.535080
     23          1           0        0.444611    1.124095    1.541546
     24          1           0       -0.502186    0.682317   -1.300971
     25          1           0       -2.314730    1.710310    0.950336
     26          1           0       -2.842079    1.238514   -0.671511
     27          1           0       -1.798261    2.643862   -0.457967
 ---------------------------------------------------------------------

 SCF Done:  E(RB3LYP) =  -353.836833905     A.U. after    1 cycles

 The electronic state is 1-A.
 Alpha  occ. eigenvalues --  -10.17856 -10.17837 -10.17177 -10.17136 -10.17055
 Alpha  occ. eigenvalues --  -10.17051 -10.16884 -10.16578 -10.16548  -0.82468
 Alpha  occ. eigenvalues --   -0.77181  -0.76008  -0.69950  -0.67336  -0.61423
 Alpha  occ. eigenvalues --   -0.60934  -0.54789  -0.53782  -0.46038  -0.44745
 Alpha  occ. eigenvalues --   -0.44486  -0.43811  -0.40963  -0.39574  -0.38875
 Alpha  occ. eigenvalues --   -0.38049  -0.37002  -0.36648  -0.35079  -0.34446
 Alpha  occ. eigenvalues --   -0.31696  -0.30678  -0.30446  -0.29917  -0.29553
 Alpha  occ. eigenvalues --   -0.29163
 Alpha virt. eigenvalues --    0.08220   0.09830   0.10233   0.11645   0.13702
 Alpha virt. eigenvalues --    0.14289   0.15536   0.15725   0.16116   0.16652
 Alpha virt. eigenvalues --    0.17260   0.17903   0.18054   0.18884   0.20011

 Mulliken charges:
               1
     1  C   -0.406674
     2  C    0.045716
     3  C   -0.175478
     4  C   -0.209333
     5  C   -0.179272
     6  C   -0.197445
     7  C   -0.191982
     8  C    0.051368
     9  C   -0.409644
    10  H    0.106093
    11  H    0.109747
    12  H    0.112630
    13  H    0.064044
    14  H    0.087295
    15  H    0.086134
    16  H    0.088738
    17  H    0.089975
    18  H    0.091359
    19  H    0.087564
    20  H    0.091388
    21  H    0.091266
    22  H    0.083832
    23  H    0.090992
    24  H    0.062554
    25  H    0.109620
    26  H    0.112475
    27  H    0.107040
 Sum of Mulliken charges =  -0.00000

 Dipole moment (field-independent basis, Debye):
    X=              0.0919    Y=             -0.0274    Z=              0.0225  Tot=              0.0985
 Quadrupole moment (field-independent basis, Debye-Ang):
   XX=            -60.4303   YY=            -59.9798   ZZ=            -59.1920
   XY=             -0.0644   XZ=              0.0138   YZ=             -0.2435

  Exact polarizability: 105.275   0.288  99.126   0.186  -0.065  81.587
 Approx polarizability: 133.080   0.471 133.591   0.328  -0.121 133.132

                      1                      2                      3
                      A                      A                      A
 Frequencies --     83.9614               118.4933               174.3664
 Red. masses --      2.4956                 2.1874                 1.8881
 Frc consts  --      0.0104                 0.0181                 0.0338
 IR Inten    --      0.0098                 0.0080                 0.0299

                      4                      5                      6
                      A                      A                      A
 Frequencies --    224.1290               233.8574               280.7973
 Red. masses --      1.0708                 1.3441                 2.2480
 Frc consts  --      0.0317                 0.0433                 0.1044
 IR Inten    --      0.0289                 0.0116                 0.0405

                      7                      8                      9
                      A                      A                      A
 Frequencies --    319.8272               340.5650               352.8654
 Red. masses --      2.1910                 2.1364                 2.7706
 Frc consts  --      0.1320                 0.1460                 0.2033
 IR Inten    --      0.0530                 0.0179                 0.0648

                     10                     11                     12
                      A                      A                      A
 Frequencies --    387.9542               400.3444               473.8334
 Red. masses --      2.0287                 1.9874                 2.2809
 Frc consts  --      0.1799                 0.1877                 0.3017
 IR Inten    --      0.0288                 0.0707                 0.0401

                     13                     14                     15
                      A                      A                      A
 Frequencies --    509.4825               547.9519               738.2335
 Red. masses --      1.9600                 2.4403                 1.8578
 Frc consts  --      0.2998                 0.4317                 0.5965
 IR Inten    --      0.2350                 0.0506                 0.2271

                     16                     17                     18
                      A                      A                      A
 Frequencies --    756.2937               813.3812               831.8146
 Red. masses --      1.4258                 2.1501                 2.3764
 Frc consts  --      0.4805                 0.8381                 0.9688
 IR Inten    --      1.5890                 0.4817                 0.1297

                     19                     20                     21
                      A                      A                      A
 Frequencies --    873.7048               931.8298               935.0650
 Red. masses --      1.6791                 1.8139                 1.5150
 Frc consts  --      0.7552                 0.9280                 0.7804
 IR Inten    --      1.4741                 0.9374                 0.9718

                     22                     23                     24
                      A                      A                      A
 Frequencies --    961.3504               970.2643               993.0162
 Red. masses --      1.4366                 1.9496                 1.7612
 Frc consts  --      0.7823                 1.0814                 1.0232
 IR Inten    --      1.7931                 0.7624                 2.1638

                     25                     26                     27
                      A                      A                      A
 Frequencies --   1036.0749              1043.5907              1073.1446
 Red. masses --      2.0905                 1.5661                 1.9871
 Frc consts  --      1.3221                 1.0049                 1.3483
 IR Inten    --      0.9175                 1.6360                 0.0840

                     28                     29                     30
                      A                      A                      A
 Frequencies --   1080.6594              1089.2238              1130.9695
 Red. masses --      1.5363                 2.2558                 1.9751
 Frc consts  --      1.0570                 1.5768                 1.4885
 IR Inten    --      0.5476                 0.5355                 0.7107

                     31                     32                     33
                      A                      A                      A
 Frequencies --   1159.4749              1173.2594              1216.9454
 Red. masses --      1.9642                 2.0582                 1.4622
 Frc consts  --      1.5558                 1.6693                 1.2759
 IR Inten    --      0.4961                 0.2057                 0.4843

                     34                     35                     36
                      A                      A                      A
 Frequencies --   1226.0565              1252.3842              1292.4929
 Red. masses --      1.4992                 1.3330                 1.2183
 Frc consts  --      1.3278                 1.2319                 1.1992
 IR Inten    --      0.6047                 2.3224                 1.2204

                     37                     38                     39
                      A                      A                      A
 Frequencies --   1304.4852              1318.5315              1334.0206
 Red. masses --      1.1835                 1.2559                 1.2340
 Frc consts  --      1.1866                 1.2864                 1.2939
 IR Inten    --      2.7842                 3.5493                 0.6678

                     40                     41                     42
                      A                      A                      A
 Frequencies --   1346.5319              1370.6359              1379.1846
 Red. masses --      1.2620                 1.3528                 1.3689
 Frc consts  --      1.3481                 1.4973                 1.5341
 IR Inten    --      2.2872                 1.3181                 1.5540

                     43                     44                     45
                      A                      A                      A
 Frequencies --   1382.1936              1387.1183              1398.0338
 Red. masses --      1.3970                 1.4328                 1.3734
 Frc consts  --      1.5725                 1.6243                 1.5816
 IR Inten    --      0.4757                 0.7283                 2.7483

                     46                     47                     48
                      A                      A                      A
 Frequencies --   1401.3247              1409.5058              1417.8341
 Red. masses --      1.3836                 1.2797                 1.2282
 Frc consts  --      1.6008                 1.4979                 1.4547
 IR Inten    --      2.8368                 1.8846                 3.4679

                     49                     50                     51
                      A                      A                      A
 Frequencies --   1479.6589              1483.8082              1488.3438
 Red. masses --      1.0843                 1.0740                 1.0861
 Frc consts  --      1.3987                 1.3932                 1.4175
 IR Inten    --      1.3774                 0.7292                 2.5530

                     52                     53                     54
                      A                      A                      A
 Frequencies --   1496.7725              1496.9351              1498.6754
 Red. masses --      1.0470                 1.0676                 1.0666
 Frc consts  --      1.3820                 1.4095                 1.4115
 IR Inten    --      9.5630                 3.5465                 0.7276

                     55                     56                     57
                      A                      A                      A
 Frequencies --   1503.4712              1507.7020              1519.8826
 Red. masses --      1.0620                 1.0918                 1.0486
 Frc consts  --      1.4144                 1.4623                 1.4272
 IR Inten    --      8.8636                 2.0132                 1.3220

                     58                     59                     60
                      A                      A                      A
 Frequencies --   2974.1037              2987.7051              2996.4820
 Red. masses --      1.0797                 1.0793                 1.0673
 Frc consts  --      5.6267                 5.6761                 5.6465
 IR Inten    --      2.6255                 8.5635                30.4471

                     61                     62                     63
                      A                      A                      A
 Frequencies --   3010.8957              3012.4978              3016.3759
 Red. masses --      1.0604                 1.0657                 1.0633
 Frc consts  --      5.6640                 5.6984                 5.7002
 IR Inten    --     10.2456                14.4565                24.4868

                     64                     65                     66
                      A                      A                      A
 Frequencies --   3022.6424              3026.2395              3027.3076
 Red. masses --      1.0594                 1.0444                 1.0435
 Frc consts  --      5.7025                 5.6355                 5.6344
 IR Inten    --     24.9902                43.8670                18.7898

                     67                     68                     69
                      A                      A                      A
 Frequencies --   3038.5875              3041.7541              3050.1853
 Red. masses --      1.0938                 1.0958                 1.1015
 Frc consts  --      5.9504                 5.9737                 6.0380
 IR Inten    --     36.0860                40.0324                57.4120

                     70                     71                     72
                      A                      A                      A
 Frequencies --   3056.1079              3065.3366              3087.6175
 Red. masses --      1.0955                 1.1028                 1.0992
 Frc consts  --      6.0282                 6.1052                 6.1742
 IR Inten    --     43.8171                88.4992                 2.4534

                     73                     74                     75
                      A                      A                      A
 Frequencies --   3088.7940              3109.2485              3119.9219
 Red. masses --      1.0990                 1.0999                 1.0974
 Frc consts  --      6.1779                 6.2648                 6.2939
 IR Inten    --     82.0663                37.6508                29.0661

 - Thermochemistry -
 -------------------
 Temperature   298.150 Kelvin.  Pressure   1.00000 Atm.
 Atom     1 has atomic number  6 and mass  12.00000

 Molecular mass:   126.14085 amu.
 Principal axes and moments of inertia in atomic units:
                           1         2         3
     Eigenvalues --   862.171931291.988441957.49851
           X            1.00000  -0.00093   0.00111
           Y            0.00092   0.99999   0.00356
           Z           -0.00111  -0.00356   0.99999
 This molecule is an asymmetric top.
 Rotational symmetry number  1.
 Warning -- assumption of classical behavior for rotation
           may cause significant error
 Rotational temperatures (Kelvin)      0.10046     0.06704     0.04425
 Rotational constants (GHZ):           2.09325     1.39687     0.92196
 Zero-point vibrational energy     668019.3 (Joules/Mol)
                                  159.66045 (Kcal/Mol)
 Warning -- explicit consideration of  14 degrees of freedom as
           vibrations may cause significant error
 Vibrational temperatures:    120.80   170.49   250.87   322.47   336.47
          (Kelvin)            404.00   460.16   490.00   507.69   558.18
                              576.01   681.74   733.03   788.38  1062.15
                             1088.14  1170.27  1196.80  1257.07  1340.70
                             1345.35  1383.17  1395.99  1428.73  1490.68
                             1501.49  1544.02  1554.83  1567.15  1627.21
                             1668.23  1688.06  1750.91  1764.02  1801.90
                             1859.61  1876.86  1897.07  1919.36  1937.36
                             1972.04  1984.34  1988.67  1995.75  2011.46
                             2016.19  2027.96  2039.95  2128.90  2134.87
                             2141.39  2153.52  2153.76  2156.26  2163.16
                             2169.25  2186.77  4279.07  4298.64  4311.27
                             4332.01  4334.31  4339.89  4348.91  4354.08
                             4355.62  4371.85  4376.41  4388.54  4397.06
                             4410.34  4442.39  4444.09  4473.52  4488.87

 Zero-point correction=                           0.254435 (Hartree/Particle)
 Thermal correction to Energy=                    0.264240
 Thermal correction to Enthalpy=                  0.265184
 Thermal correction to Gibbs Free Energy=         0.220357
 Sum of electronic and zero-point Energies=           -353.582399
 Sum of electronic and thermal Energies=              -353.572594
 Sum of electronic and thermal Enthalpies=            -353.571650
 Sum of electronic and thermal Free Energies=         -353.616477

                     E (Thermal)             CV                S
                      KCal/Mol        Cal/Mol-Kelvin    Cal/Mol-Kelvin
 Total                  165.813             38.931             94.346
 Electronic               0.000              0.000              0.000
 Translational            0.889              2.981             40.410
 Rotational               0.889              2.981             29.168
 Vibrational            164.036             32.970             24.768
 Vibration     1          0.601              1.960              3.796
 Vibration     2          0.609              1.934              3.125
 Vibration     3          0.627              1.874              2.388
 Vibration     4          0.649              1.804              1.925
 Vibration     5          0.654              1.789              1.849
 Vibration     6          0.680              1.709              1.529
 Vibration     7          0.706              1.636              1.311
 Vibration     8          0.720              1.594              1.210
 Vibration     9          0.729              1.569              1.153
 Vibration    10          0.756              1.496              1.008
 Vibration    11          0.766              1.469              0.961
 Vibration    12          0.831              1.308              0.727
 Vibration    13          0.865              1.229              0.635
 Vibration    14          0.903              1.144              0.548

 Optimization completed.
    -- Stationary point found.
 Normal termination of Gaussian 16 at Sun May 28 21:18:57 2023.
