 Gaussian 16, Revision A.03,
 Gaussian 16:  ES64L-G16RevA.03 25-Dec-2016

 -----------------------------
 # opt freq b3lyp/6-31g(2df,p)
 -----------------------------

 -------------------
 Title Card Required
 -------------------
 Symbolic Z-matrix:
 Charge =  0 Multiplicity = 1

 SCF Done:  E(RB3LYP) =  -353.849550201     A.U. after   12 cycles
 SCF Done:  E(RB3LYP) =  -353.850791616     A.U. after   10 cycles
 SCF Done:  E(RB3LYP) =  -353.850981712     A.U. after    8 cycles
 SCF Done:  E(RB3LYP) =  -353.850993074     A.U. after    8 cycles
 SCF Done:  E(RB3LYP) =  -353.850993779     A.U. after    6 cycles
 SCF Done:  E(RB3LYP) =  -353.850993833     A.U. after    5 cycles
 Optimization completed.
    -- Stationary point found.
 Normal termination of Gaussian 16 at Sun May 28 20:01:32 2023.

 ----------------------------------------------------------------------
 #N Geom=AllCheck Guess=TCheck SCRF=Check GenChk RB3LYP/6-31G(2df,p) Fr
 eq
 ----------------------------------------------------------------------

 Structure from the checkpoint file:  "CC1CCqCrCCqCrC1.chk"
 -------------------
 Title Card Required
 -------------------
 Charge =  0 Multiplicity = 1

                         Standard orientation:
 ---------------------------------------------------------------------
 Center     Atomic      Atomic             Coordinates (Angstroms)
 Number     Number       Type             X           Y           Z
 ---------------------------------------------------------------------
      1          6           0        0.000055    2.380211   -0.820316
      2          6           0        0.000014    1.561707    0.480969
      3          6           0       -1.263392    0.689904    0.632068
      4          6           0       -1.280654   -0.538310   -0.294781
      5          6           0       -2.538544   -1.384782   -0.074901
      6          6           0       -0.000033   -1.366041   -0.098779
      7          6           0        1.280612   -0.538370   -0.294782
      8          6           0        2.538491   -1.384874   -0.074875
      9          6           0        1.263431    0.689875    0.632023
     10          1           0       -0.884534    3.023948   -0.875038
     11          1           0        0.000316    1.748772   -1.714042
     12          1           0        0.884447    3.024241   -0.874725
     13          1           0        0.000038    2.284772    1.307434
     14          1           0       -2.159826    1.299481    0.460832
     15          1           0       -1.326356    0.335940    1.671328
     16          1           0       -1.294414   -0.185497   -1.336119
     17          1           0       -2.579349   -1.767192    0.952220
     18          1           0       -2.562116   -2.246792   -0.750490
     19          1           0       -3.448357   -0.799303   -0.246483
     20          1           0       -0.000041   -2.223098   -0.784697
     21          1           0       -0.000062   -1.787380    0.918832
     22          1           0        1.294394   -0.185612   -1.336138
     23          1           0        2.579256   -1.767302    0.952239
     24          1           0        3.448309   -0.799390   -0.246417
     25          1           0        2.562081   -2.246867   -0.750485
     26          1           0        2.159864    1.299423    0.460696
     27          1           0        1.326463    0.335940    1.671289
 ---------------------------------------------------------------------

 SCF Done:  E(RB3LYP) =  -353.850993833     A.U. after    1 cycles

 The electronic state is 1-A.
 Alpha  occ. eigenvalues --  -10.17864 -10.17748 -10.17748 -10.16886 -10.16886
 Alpha  occ. eigenvalues --  -10.16844 -10.16693 -10.16663 -10.16663  -0.83372
 Alpha  occ. eigenvalues --   -0.76702  -0.76414  -0.67497  -0.66926  -0.66569
 Alpha  occ. eigenvalues --   -0.57920  -0.56532  -0.52845  -0.46324  -0.45348
 Alpha  occ. eigenvalues --   -0.43687  -0.42554  -0.42320  -0.39566  -0.38649
 Alpha  occ. eigenvalues --   -0.38142  -0.37195  -0.36035  -0.35377  -0.34753
 Alpha  occ. eigenvalues --   -0.32568  -0.32355  -0.31646  -0.30194  -0.28637
 Alpha  occ. eigenvalues --   -0.28311
 Alpha virt. eigenvalues --    0.07828   0.09732   0.10874   0.11138   0.14347
 Alpha virt. eigenvalues --    0.14737   0.15379   0.16435   0.16673   0.16953
 Alpha virt. eigenvalues --    0.17372   0.18338   0.18504   0.19255   0.19539

 Mulliken charges:
               1
     1  C   -0.390401
     2  C    0.004402
     3  C   -0.188011
     4  C    0.029461
     5  C   -0.401304
     6  C   -0.169444
     7  C    0.029464
     8  C   -0.401306
     9  C   -0.188012
    10  H    0.108195
    11  H    0.116705
    12  H    0.108199
    13  H    0.062461
    14  H    0.082079
    15  H    0.083635
    16  H    0.068372
    17  H    0.109674
    18  H    0.106592
    19  H    0.107105
    20  H    0.081851
    21  H    0.082819
    22  H    0.068373
    23  H    0.109675
    24  H    0.107106
    25  H    0.106592
    26  H    0.082081
    27  H    0.083635
 Sum of Mulliken charges =  -0.00000

 Dipole moment (field-independent basis, Debye):
    X=              0.0000    Y=              0.1063    Z=             -0.0451  Tot=              0.1155
 Quadrupole moment (field-independent basis, Debye-Ang):
   XX=            -60.6220   YY=            -60.1565   ZZ=            -59.3115
   XY=              0.0001   XZ=             -0.0000   YZ=              0.2726

  Exact polarizability: 103.565  -0.000  99.942   0.000   0.131  83.756
 Approx polarizability: 133.463  -0.001 134.009   0.000  -0.550 133.210

                      1                      2                      3
                      A                      A                      A
 Frequencies --    130.3527               142.8521               169.4663
 Red. masses --      2.3908                 2.1215                 2.6562
 Frc consts  --      0.0239                 0.0255                 0.0449
 IR Inten    --      0.0360                 0.0162                 0.0515

                      4                      5                      6
                      A                      A                      A
 Frequencies --    211.8610               231.5959               236.4271
 Red. masses --      1.0289                 1.0359                 1.1904
 Frc consts  --      0.0272                 0.0327                 0.0392
 IR Inten    --      0.0493                 0.0039                 0.0049

                      7                      8                      9
                      A                      A                      A
 Frequencies --    251.3682               307.8739               358.6879
 Red. masses --      1.9688                 2.2842                 2.3897
 Frc consts  --      0.0733                 0.1276                 0.1811
 IR Inten    --      0.0126                 0.0009                 0.1830

                     10                     11                     12
                      A                      A                      A
 Frequencies --    366.5107               428.2320               430.7887
 Red. masses --      2.3820                 2.1407                 2.5267
 Frc consts  --      0.1885                 0.2313                 0.2763
 IR Inten    --      0.0629                 0.0707                 0.0469

                     13                     14                     15
                      A                      A                      A
 Frequencies --    459.4238               468.0020               631.6049
 Red. masses --      2.1363                 2.3189                 2.7191
 Frc consts  --      0.2657                 0.2992                 0.6391
 IR Inten    --      0.0657                 0.0365                 1.2443

                     16                     17                     18
                      A                      A                      A
 Frequencies --    787.2300               830.2235               852.6453
 Red. masses --      2.7544                 2.4218                 1.9243
 Frc consts  --      1.0057                 0.9835                 0.8242
 IR Inten    --      0.1948                 0.2528                 1.1597

                     19                     20                     21
                      A                      A                      A
 Frequencies --    857.3395               875.9507               937.7509
 Red. masses --      1.4201                 1.4447                 1.7400
 Frc consts  --      0.6150                 0.6531                 0.9015
 IR Inten    --      1.9848                 0.1124                 0.6059

                     22                     23                     24
                      A                      A                      A
 Frequencies --    950.0340               957.5728               987.5215
 Red. masses --      1.8485                 1.9427                 1.4912
 Frc consts  --      0.9830                 1.0495                 0.8568
 IR Inten    --      1.0577                 0.3828                 0.0094

                     25                     26                     27
                      A                      A                      A
 Frequencies --   1018.8127              1023.3029              1036.8082
 Red. masses --      1.4506                 1.4402                 1.6334
 Frc consts  --      0.8871                 0.8886                 1.0345
 IR Inten    --      0.2037                 0.1789                 0.0445

                     28                     29                     30
                      A                      A                      A
 Frequencies --   1059.5774              1084.6768              1123.2477
 Red. masses --      2.1189                 1.2390                 1.5312
 Frc consts  --      1.4016                 0.8589                 1.1382
 IR Inten    --      0.0852                 0.5305                 0.2740

                     31                     32                     33
                      A                      A                      A
 Frequencies --   1130.9983              1187.3109              1188.4081
 Red. masses --      2.8747                 1.4540                 2.1569
 Frc consts  --      2.1665                 1.2077                 1.7948
 IR Inten    --      0.7850                 1.5368                 0.9524

                     34                     35                     36
                      A                      A                      A
 Frequencies --   1198.1965              1277.5461              1285.8343
 Red. masses --      2.2783                 1.5303                 1.2946
 Frc consts  --      1.9272                 1.4716                 1.2611
 IR Inten    --      1.1150                 2.8238                 1.4184

                     37                     38                     39
                      A                      A                      A
 Frequencies --   1301.3297              1312.0580              1334.6917
 Red. masses --      1.2556                 1.3398                 1.3083
 Frc consts  --      1.2528                 1.3589                 1.3732
 IR Inten    --      0.8156                 0.2056                 0.5178

                     40                     41                     42
                      A                      A                      A
 Frequencies --   1357.1630              1362.6788              1379.6129
 Red. masses --      1.3534                 1.4196                 1.4324
 Frc consts  --      1.4687                 1.5531                 1.6063
 IR Inten    --      1.1437                 6.3626                 4.4038

                     43                     44                     45
                      A                      A                      A
 Frequencies --   1381.0603              1395.2398              1397.5006
 Red. masses --      1.5288                 1.3539                 1.5006
 Frc consts  --      1.7180                 1.5529                 1.7267
 IR Inten    --      1.2799                 0.1374                 0.6426

                     46                     47                     48
                      A                      A                      A
 Frequencies --   1409.6183              1414.6608              1415.5443
 Red. masses --      1.2534                 1.2725                 1.2698
 Frc consts  --      1.4674                 1.5004                 1.4991
 IR Inten    --      0.1944                 0.5138                 9.5449

                     49                     50                     51
                      A                      A                      A
 Frequencies --   1476.9376              1479.4190              1492.1821
 Red. masses --      1.0878                 1.0960                 1.0740
 Frc consts  --      1.3980                 1.4133                 1.4089
 IR Inten    --      0.0344                 1.5085                 1.3034

                     52                     53                     54
                      A                      A                      A
 Frequencies --   1496.0436              1496.9256              1499.7212
 Red. masses --      1.0442                 1.0470                 1.0571
 Frc consts  --      1.3770                 1.3823                 1.4008
 IR Inten    --      5.8356                 2.4990                 0.1393

                     55                     56                     57
                      A                      A                      A
 Frequencies --   1501.3533              1504.5120              1505.0911
 Red. masses --      1.0597                 1.0652                 1.0534
 Frc consts  --      1.4073                 1.4206                 1.4059
 IR Inten    --      3.8208                10.2598                 1.2991

                     58                     59                     60
                      A                      A                      A
 Frequencies --   2984.6322              2992.3962              2992.4811
 Red. masses --      1.0673                 1.0745                 1.0706
 Frc consts  --      5.6016                 5.6686                 5.6483
 IR Inten    --      7.5359                 5.3091                 0.0120

                     61                     62                     63
                      A                      A                      A
 Frequencies --   3001.8007              3003.2845              3015.3341
 Red. masses --      1.0686                 1.0760                 1.0692
 Frc consts  --      5.6730                 5.7181                 5.7277
 IR Inten    --     18.4853                37.7256                66.5297

                     64                     65                     66
                      A                      A                      A
 Frequencies --   3020.9034              3022.8122              3031.1118
 Red. masses --      1.0356                 1.0406                 1.0389
 Frc consts  --      5.5681                 5.6020                 5.6236
 IR Inten    --     51.8474                45.3210                14.4513

                     67                     68                     69
                      A                      A                      A
 Frequencies --   3038.4609              3042.2906              3047.3795
 Red. masses --      1.0977                 1.0999                 1.0988
 Frc consts  --      5.9712                 5.9977                 6.0122
 IR Inten    --     37.1435                29.4448                59.3049

                     70                     71                     72
                      A                      A                      A
 Frequencies --   3086.7045              3087.4957              3092.4408
 Red. masses --      1.1006                 1.1003                 1.1016
 Frc consts  --      6.1785                 6.1799                 6.2069
 IR Inten    --     10.3189                75.7527                 0.6510

                     73                     74                     75
                      A                      A                      A
 Frequencies --   3093.1345              3093.4576              3103.5906
 Red. masses --      1.1013                 1.1012                 1.0995
 Frc consts  --      6.2080                 6.2089                 6.2400
 IR Inten    --     47.9664                51.4336                46.4572

 - Thermochemistry -
 -------------------
 Temperature   298.150 Kelvin.  Pressure   1.00000 Atm.
 Atom     1 has atomic number  6 and mass  12.00000

 Molecular mass:   126.14085 amu.
 Principal axes and moments of inertia in atomic units:
                           1         2         3
     Eigenvalues --  1013.094451228.566301933.16372
           X            1.00000   0.00000  -0.00000
           Y           -0.00000   0.99995  -0.00996
           Z            0.00000   0.00996   0.99995
 This molecule is an asymmetric top.
 Rotational symmetry number  1.
 Warning -- assumption of classical behavior for rotation
           may cause significant error
 Rotational temperatures (Kelvin)      0.08549     0.07050     0.04480
 Rotational constants (GHZ):           1.78141     1.46898     0.93357
 Zero-point vibrational energy     664759.4 (Joules/Mol)
                                  158.88131 (Kcal/Mol)
 Warning -- explicit consideration of  14 degrees of freedom as
           vibrations may cause significant error
 Vibrational temperatures:    187.55   205.53   243.82   304.82   333.21
          (Kelvin)            340.17   361.66   442.96   516.07   527.33
                              616.13   619.81   661.01   673.35   908.74
                             1132.65  1194.51  1226.77  1233.52  1260.30
                             1349.21  1366.89  1377.73  1420.82  1465.84
                             1472.30  1491.74  1524.50  1560.61  1616.10
                             1627.25  1708.28  1709.85  1723.94  1838.10
                             1850.03  1872.32  1887.76  1920.32  1952.65
                             1960.59  1984.96  1987.04  2007.44  2010.69
                             2028.13  2035.38  2036.65  2124.98  2128.55
                             2146.92  2152.47  2153.74  2157.76  2160.11
                             2164.66  2165.49  4294.22  4305.39  4305.51
                             4318.92  4321.06  4338.39  4346.41  4349.15
                             4361.09  4371.67  4377.18  4384.50  4441.08
                             4442.22  4449.33  4450.33  4450.80  4465.37

 Zero-point correction=                           0.253193 (Hartree/Particle)
 Thermal correction to Energy=                    0.263269
 Thermal correction to Enthalpy=                  0.264213
 Thermal correction to Gibbs Free Energy=         0.219136
 Sum of electronic and zero-point Energies=           -353.597800
 Sum of electronic and thermal Energies=              -353.587725
 Sum of electronic and thermal Enthalpies=            -353.586781
 Sum of electronic and thermal Free Energies=         -353.631858

                     E (Thermal)             CV                S
                      KCal/Mol        Cal/Mol-Kelvin    Cal/Mol-Kelvin
 Total                  165.204             39.889             94.873
 Electronic               0.000              0.000              0.000
 Translational            0.889              2.981             40.410
 Rotational               0.889              2.981             29.266
 Vibrational            163.426             33.927             25.197
 Vibration     1          0.612              1.923              2.941
 Vibration     2          0.616              1.910              2.765
 Vibration     3          0.625              1.880              2.441
 Vibration     4          0.643              1.823              2.028
 Vibration     5          0.653              1.793              1.867
 Vibration     6          0.655              1.785              1.830
 Vibration     7          0.663              1.760              1.721
 Vibration     8          0.698              1.659              1.374
 Vibration     9          0.734              1.557              1.128
 Vibration    10          0.739              1.541              1.094
 Vibration    11          0.790              1.409              0.864
 Vibration    12          0.792              1.403              0.856
 Vibration    13          0.817              1.340              0.768
 Vibration    14          0.825              1.321              0.743

 Optimization completed.
    -- Stationary point found.
 Normal termination of Gaussian 16 at Sun May 28 20:49:53 2023.
