 Gaussian 16, Revision A.03,
 Gaussian 16:  ES64L-G16RevA.03 25-Dec-2016

 -----------------------------
 # opt freq b3lyp/6-31g(2df,p)
 -----------------------------

 -------------------
 Title Card Required
 -------------------
 Symbolic Z-matrix:
 Charge =  0 Multiplicity = 1

 SCF Done:  E(RB3LYP) =  -235.860280618     A.U. after   11 cycles
 SCF Done:  E(RB3LYP) =  -235.864479411     A.U. after   10 cycles
 SCF Done:  E(RB3LYP) =  -235.864747341     A.U. after    9 cycles
 SCF Done:  E(RB3LYP) =  -235.864823851     A.U. after    9 cycles
 SCF Done:  E(RB3LYP) =  -235.864837736     A.U. after    8 cycles
 SCF Done:  E(RB3LYP) =  -235.864840468     A.U. after    7 cycles
 SCF Done:  E(RB3LYP) =  -235.864840544     A.U. after    5 cycles
 Optimization completed.
    -- Stationary point found.
 Normal termination of Gaussian 16 at Sun May 28 11:11:19 2023.

 ----------------------------------------------------------------------
 #N Geom=AllCheck Guess=TCheck SCRF=Check GenChk RB3LYP/6-31G(2df,p) Fr
 eq
 ----------------------------------------------------------------------

 Structure from the checkpoint file:  "CC1CCqCrC1.chk"
 -------------------
 Title Card Required
 -------------------
 Charge =  0 Multiplicity = 1

                         Standard orientation:
 ---------------------------------------------------------------------
 Center     Atomic      Atomic             Coordinates (Angstroms)
 Number     Number       Type             X           Y           Z
 ---------------------------------------------------------------------
      1          6           0        2.385484   -0.000036   -0.130215
      2          6           0        0.891140    0.000035   -0.413067
      3          6           0        0.002596   -1.085564    0.260339
      4          6           0       -1.078242    0.000027    0.545309
      5          6           0       -2.245723   -0.000062   -0.437483
      6          6           0        0.002562    1.085647    0.260281
      7          1           0        2.872927   -0.884935   -0.555460
      8          1           0        2.580326    0.000267    0.948758
      9          1           0        2.873243    0.884397   -0.556044
     10          1           0        0.725883    0.000029   -1.496103
     11          1           0        0.458864   -1.464368    1.180843
     12          1           0       -0.300639   -1.941120   -0.350893
     13          1           0       -1.467178    0.000058    1.568160
     14          1           0       -1.895150   -0.000085   -1.476156
     15          1           0       -2.876724    0.885496   -0.301993
     16          1           0       -2.876642   -0.885670   -0.301922
     17          1           0        0.458855    1.464450    1.180776
     18          1           0       -0.300670    1.941195   -0.350954
 ---------------------------------------------------------------------

 SCF Done:  E(RB3LYP) =  -235.864840544     A.U. after    1 cycles

 The electronic state is 1-A.
 Alpha  occ. eigenvalues --  -10.17928 -10.17920 -10.16917 -10.16917 -10.16891
 Alpha  occ. eigenvalues --  -10.16815  -0.83935  -0.73586  -0.68124  -0.64988
 Alpha  occ. eigenvalues --   -0.58586  -0.52072  -0.46616  -0.46115  -0.41964
 Alpha  occ. eigenvalues --   -0.39625  -0.39221  -0.37813  -0.37158  -0.34860
 Alpha  occ. eigenvalues --   -0.31098  -0.30550  -0.28740  -0.28050
 Alpha virt. eigenvalues --    0.09098   0.10234   0.11161   0.14518   0.15346
 Alpha virt. eigenvalues --    0.16002   0.16609   0.17568   0.17677   0.17691
 Alpha virt. eigenvalues --    0.19105   0.19814   0.20700   0.23366   0.24529

 Mulliken charges:
               1
     1  C   -0.407175
     2  C    0.073867
     3  C   -0.234026
     4  C    0.037253
     5  C   -0.388612
     6  C   -0.234037
     7  H    0.111322
     8  H    0.108390
     9  H    0.111318
    10  H    0.068583
    11  H    0.090750
    12  H    0.088374
    13  H    0.062110
    14  H    0.111591
    15  H    0.110582
    16  H    0.110584
    17  H    0.090751
    18  H    0.088375
 Sum of Mulliken charges =   0.00000

 Dipole moment (field-independent basis, Debye):
    X=              0.0005    Y=             -0.0000    Z=             -0.0208  Tot=              0.0208
 Quadrupole moment (field-independent basis, Debye-Ang):
   XX=            -40.3917   YY=            -39.9598   ZZ=            -39.1318
   XY=              0.0000   XZ=             -0.0538   YZ=             -0.0001

  Exact polarizability:  72.520  -0.000  61.184   0.151  -0.000  57.519
 Approx polarizability:  87.895  -0.000  87.373  -0.055  -0.000  86.247

                      1                      2                      3
                      A                      A                      A
 Frequencies --     91.3565               231.4594               246.6984
 Red. masses --      2.4285                 1.0837                 1.2184
 Frc consts  --      0.0119                 0.0342                 0.0437
 IR Inten    --      0.0066                 0.0303                 0.0060

                      4                      5                      6
                      A                      A                      A
 Frequencies --    258.3994               320.6558               370.9287
 Red. masses --      1.6321                 2.7057                 1.8788
 Frc consts  --      0.0642                 0.1639                 0.1523
 IR Inten    --      0.0847                 0.0794                 0.0059

                      7                      8                      9
                      A                      A                      A
 Frequencies --    426.7193               645.7566               797.0050
 Red. masses --      1.5878                 3.0830                 2.3348
 Frc consts  --      0.1703                 0.7575                 0.8738
 IR Inten    --      0.0784                 1.3724                 0.5342

                     10                     11                     12
                      A                      A                      A
 Frequencies --    806.6401               864.2594               897.5502
 Red. masses --      1.3328                 2.0781                 1.9418
 Frc consts  --      0.5109                 0.9146                 0.9217
 IR Inten    --      0.1636                 0.8118                 0.0334

                     13                     14                     15
                      A                      A                      A
 Frequencies --    902.6596               941.7004               958.9797
 Red. masses --      2.2745                 1.8563                 1.1938
 Frc consts  --      1.0919                 0.9699                 0.6469
 IR Inten    --      0.0000                 0.5154                 0.9750

                     16                     17                     18
                      A                      A                      A
 Frequencies --    995.5850              1046.6845              1128.4681
 Red. masses --      1.0825                 1.7543                 2.4516
 Frc consts  --      0.6322                 1.1324                 1.8394
 IR Inten    --      2.4351                 1.3229                 0.4467

                     19                     20                     21
                      A                      A                      A
 Frequencies --   1128.6878              1144.3101              1198.6698
 Red. masses --      1.8777                 1.2416                 2.3079
 Frc consts  --      1.4094                 0.9579                 1.9537
 IR Inten    --      0.0017                 0.3402                 0.3270

                     22                     23                     24
                      A                      A                      A
 Frequencies --   1230.9886              1251.3274              1274.0332
 Red. masses --      1.4378                 1.4219                 1.3875
 Frc consts  --      1.2837                 1.3118                 1.3269
 IR Inten    --      0.1235                 0.3158                 0.0134

                     25                     26                     27
                      A                      A                      A
 Frequencies --   1280.8367              1293.7396              1360.8411
 Red. masses --      1.4943                 1.4119                 1.4702
 Frc consts  --      1.4443                 1.3924                 1.6041
 IR Inten    --      0.8595                 1.3880                14.0376

                     28                     29                     30
                      A                      A                      A
 Frequencies --   1378.8914              1408.5170              1411.5380
 Red. masses --      1.4269                 1.2823                 1.2545
 Frc consts  --      1.5985                 1.4988                 1.4726
 IR Inten    --      0.1977                 0.0962                 3.7684

                     31                     32                     33
                      A                      A                      A
 Frequencies --   1473.3733              1492.9226              1495.8897
 Red. masses --      1.0845                 1.0750                 1.0466
 Frc consts  --      1.3870                 1.4116                 1.3799
 IR Inten    --      1.6989                 2.9539                 0.3340

                     34                     35                     36
                      A                      A                      A
 Frequencies --   1496.0857              1498.3760              1501.6144
 Red. masses --      1.0489                 1.0532                 1.0864
 Frc consts  --      1.3832                 1.3932                 1.4433
 IR Inten    --      0.5673                 1.9781                 6.2515

                     37                     38                     39
                      A                      A                      A
 Frequencies --   3018.4120              3021.1517              3034.2196
 Red. masses --      1.0352                 1.0357                 1.0818
 Frc consts  --      5.5570                 5.5694                 5.8680
 IR Inten    --     27.0246                28.8234                13.3392

                     40                     41                     42
                      A                      A                      A
 Frequencies --   3037.3613              3038.8333              3051.9045
 Red. masses --      1.0570                 1.0705                 1.0775
 Frc consts  --      5.7454                 5.8244                 5.9129
 IR Inten    --     70.5422                 8.0282                15.6444

                     43                     44                     45
                      A                      A                      A
 Frequencies --   3084.1767              3085.9110              3088.0307
 Red. masses --      1.1032                 1.1014                 1.1044
 Frc consts  --      6.1826                 6.1796                 6.2052
 IR Inten    --     23.2237                27.5783                 9.8915

                     46                     47                     48
                      A                      A                      A
 Frequencies --   3088.8118              3091.2342              3097.5181
 Red. masses --      1.1012                 1.1041                 1.1035
 Frc consts  --      6.1901                 6.2164                 6.2378
 IR Inten    --     22.7956                32.7108               113.2868

 - Thermochemistry -
 -------------------
 Temperature   298.150 Kelvin.  Pressure   1.00000 Atm.
 Atom     1 has atomic number  6 and mass  12.00000

 Molecular mass:    84.09390 amu.
 Principal axes and moments of inertia in atomic units:
                           1         2         3
     Eigenvalues --   231.35764 788.07383 866.40579
           X            0.99996  -0.00000   0.00946
           Y            0.00000   1.00000   0.00000
           Z           -0.00946  -0.00000   0.99996
 This molecule is an asymmetric top.
 Rotational symmetry number  1.
 Rotational temperatures (Kelvin)      0.37437     0.10991     0.09997
 Rotational constants (GHZ):           7.80066     2.29007     2.08302
 Zero-point vibrational energy     436575.4 (Joules/Mol)
                                  104.34403 (Kcal/Mol)
 Warning -- explicit consideration of   7 degrees of freedom as
           vibrations may cause significant error
 Vibrational temperatures:    131.44   333.02   354.94   371.78   461.35
          (Kelvin)            533.68   613.95   929.10  1146.71  1160.58
                             1243.48  1291.37  1298.73  1354.90  1379.76
                             1432.42  1505.95  1623.61  1623.93  1646.41
                             1724.62  1771.12  1800.38  1833.05  1842.84
                             1861.40  1957.95  1983.92  2026.54  2030.89
                             2119.86  2147.98  2152.25  2152.53  2155.83
                             2160.49  4342.82  4346.76  4365.57  4370.09
                             4372.20  4391.01  4437.44  4439.94  4442.99
                             4444.11  4447.60  4456.64

 Zero-point correction=                           0.166283 (Hartree/Particle)
 Thermal correction to Energy=                    0.173191
 Thermal correction to Enthalpy=                  0.174135
 Thermal correction to Gibbs Free Energy=         0.136087
 Sum of electronic and zero-point Energies=           -235.698558
 Sum of electronic and thermal Energies=              -235.691649
 Sum of electronic and thermal Enthalpies=            -235.690705
 Sum of electronic and thermal Free Energies=         -235.728754

                     E (Thermal)             CV                S
                      KCal/Mol        Cal/Mol-Kelvin    Cal/Mol-Kelvin
 Total                  108.679             25.862             80.080
 Electronic               0.000              0.000              0.000
 Translational            0.889              2.981             39.202
 Rotational               0.889              2.981             26.560
 Vibrational            106.902             19.900             14.318
 Vibration     1          0.602              1.955              3.631
 Vibration     2          0.653              1.793              1.868
 Vibration     3          0.661              1.768              1.754
 Vibration     4          0.667              1.749              1.673
 Vibration     5          0.706              1.634              1.307
 Vibration     6          0.743              1.532              1.076
 Vibration     7          0.788              1.412              0.869

 Optimization completed.
    -- Stationary point found.
 Normal termination of Gaussian 16 at Sun May 28 11:26:06 2023.
