 Gaussian 16, Revision A.03,
 Gaussian 16:  ES64L-G16RevA.03 25-Dec-2016

 -----------------------------
 # opt freq b3lyp/6-31g(2df,p)
 -----------------------------

 -------------------
 Title Card Required
 -------------------
 Symbolic Z-matrix:
 Charge =  0 Multiplicity = 1

 SCF Done:  E(RB3LYP) =  -314.520708019     A.U. after   11 cycles
 SCF Done:  E(RB3LYP) =  -314.522957390     A.U. after   10 cycles
 SCF Done:  E(RB3LYP) =  -314.523132934     A.U. after    8 cycles
 SCF Done:  E(RB3LYP) =  -314.523152589     A.U. after    8 cycles
 SCF Done:  E(RB3LYP) =  -314.523153854     A.U. after    6 cycles
 SCF Done:  E(RB3LYP) =  -314.523154269     A.U. after    6 cycles
 SCF Done:  E(RB3LYP) =  -314.523154483     A.U. after    6 cycles
 SCF Done:  E(RB3LYP) =  -314.523154531     A.U. after    5 cycles
 Optimization completed.
    -- Stationary point found.
 Normal termination of Gaussian 16 at Sun May 28 08:40:10 2023.

 ----------------------------------------------------------------------
 #N Geom=AllCheck Guess=TCheck SCRF=Check GenChk RB3LYP/6-31G(2df,p) Fr
 eq
 ----------------------------------------------------------------------

 Structure from the checkpoint file:  "CC1CCCCCC1.chk"
 -------------------
 Title Card Required
 -------------------
 Charge =  0 Multiplicity = 1

                         Standard orientation:
 ---------------------------------------------------------------------
 Center     Atomic      Atomic             Coordinates (Angstroms)
 Number     Number       Type             X           Y           Z
 ---------------------------------------------------------------------
      1          6           0       -2.756384   -0.114736    0.200973
      2          6           0       -1.304683   -0.071495   -0.297803
      3          6           0       -0.698799    1.314060   -0.011688
      4          6           0        0.772147    1.536273   -0.401305
      5          6           0        1.772313    0.779748    0.490516
      6          6           0        2.050583   -0.686391    0.104051
      7          6           0        0.851834   -1.498736   -0.422830
      8          6           0       -0.499171   -1.255851    0.273886
      9          1           0       -3.349228    0.703033   -0.222604
     10          1           0       -2.798592   -0.021457    1.292985
     11          1           0       -3.243493   -1.057434   -0.069723
     12          1           0       -1.324724   -0.203287   -1.390676
     13          1           0       -0.803549    1.528503    1.062543
     14          1           0       -1.317069    2.061796   -0.525209
     15          1           0        0.977060    2.610467   -0.319589
     16          1           0        0.930452    1.281989   -1.458163
     17          1           0        1.402875    0.823365    1.523314
     18          1           0        2.729771    1.313612    0.500860
     19          1           0        2.472668   -1.193946    0.980476
     20          1           0        2.837386   -0.714489   -0.660225
     21          1           0        1.110895   -2.561608   -0.351340
     22          1           0        0.720083   -1.303880   -1.495007
     23          1           0       -0.357940   -1.126207    1.356344
     24          1           0       -1.113634   -2.157685    0.161216
 ---------------------------------------------------------------------

 SCF Done:  E(RB3LYP) =  -314.523154531     A.U. after    1 cycles

 The electronic state is 1-A.
 Alpha  occ. eigenvalues --  -10.17819 -10.17189 -10.17141 -10.17103 -10.17087
 Alpha  occ. eigenvalues --  -10.17026 -10.17025 -10.16608  -0.81959  -0.76764
 Alpha  occ. eigenvalues --   -0.75026  -0.68456  -0.64042  -0.61090  -0.54953
 Alpha  occ. eigenvalues --   -0.53929  -0.46681  -0.44584  -0.44149  -0.43245
 Alpha  occ. eigenvalues --   -0.39534  -0.39393  -0.38321  -0.37425  -0.36433
 Alpha  occ. eigenvalues --   -0.34883  -0.31981  -0.31194  -0.30713  -0.30247
 Alpha  occ. eigenvalues --   -0.29560  -0.29510
 Alpha virt. eigenvalues --    0.07997   0.10079   0.10615   0.12795   0.13751
 Alpha virt. eigenvalues --    0.13958   0.15521   0.16395   0.17135   0.17892
 Alpha virt. eigenvalues --    0.18059   0.18781   0.18991   0.20132   0.21200

 Mulliken charges:
               1
     1  C   -0.398174
     2  C    0.051411
     3  C   -0.168020
     4  C   -0.204153
     5  C   -0.178572
     6  C   -0.182925
     7  C   -0.197303
     8  C   -0.178087
     9  H    0.106858
    10  H    0.110492
    11  H    0.106440
    12  H    0.065778
    13  H    0.086592
    14  H    0.085351
    15  H    0.089208
    16  H    0.089362
    17  H    0.091206
    18  H    0.087872
    19  H    0.091690
    20  H    0.091708
    21  H    0.087982
    22  H    0.091906
    23  H    0.086844
    24  H    0.086533
 Sum of Mulliken charges =  -0.00000

 Dipole moment (field-independent basis, Debye):
    X=              0.0606    Y=              0.0047    Z=             -0.0561  Tot=              0.0827
 Quadrupole moment (field-independent basis, Debye-Ang):
   XX=            -53.7941   YY=            -52.9306   ZZ=            -52.6407
   XY=              0.0959   XZ=              0.1975   YZ=             -0.0534

  Exact polarizability:  94.228  -0.217  85.534   0.046  -0.114  73.733
 Approx polarizability: 117.554  -0.213 117.028  -0.019  -0.041 117.932

                      1                      2                      3
                      A                      A                      A
 Frequencies --    101.3176               130.5779               224.3924
 Red. masses --      2.1504                 1.9710                 1.1585
 Frc consts  --      0.0130                 0.0198                 0.0344
 IR Inten    --      0.0179                 0.0101                 0.0268

                      4                      5                      6
                      A                      A                      A
 Frequencies --    243.2243               288.4275               297.0820
 Red. masses --      1.7721                 1.8623                 2.3014
 Frc consts  --      0.0618                 0.0913                 0.1197
 IR Inten    --      0.0061                 0.0402                 0.0462

                      7                      8                      9
                      A                      A                      A
 Frequencies --    335.9999               372.4219               421.1789
 Red. masses --      2.9457                 2.5041                 1.9135
 Frc consts  --      0.1959                 0.2046                 0.2000
 IR Inten    --      0.0124                 0.0554                 0.1088

                     10                     11                     12
                      A                      A                      A
 Frequencies --    503.0456               535.4002               721.6101
 Red. masses --      1.8523                 2.1035                 2.0141
 Frc consts  --      0.2762                 0.3553                 0.6179
 IR Inten    --      0.2210                 0.1376                 0.1923

                     13                     14                     15
                      A                      A                      A
 Frequencies --    756.6636               820.4560               832.0552
 Red. masses --      1.4130                 2.6166                 1.7772
 Frc consts  --      0.4767                 1.0377                 0.7249
 IR Inten    --      1.5234                 0.3723                 1.5962

                     16                     17                     18
                      A                      A                      A
 Frequencies --    859.1261               920.4449               940.2100
 Red. masses --      1.6775                 2.0989                 1.3815
 Frc consts  --      0.7295                 1.0477                 0.7195
 IR Inten    --      0.3933                 1.4125                 0.3096

                     19                     20                     21
                      A                      A                      A
 Frequencies --    961.5782               978.2759              1013.3240
 Red. masses --      1.8968                 1.7121                 2.3524
 Frc consts  --      1.0333                 0.9654                 1.4232
 IR Inten    --      0.7732                 1.9555                 0.1199

                     22                     23                     24
                      A                      A                      A
 Frequencies --   1037.0632              1060.5638              1072.2272
 Red. masses --      1.4400                 1.5936                 2.1145
 Frc consts  --      0.9125                 1.0561                 1.4323
 IR Inten    --      0.6217                 1.4010                 0.3381

                     25                     26                     27
                      A                      A                      A
 Frequencies --   1093.4484              1139.6111              1173.6317
 Red. masses --      1.8216                 2.0679                 2.0304
 Frc consts  --      1.2832                 1.5823                 1.6477
 IR Inten    --      0.1592                 0.2301                 0.3246

                     28                     29                     30
                      A                      A                      A
 Frequencies --   1209.9522              1222.3333              1232.8261
 Red. masses --      1.4885                 1.2987                 1.4393
 Frc consts  --      1.2839                 1.1433                 1.2889
 IR Inten    --      1.2702                 0.4003                 0.9699

                     31                     32                     33
                      A                      A                      A
 Frequencies --   1275.3873              1305.9321              1314.2336
 Red. masses --      1.2151                 1.2068                 1.1374
 Frc consts  --      1.1645                 1.2126                 1.1574
 IR Inten    --      0.1104                 2.6286                 0.6259

                     34                     35                     36
                      A                      A                      A
 Frequencies --   1328.4622              1350.9419              1367.7034
 Red. masses --      1.2415                 1.2691                 1.3669
 Frc consts  --      1.2909                 1.3646                 1.5065
 IR Inten    --      2.6276                 0.6371                 2.5925

                     37                     38                     39
                      A                      A                      A
 Frequencies --   1381.5469              1385.5581              1392.7986
 Red. masses --      1.3662                 1.4187                 1.4102
 Frc consts  --      1.5364                 1.6047                 1.6117
 IR Inten    --      1.0798                 1.1824                 3.7332

                     40                     41                     42
                      A                      A                      A
 Frequencies --   1398.9987              1401.5635              1414.6730
 Red. masses --      1.4030                 1.4280                 1.2625
 Frc consts  --      1.6178                 1.6528                 1.4886
 IR Inten    --      1.2113                 2.7514                 1.8996

                     43                     44                     45
                      A                      A                      A
 Frequencies --   1478.9373              1484.3752              1486.4455
 Red. masses --      1.0850                 1.0764                 1.0876
 Frc consts  --      1.3983                 1.3973                 1.4159
 IR Inten    --      0.1373                 0.3220                 3.1077

                     46                     47                     48
                      A                      A                      A
 Frequencies --   1490.2051              1497.8804              1501.3658
 Red. masses --      1.0927                 1.0498                 1.0711
 Frc consts  --      1.4297                 1.3877                 1.4225
 IR Inten    --      1.4169                 2.7404                10.4718

                     49                     50                     51
                      A                      A                      A
 Frequencies --   1502.4049              1508.4411              2979.4517
 Red. masses --      1.0705                 1.0916                 1.0803
 Frc consts  --      1.4237                 1.4635                 5.6505
 IR Inten    --      4.4594                 1.2172                 6.4363

                     52                     53                     54
                      A                      A                      A
 Frequencies --   2995.5495              3006.6356              3010.6425
 Red. masses --      1.0639                 1.0634                 1.0621
 Frc consts  --      5.6246                 5.6639                 5.6718
 IR Inten    --     23.2050                18.9573                 6.5664

                     55                     56                     57
                      A                      A                      A
 Frequencies --   3012.9017              3015.4628              3022.6850
 Red. masses --      1.0624                 1.0639                 1.0440
 Frc consts  --      5.6823                 5.6996                 5.6200
 IR Inten    --      9.3229                27.7195                61.8423

                     58                     59                     60
                      A                      A                      A
 Frequencies --   3023.5713              3037.4108              3041.7664
 Red. masses --      1.0598                 1.0975                 1.0964
 Frc consts  --      5.7084                 5.9655                 5.9769
 IR Inten    --      6.6282                20.2612                34.9876

                     61                     62                     63
                      A                      A                      A
 Frequencies --   3046.1080              3052.2654              3057.2453
 Red. masses --      1.1003                 1.0989                 1.0943
 Frc consts  --      6.0153                 6.0319                 6.0265
 IR Inten    --     46.3601                94.2171                26.0078

                     64                     65                     66
                      A                      A                      A
 Frequencies --   3066.0275              3087.6441              3095.4702
 Red. masses --      1.1030                 1.1002                 1.1015
 Frc consts  --      6.1090                 6.1796                 6.2185
 IR Inten    --     97.2484                48.8463                37.1277

 - Thermochemistry -
 -------------------
 Temperature   298.150 Kelvin.  Pressure   1.00000 Atm.
 Atom     1 has atomic number  6 and mass  12.00000

 Molecular mass:   112.12520 amu.
 Principal axes and moments of inertia in atomic units:
                           1         2         3
     Eigenvalues --   602.590941115.315481538.28427
           X            1.00000  -0.00008  -0.00271
           Y            0.00008   1.00000   0.00165
           Z            0.00271  -0.00165   0.99999
 This molecule is an asymmetric top.
 Rotational symmetry number  1.
 Warning -- assumption of classical behavior for rotation
           may cause significant error
 Rotational temperatures (Kelvin)      0.14374     0.07766     0.05631
 Rotational constants (GHZ):           2.99497     1.61814     1.17322
 Zero-point vibrational energy     594048.5 (Joules/Mol)
                                  141.98101 (Kcal/Mol)
 Warning -- explicit consideration of  11 degrees of freedom as
           vibrations may cause significant error
 Vibrational temperatures:    145.77   187.87   322.85   349.95   414.98
          (Kelvin)            427.43   483.43   535.83   605.98   723.77
                              770.32  1038.24  1088.67  1180.45  1197.14
                             1236.09  1324.31  1352.75  1383.50  1407.52
                             1457.95  1492.10  1525.91  1542.70  1573.23
                             1639.65  1688.59  1740.85  1758.67  1773.76
                             1835.00  1878.94  1890.89  1911.36  1943.70
                             1967.82  1987.74  1993.51  2003.93  2012.85
                             2016.54  2035.40  2127.86  2135.68  2138.66
                             2144.07  2155.12  2160.13  2161.63  2170.31
                             4286.77  4309.93  4325.88  4331.64  4334.89
                             4338.58  4348.97  4350.24  4370.16  4376.42
                             4382.67  4391.53  4398.69  4411.33  4442.43
                             4453.69

 Zero-point correction=                           0.226261 (Hartree/Particle)
 Thermal correction to Energy=                    0.234770
 Thermal correction to Enthalpy=                  0.235714
 Thermal correction to Gibbs Free Energy=         0.193733
 Sum of electronic and zero-point Energies=           -314.296893
 Sum of electronic and thermal Energies=              -314.288385
 Sum of electronic and thermal Enthalpies=            -314.287441
 Sum of electronic and thermal Free Energies=         -314.329421

                     E (Thermal)             CV                S
                      KCal/Mol        Cal/Mol-Kelvin    Cal/Mol-Kelvin
 Total                  147.320             33.523             88.355
 Electronic               0.000              0.000              0.000
 Translational            0.889              2.981             40.059
 Rotational               0.889              2.981             28.427
 Vibrational            145.543             27.562             19.869
 Vibration     1          0.604              1.948              3.429
 Vibration     2          0.612              1.923              2.938
 Vibration     3          0.649              1.804              1.923
 Vibration     4          0.659              1.774              1.779
 Vibration     5          0.685              1.695              1.483
 Vibration     6          0.691              1.679              1.433
 Vibration     7          0.717              1.604              1.231
 Vibration     8          0.744              1.529              1.070
 Vibration     9          0.784              1.424              0.888
 Vibration    10          0.858              1.243              0.651
 Vibration    11          0.890              1.172              0.575

 Optimization completed.
    -- Stationary point found.
 Normal termination of Gaussian 16 at Sun May 28 09:14:43 2023.
