 Gaussian 16, Revision A.03,
 Gaussian 16:  ES64L-G16RevA.03 25-Dec-2016

 -----------------------------
 # opt freq b3lyp/6-31g(2df,p)
 -----------------------------

 -------------------
 Title Card Required
 -------------------
 Symbolic Z-matrix:
 Charge =  0 Multiplicity = 1

 SCF Done:  E(RB3LYP) =  -448.465364170     A.U. after   12 cycles
 SCF Done:  E(RB3LYP) =  -448.474878408     A.U. after   10 cycles
 SCF Done:  E(RB3LYP) =  -448.478311112     A.U. after   10 cycles
 SCF Done:  E(RB3LYP) =  -448.479602778     A.U. after   10 cycles
 SCF Done:  E(RB3LYP) =  -448.480002325     A.U. after    9 cycles
 SCF Done:  E(RB3LYP) =  -448.480086112     A.U. after    9 cycles
 SCF Done:  E(RB3LYP) =  -448.480116618     A.U. after    8 cycles
 SCF Done:  E(RB3LYP) =  -448.480119020     A.U. after    7 cycles
 SCF Done:  E(RB3LYP) =  -448.480119529     A.U. after    6 cycles
 SCF Done:  E(RB3LYP) =  -448.480119629     A.U. after    5 cycles
 Optimization completed.
    -- Stationary point found.
 Normal termination of Gaussian 16 at Mon May 22 07:03:40 2023.

 ----------------------------------------------------------------------
 #N Geom=AllCheck Guess=TCheck SCRF=Check GenChk RB3LYP/6-31G(2df,p) Fr
 eq
 ----------------------------------------------------------------------

 Structure from the checkpoint file:  "CC1CCCNqCrCqCrCC1.chk"
 -------------------
 Title Card Required
 -------------------
 Charge =  0 Multiplicity = 1

                         Standard orientation:
 ---------------------------------------------------------------------
 Center     Atomic      Atomic             Coordinates (Angstroms)
 Number     Number       Type             X           Y           Z
 ---------------------------------------------------------------------
      1          6           0       -3.260598   -0.324217   -0.758696
      2          6           0       -1.805279   -0.057684   -0.340995
      3          6           0       -1.663621    1.394556    0.141014
      4          6           0       -0.245958    1.907471    0.471812
      5          6           0        0.913776    1.408882   -0.423805
      6          7           0        1.776810    0.405462    0.203581
      7          6           0        3.132099    0.459550   -0.321397
      8          6           0        1.298684   -0.979754    0.366560
      9          6           0        1.177167   -1.804185   -0.933722
     10          6           0        0.050973   -1.100906    1.278339
     11          6           0       -1.362188   -1.139093    0.660622
     12          1           0       -3.588693    0.379005   -1.531350
     13          1           0       -3.939795   -0.218508    0.095980
     14          1           0       -3.382817   -1.338018   -1.154564
     15          1           0       -1.194966   -0.161624   -1.245728
     16          1           0       -2.308744    1.550213    1.016895
     17          1           0       -2.083878    2.032014   -0.648154
     18          1           0        0.023932    1.688046    1.507345
     19          1           0       -0.279002    3.001154    0.406920
     20          1           0        1.566271    2.263467   -0.627270
     21          1           0        0.535143    1.096549   -1.413869
     22          1           0        3.545771    1.462622   -0.170404
     23          1           0        3.221781    0.226508   -1.398748
     24          1           0        3.767110   -0.248389    0.222096
     25          1           0        2.105795   -1.452745    0.941909
     26          1           0        0.441490   -1.394012   -1.629885
     27          1           0        0.876111   -2.831509   -0.701719
     28          1           0        2.136494   -1.855627   -1.456572
     29          1           0        0.121835   -0.322049    2.041775
     30          1           0        0.157975   -2.048332    1.821621
     31          1           0       -2.076244   -1.145628    1.496771
     32          1           0       -1.493562   -2.109098    0.163496
 ---------------------------------------------------------------------

 SCF Done:  E(RB3LYP) =  -448.480119629     A.U. after    1 cycles

 The electronic state is 1-A.
 Alpha  occ. eigenvalues --  -14.30635 -10.20411 -10.19589 -10.19193 -10.17771
 Alpha  occ. eigenvalues --  -10.17169 -10.17073 -10.17060 -10.16895 -10.16670
 Alpha  occ. eigenvalues --  -10.16622  -0.90699  -0.80839  -0.77632  -0.73698
 Alpha  occ. eigenvalues --   -0.70699  -0.67741  -0.65584  -0.63041  -0.58288
 Alpha  occ. eigenvalues --   -0.55991  -0.52064  -0.47717  -0.47110  -0.46191
 Alpha  occ. eigenvalues --   -0.42805  -0.42064  -0.41908  -0.41455  -0.39961
 Alpha  occ. eigenvalues --   -0.39440  -0.38205  -0.37650  -0.36919  -0.36045
 Alpha  occ. eigenvalues --   -0.34687  -0.34371  -0.33614  -0.31767  -0.31573
 Alpha  occ. eigenvalues --   -0.30138  -0.29709  -0.28931  -0.19556
 Alpha virt. eigenvalues --    0.06940   0.09569   0.09806   0.11170   0.11815
 Alpha virt. eigenvalues --    0.12557   0.13646   0.14833   0.15222   0.15972
 Alpha virt. eigenvalues --    0.17084   0.18013   0.18165   0.18515   0.19053

 Mulliken charges:
               1
     1  C   -0.395857
     2  C    0.034593
     3  C   -0.179763
     4  C   -0.219711
     5  C   -0.142654
     6  N   -0.054887
     7  C   -0.325637
     8  C    0.064593
     9  C   -0.410485
    10  C   -0.252480
    11  C   -0.172772
    12  H    0.106306
    13  H    0.110266
    14  H    0.106412
    15  H    0.073506
    16  H    0.087905
    17  H    0.089521
    18  H    0.109283
    19  H    0.088232
    20  H    0.092907
    21  H    0.078700
    22  H    0.112814
    23  H    0.091479
    24  H    0.111206
    25  H    0.074916
    26  H    0.121749
    27  H    0.112438
    28  H    0.112197
    29  H    0.106046
    30  H    0.091033
    31  H    0.086934
    32  H    0.091211
 Sum of Mulliken charges =  -0.00000

 Dipole moment (field-independent basis, Debye):
    X=              0.0496    Y=             -0.1572    Z=             -0.3175  Tot=              0.3578
 Quadrupole moment (field-independent basis, Debye-Ang):
   XX=            -72.3208   YY=            -70.8502   ZZ=            -72.7280
   XY=             -0.5071   XZ=             -0.9230   YZ=             -1.0695

  Exact polarizability: 129.126   0.058 114.557  -0.976  -1.195  98.412
 Approx polarizability: 162.343  -0.592 162.055  -1.229  -1.971 155.399

                      1                      2                      3
                      A                      A                      A
 Frequencies --     86.8470               108.3204               146.3371
 Red. masses --      2.7994                 2.2373                 2.3963
 Frc consts  --      0.0124                 0.0155                 0.0302
 IR Inten    --      0.1144                 0.0104                 0.3259

                      4                      5                      6
                      A                      A                      A
 Frequencies --    176.8678               210.7762               225.9252
 Red. masses --      1.9190                 1.2485                 1.1399
 Frc consts  --      0.0354                 0.0327                 0.0343
 IR Inten    --      0.5359                 0.1505                 0.0145

                      7                      8                      9
                      A                      A                      A
 Frequencies --    237.8304               251.9383               276.1067
 Red. masses --      1.3571                 2.0275                 1.9828
 Frc consts  --      0.0452                 0.0758                 0.0891
 IR Inten    --      0.6489                 1.4390                 0.0332

                     10                     11                     12
                      A                      A                      A
 Frequencies --    280.3268               289.6557               337.2178
 Red. masses --      2.4711                 2.5808                 2.0810
 Frc consts  --      0.1144                 0.1276                 0.1394
 IR Inten    --      0.6871                 0.3070                 0.7577

                     13                     14                     15
                      A                      A                      A
 Frequencies --    362.5251               394.5222               408.5414
 Red. masses --      1.9845                 2.0732                 2.5864
 Frc consts  --      0.1537                 0.1901                 0.2543
 IR Inten    --      0.5571                 0.2448                 0.2394

                     16                     17                     18
                      A                      A                      A
 Frequencies --    464.1575               506.9358               534.7234
 Red. masses --      2.2185                 2.4019                 3.5061
 Frc consts  --      0.2816                 0.3637                 0.5907
 IR Inten    --      4.1521                 2.3532                 0.4767

                     19                     20                     21
                      A                      A                      A
 Frequencies --    621.8268               668.0273               763.1783
 Red. masses --      2.3452                 1.9759                 2.3431
 Frc consts  --      0.5343                 0.5195                 0.8041
 IR Inten    --      1.6810                 2.2448                 3.6069

                     22                     23                     24
                      A                      A                      A
 Frequencies --    799.7155               819.3362               863.8693
 Red. masses --      1.7662                 1.8106                 1.8193
 Frc consts  --      0.6655                 0.7161                 0.7999
 IR Inten    --      1.5289                 0.9671                 0.0150

                     25                     26                     27
                      A                      A                      A
 Frequencies --    902.9595               919.7249               949.3867
 Red. masses --      1.8932                 2.0186                 1.9687
 Frc consts  --      0.9094                 1.0060                 1.0455
 IR Inten    --      5.1121                 1.1971                 2.6406

                     28                     29                     30
                      A                      A                      A
 Frequencies --    955.8024               991.2357              1009.5111
 Red. masses --      1.6862                 1.7455                 2.0534
 Frc consts  --      0.9076                 1.0105                 1.2330
 IR Inten    --      0.3107                 4.1549                 1.3175

                     31                     32                     33
                      A                      A                      A
 Frequencies --   1037.4166              1050.7194              1068.6451
 Red. masses --      1.6641                 1.6806                 1.7641
 Frc consts  --      1.0552                 1.0932                 1.1870
 IR Inten    --      4.6522                 7.7227                11.8959

                     34                     35                     36
                      A                      A                      A
 Frequencies --   1080.0998              1107.7144              1129.5979
 Red. masses --      2.5543                 2.4382                 1.6715
 Frc consts  --      1.7557                 1.7627                 1.2566
 IR Inten    --     18.1549                 1.4880                12.7803

                     37                     38                     39
                      A                      A                      A
 Frequencies --   1152.0653              1161.6592              1167.8344
 Red. masses --      1.8323                 1.8225                 1.7810
 Frc consts  --      1.4329                 1.4490                 1.4311
 IR Inten    --      4.0165                 5.6705                 0.4309

                     40                     41                     42
                      A                      A                      A
 Frequencies --   1190.8460              1208.3154              1240.1401
 Red. masses --      2.4529                 1.5320                 1.5825
 Frc consts  --      2.0495                 1.3179                 1.4339
 IR Inten    --     29.7658                 3.2063                 6.5867

                     43                     44                     45
                      A                      A                      A
 Frequencies --   1257.4317              1295.7075              1300.4975
 Red. masses --      1.2349                 1.5037                 1.3505
 Frc consts  --      1.1504                 1.4874                 1.3457
 IR Inten    --      2.2281                12.4577                 2.6091

                     46                     47                     48
                      A                      A                      A
 Frequencies --   1322.1404              1335.1784              1349.7830
 Red. masses --      1.4076                 1.1702                 1.3276
 Frc consts  --      1.4497                 1.2291                 1.4251
 IR Inten    --     22.7413                 0.9679                 0.7499

                     49                     50                     51
                      A                      A                      A
 Frequencies --   1365.9745              1372.5476              1383.1304
 Red. masses --      1.3073                 1.3156                 1.3035
 Frc consts  --      1.4372                 1.4603                 1.4692
 IR Inten    --      3.1861                 3.7829                 4.8191

                     52                     53                     54
                      A                      A                      A
 Frequencies --   1402.0360              1402.5874              1404.7150
 Red. masses --      1.2977                 1.3132                 1.2977
 Frc consts  --      1.5030                 1.5221                 1.5087
 IR Inten    --      5.5215                 1.4388                10.0411

                     55                     56                     57
                      A                      A                      A
 Frequencies --   1408.8274              1420.5166              1427.4277
 Red. masses --      1.3084                 1.2852                 1.3075
 Frc consts  --      1.5301                 1.5280                 1.5696
 IR Inten    --      4.0065                16.8047                 5.0656

                     58                     59                     60
                      A                      A                      A
 Frequencies --   1464.7385              1472.6388              1482.3855
 Red. masses --      1.1606                 1.0747                 1.0756
 Frc consts  --      1.4671                 1.3732                 1.3927
 IR Inten    --      1.1191                 1.1027                 7.9226

                     61                     62                     63
                      A                      A                      A
 Frequencies --   1485.3595              1487.0532              1493.2222
 Red. masses --      1.0632                 1.0796                 1.0647
 Frc consts  --      1.3821                 1.4066                 1.3987
 IR Inten    --      8.8856                 3.9086                 3.1571

                     64                     65                     66
                      A                      A                      A
 Frequencies --   1498.2704              1501.8789              1503.9226
 Red. masses --      1.0465                 1.0630                 1.0599
 Frc consts  --      1.3841                 1.4127                 1.4124
 IR Inten    --      4.5822                 1.6478                 4.7175

                     67                     68                     69
                      A                      A                      A
 Frequencies --   1508.6513              1515.1915              1522.2927
 Red. masses --      1.0818                 1.0841                 1.0636
 Frc consts  --      1.4506                 1.4663                 1.4521
 IR Inten    --      1.3251                 9.3479                 4.0349

                     70                     71                     72
                      A                      A                      A
 Frequencies --   2927.8957              2938.5079              2994.6937
 Red. masses --      1.0620                 1.0717                 1.0796
 Frc consts  --      5.3641                 5.4524                 5.7045
 IR Inten    --     60.7699                80.9267                12.0864

                     73                     74                     75
                      A                      A                      A
 Frequencies --   3000.1693              3003.4363              3021.6716
 Red. masses --      1.0648                 1.0600                 1.0482
 Frc consts  --      5.6471                 5.6335                 5.6390
 IR Inten    --     15.7968                31.3675                21.4476

                     76                     77                     78
                      A                      A                      A
 Frequencies --   3024.8658              3030.2329              3032.4059
 Red. masses --      1.0766                 1.0729                 1.0912
 Frc consts  --      5.8041                 5.8043                 5.9121
 IR Inten    --     35.3060                44.6512                12.3380

                     79                     80                     81
                      A                      A                      A
 Frequencies --   3034.5532              3040.8864              3043.9385
 Red. masses --      1.0769                 1.0463                 1.0704
 Frc consts  --      5.8426                 5.7005                 5.8434
 IR Inten    --     34.0667                20.1570                42.3132

                     82                     83                     84
                      A                      A                      A
 Frequencies --   3048.3681              3062.6952              3085.9401
 Red. masses --      1.0852                 1.0834                 1.0949
 Frc consts  --      5.9414                 5.9877                 6.1435
 IR Inten    --     48.5923                42.4198                 8.4592

                     85                     86                     87
                      A                      A                      A
 Frequencies --   3089.0698              3089.4156              3096.0225
 Red. masses --      1.1007                 1.1001                 1.1013
 Frc consts  --      6.1884                 6.1863                 6.2197
 IR Inten    --     39.0572                53.1348                38.8162

                     88                     89                     90
                      A                      A                      A
 Frequencies --   3102.5930              3103.4431              3121.4304
 Red. masses --      1.0979                 1.0920                 1.0996
 Frc consts  --      6.2269                 6.1968                 6.3126
 IR Inten    --     46.1112                28.6490                33.6635

 - Thermochemistry -
 -------------------
 Temperature   298.150 Kelvin.  Pressure   1.00000 Atm.
 Atom     1 has atomic number  6 and mass  12.00000

 Molecular mass:   155.16740 amu.
 Principal axes and moments of inertia in atomic units:
                           1         2         3
     Eigenvalues --  1122.683372220.418352759.11333
           X            0.99999  -0.00067  -0.00396
           Y            0.00069   0.99999   0.00490
           Z            0.00396  -0.00490   0.99998
 This molecule is an asymmetric top.
 Rotational symmetry number  1.
 Warning -- assumption of classical behavior for rotation
           may cause significant error
 Rotational temperatures (Kelvin)      0.07715     0.03901     0.03139
 Rotational constants (GHZ):           1.60752     0.81279     0.65410
 Zero-point vibrational energy     786159.0 (Joules/Mol)
                                  187.89651 (Kcal/Mol)
 Warning -- explicit consideration of  18 degrees of freedom as
           vibrations may cause significant error
 Vibrational temperatures:    124.95   155.85   210.55   254.47   303.26
          (Kelvin)            325.06   342.18   362.48   397.26   403.33
                              416.75   485.18   521.59   567.63   587.80
                              667.82   729.37   769.35   894.67   961.14
                             1098.04  1150.61  1178.84  1242.92  1299.16
                             1323.28  1365.96  1375.19  1426.17  1452.46
                             1492.61  1511.75  1537.54  1554.02  1593.75
                             1625.24  1657.57  1671.37  1680.25  1713.36
                             1738.50  1784.29  1809.16  1864.23  1871.13
                             1902.27  1921.02  1942.04  1965.33  1974.79
                             1990.02  2017.22  2018.01  2021.07  2026.99
                             2043.81  2053.75  2107.43  2118.80  2132.82
                             2137.10  2139.54  2148.41  2155.68  2160.87
                             2163.81  2170.61  2180.02  2190.24  4212.59
                             4227.86  4308.70  4316.57  4321.27  4347.51
                             4352.11  4359.83  4362.96  4366.05  4375.16
                             4379.55  4385.92  4406.54  4439.98  4444.48
                             4444.98  4454.49  4463.94  4465.16  4491.04

 Zero-point correction=                           0.299432 (Hartree/Particle)
 Thermal correction to Energy=                    0.311690
 Thermal correction to Enthalpy=                  0.312634
 Thermal correction to Gibbs Free Energy=         0.262697
 Sum of electronic and zero-point Energies=           -448.180687
 Sum of electronic and thermal Energies=              -448.168430
 Sum of electronic and thermal Enthalpies=            -448.167486
 Sum of electronic and thermal Free Energies=         -448.217422

                     E (Thermal)             CV                S
                      KCal/Mol        Cal/Mol-Kelvin    Cal/Mol-Kelvin
 Total                  195.588             48.578            105.101
 Electronic               0.000              0.000              0.000
 Translational            0.889              2.981             41.028
 Rotational               0.889              2.981             30.310
 Vibrational            193.811             42.616             33.763
 Vibration     1          0.601              1.958              3.730
 Vibration     2          0.606              1.943              3.299
 Vibration     3          0.617              1.907              2.719
 Vibration     4          0.628              1.871              2.361
 Vibration     5          0.643              1.824              2.037
 Vibration     6          0.650              1.802              1.911
 Vibration     7          0.656              1.783              1.819
 Vibration     8          0.664              1.760              1.717
 Vibration     9          0.678              1.718              1.558
 Vibration    10          0.680              1.710              1.532
 Vibration    11          0.686              1.693              1.476
 Vibration    12          0.718              1.601              1.225
 Vibration    13          0.736              1.549              1.111
 Vibration    14          0.761              1.482              0.983
 Vibration    15          0.773              1.452              0.932
 Vibration    16          0.822              1.330              0.754
 Vibration    17          0.862              1.235              0.641
 Vibration    18          0.890              1.173              0.577

                           ! Non-Optimized Parameters !
 Normal termination of Gaussian 16 at Mon May 22 08:39:11 2023.
