 Gaussian 16, Revision A.03,
 Gaussian 16:  ES64L-G16RevA.03 25-Dec-2016

 -----------------------------
 # opt freq b3lyp/6-31g(2df,p)
 -----------------------------

 -------------------
 Title Card Required
 -------------------
 Symbolic Z-matrix:
 Charge =  0 Multiplicity = 1

 SCF Done:  E(RB3LYP) =  -509.820617597     A.U. after   13 cycles
 SCF Done:  E(RB3LYP) =  -509.839748794     A.U. after   11 cycles
 SCF Done:  E(RB3LYP) =  -509.845265566     A.U. after   11 cycles
 SCF Done:  E(RB3LYP) =  -509.849851919     A.U. after   10 cycles
 SCF Done:  E(RB3LYP) =  -509.851918795     A.U. after   10 cycles
 SCF Done:  E(RB3LYP) =  -509.853850521     A.U. after   10 cycles
 SCF Done:  E(RB3LYP) =  -509.855277862     A.U. after   10 cycles
 SCF Done:  E(RB3LYP) =  -509.857034719     A.U. after   10 cycles
 SCF Done:  E(RB3LYP) =  -509.857443931     A.U. after   10 cycles
 SCF Done:  E(RB3LYP) =  -509.857507262     A.U. after   10 cycles
 SCF Done:  E(RB3LYP) =  -509.857843905     A.U. after    8 cycles
 SCF Done:  E(RB3LYP) =  -509.857911376     A.U. after    9 cycles
 SCF Done:  E(RB3LYP) =  -509.857933645     A.U. after    8 cycles
 SCF Done:  E(RB3LYP) =  -509.857939199     A.U. after    8 cycles
 SCF Done:  E(RB3LYP) =  -509.857940140     A.U. after    6 cycles
 SCF Done:  E(RB3LYP) =  -509.857940737     A.U. after    6 cycles
 SCF Done:  E(RB3LYP) =  -509.857940754     A.U. after    5 cycles
 SCF Done:  E(RB3LYP) =  -509.857940722     A.U. after    5 cycles
 SCF Done:  E(RB3LYP) =  -509.857940731     A.U. after    5 cycles
 Optimization completed.
    -- Stationary point found.
 Normal termination of Gaussian 16 at Wed May 24 09:12:41 2023.

 ----------------------------------------------------------------------
 #N Geom=AllCheck Guess=TCheck SCRF=Check GenChk RB3LYP/6-31G(2df,p) Fr
 eq
 ----------------------------------------------------------------------

 Structure from the checkpoint file:  "CC1dCCCCqCrCCqCrCCC1.chk"
 -------------------
 Title Card Required
 -------------------
 Charge =  0 Multiplicity = 1

                         Standard orientation:
 ---------------------------------------------------------------------
 Center     Atomic      Atomic             Coordinates (Angstroms)
 Number     Number       Type             X           Y           Z
 ---------------------------------------------------------------------
      1          6           0       -1.305638    1.691363    1.609287
      2          6           0       -1.234380    1.486806    0.116033
      3          6           0       -0.208449    1.863344   -0.656108
      4          6           0        1.164409    2.299555   -0.239127
      5          6           0        2.217688    1.188441   -0.496227
      6          6           0        1.848943   -0.189119    0.106962
      7          6           0        3.122249   -0.972768    0.463681
      8          6           0        0.943725   -1.007961   -0.854822
      9          6           0       -0.144025   -1.977047   -0.271003
     10          6           0       -0.149872   -2.139568    1.256165
     11          6           0       -1.578828   -1.723423   -0.828631
     12          6           0       -2.547265   -0.719134   -0.154786
     13          6           0       -2.425852    0.788330   -0.497553
     14          1           0       -0.417862    2.174880    2.019244
     15          1           0       -1.451458    0.748882    2.149469
     16          1           0       -2.171256    2.320246    1.857336
     17          1           0       -0.323642    1.718893   -1.731025
     18          1           0        1.188339    2.561394    0.823365
     19          1           0        1.468307    3.200459   -0.788441
     20          1           0        3.172945    1.530432   -0.078990
     21          1           0        2.383005    1.077404   -1.576482
     22          1           0        1.304142    0.002939    1.037751
     23          1           0        3.754916   -1.106032   -0.422529
     24          1           0        2.891544   -1.970201    0.851485
     25          1           0        3.716967   -0.449054    1.220122
     26          1           0        1.612392   -1.596567   -1.496790
     27          1           0        0.440846   -0.319628   -1.532139
     28          1           0        0.111197   -2.969057   -0.664376
     29          1           0       -0.380437   -1.209180    1.781480
     30          1           0        0.816081   -2.493832    1.627466
     31          1           0       -0.903843   -2.877223    1.553561
     32          1           0       -2.092517   -2.693094   -0.788119
     33          1           0       -1.500956   -1.481847   -1.897242
     34          1           0       -2.525434   -0.853504    0.932566
     35          1           0       -3.557947   -1.020739   -0.457280
     36          1           0       -3.352713    1.271142   -0.155596
     37          1           0       -2.398853    0.900378   -1.588068
 ---------------------------------------------------------------------

 SCF Done:  E(RB3LYP) =  -509.857940731     A.U. after    1 cycles

 The electronic state is 1-A.
 Alpha  occ. eigenvalues --  -10.17991 -10.17791 -10.17634 -10.17606 -10.17584
 Alpha  occ. eigenvalues --  -10.17522 -10.17424 -10.17278 -10.17237 -10.16619
 Alpha  occ. eigenvalues --  -10.16584 -10.16515 -10.16337  -0.82360  -0.79703
 Alpha  occ. eigenvalues --   -0.78901  -0.73540  -0.72810  -0.67980  -0.67487
 Alpha  occ. eigenvalues --   -0.66318  -0.61068  -0.60237  -0.54817  -0.52845
 Alpha  occ. eigenvalues --   -0.50927  -0.47101  -0.46641  -0.44487  -0.43556
 Alpha  occ. eigenvalues --   -0.42801  -0.42138  -0.41566  -0.40396  -0.39479
 Alpha  occ. eigenvalues --   -0.38936  -0.37739  -0.37444  -0.36482  -0.36257
 Alpha  occ. eigenvalues --   -0.34484  -0.34293  -0.33719  -0.32759  -0.32112
 Alpha  occ. eigenvalues --   -0.31647  -0.30946  -0.30170  -0.28840  -0.28322
 Alpha  occ. eigenvalues --   -0.22235
 Alpha virt. eigenvalues --    0.02984   0.07181   0.09211   0.10273   0.10736
 Alpha virt. eigenvalues --    0.12002   0.12806   0.13554   0.13965   0.14381
 Alpha virt. eigenvalues --    0.15227   0.15666   0.15796   0.16770   0.17154

 Mulliken charges:
               1
     1  C   -0.487608
     2  C    0.332168
     3  C   -0.137495
     4  C   -0.270014
     5  C   -0.204162
     6  C    0.075120
     7  C   -0.406868
     8  C   -0.210658
     9  C    0.050073
    10  C   -0.415407
    11  C   -0.202622
    12  C   -0.187654
    13  C   -0.278276
    14  H    0.122027
    15  H    0.127283
    16  H    0.120414
    17  H    0.073687
    18  H    0.095563
    19  H    0.095067
    20  H    0.086471
    21  H    0.091711
    22  H    0.071195
    23  H    0.110100
    24  H    0.110690
    25  H    0.105545
    26  H    0.080251
    27  H    0.090069
    28  H    0.071543
    29  H    0.128164
    30  H    0.113478
    31  H    0.103708
    32  H    0.089606
    33  H    0.087426
    34  H    0.095842
    35  H    0.092340
    36  H    0.088876
    37  H    0.092347
 Sum of Mulliken charges =  -0.00000

 Dipole moment (field-independent basis, Debye):
    X=             -0.1649    Y=             -0.1258    Z=              0.1573  Tot=              0.2604
 Quadrupole moment (field-independent basis, Debye-Ang):
   XX=            -84.3363   YY=            -85.4295   ZZ=            -83.8431
   XY=              1.0512   XZ=             -0.4382   YZ=              0.6848

  Exact polarizability: 156.868   6.462 135.027  -5.016  -0.478 121.776
 Approx polarizability: 214.504  11.532 187.768 -14.784  -2.952 198.209

                      1                      2                      3
                      A                      A                      A
 Frequencies --     41.9565                96.0936               106.3414
 Red. masses --      2.8262                 1.9860                 2.9305
 Frc consts  --      0.0029                 0.0108                 0.0195
 IR Inten    --      0.0231                 0.1498                 0.0206

                      4                      5                      6
                      A                      A                      A
 Frequencies --    147.2462               161.8728               175.7701
 Red. masses --      1.2966                 2.4581                 2.5314
 Frc consts  --      0.0166                 0.0379                 0.0461
 IR Inten    --      0.2974                 0.0080                 0.0746

                      7                      8                      9
                      A                      A                      A
 Frequencies --    206.4765               235.6116               256.3214
 Red. masses --      2.6184                 1.4031                 1.7429
 Frc consts  --      0.0658                 0.0459                 0.0675
 IR Inten    --      0.0393                 0.0172                 0.0489

                     10                     11                     12
                      A                      A                      A
 Frequencies --    264.1587               280.8455               297.9225
 Red. masses --      2.3795                 1.6897                 1.4565
 Frc consts  --      0.0978                 0.0785                 0.0762
 IR Inten    --      0.6771                 0.2594                 0.0453

                     13                     14                     15
                      A                      A                      A
 Frequencies --    319.4228               332.0762               360.1677
 Red. masses --      2.0019                 2.3084                 2.1671
 Frc consts  --      0.1203                 0.1500                 0.1656
 IR Inten    --      0.1233                 0.1515                 0.2259

                     16                     17                     18
                      A                      A                      A
 Frequencies --    392.5709               393.4346               428.7216
 Red. masses --      2.7307                 2.1294                 1.8889
 Frc consts  --      0.2479                 0.1942                 0.2046
 IR Inten    --      0.3849                 0.2173                 0.1393

                     19                     20                     21
                      A                      A                      A
 Frequencies --    470.7073               497.0195               524.8071
 Red. masses --      2.5477                 2.8526                 2.0653
 Frc consts  --      0.3326                 0.4152                 0.3351
 IR Inten    --      0.4804                 3.3444                 1.8652

                     22                     23                     24
                      A                      A                      A
 Frequencies --    539.0067               567.8904               701.8185
 Red. masses --      1.9181                 2.2882                 2.7332
 Frc consts  --      0.3283                 0.4348                 0.7932
 IR Inten    --      0.4631                 4.1969                 0.4350

                     25                     26                     27
                      A                      A                      A
 Frequencies --    767.9988               808.5883               828.8299
 Red. masses --      2.8582                 2.3057                 1.6903
 Frc consts  --      0.9933                 0.8882                 0.6842
 IR Inten    --      0.5536                 0.8792                 0.4605

                     28                     29                     30
                      A                      A                      A
 Frequencies --    840.9928               850.9401               883.0788
 Red. masses --      2.0821                 1.5321                 1.6841
 Frc consts  --      0.8676                 0.6536                 0.7738
 IR Inten    --      1.2324                 1.7951                 2.0272

                     31                     32                     33
                      A                      A                      A
 Frequencies --    904.1365               924.8002               932.0521
 Red. masses --      1.9874                 1.9090                 1.5781
 Frc consts  --      0.9572                 0.9620                 0.8077
 IR Inten    --      1.2140                 2.3077                 9.3011

                     34                     35                     36
                      A                      A                      A
 Frequencies --    950.0675               960.6934               997.0731
 Red. masses --      1.9792                 1.5465                 1.7430
 Frc consts  --      1.0526                 0.8409                 1.0210
 IR Inten    --      0.6794                 1.4595                 2.2799

                     37                     38                     39
                      A                      A                      A
 Frequencies --   1004.6342              1014.9223              1024.0581
 Red. masses --      1.7164                 2.2909                 1.8785
 Frc consts  --      1.0207                 1.3903                 1.1607
 IR Inten    --      2.9005                 0.5560                 1.6910

                     40                     41                     42
                      A                      A                      A
 Frequencies --   1048.2847              1065.9403              1070.3676
 Red. masses --      1.7728                 1.5265                 1.8487
 Frc consts  --      1.1478                 1.0219                 1.2479
 IR Inten    --      2.9628                 1.9173                 1.1941

                     43                     44                     45
                      A                      A                      A
 Frequencies --   1098.8847              1112.9958              1142.8148
 Red. masses --      2.4789                 1.9808                 2.0202
 Frc consts  --      1.7636                 1.4457                 1.5546
 IR Inten    --      2.2067                 0.8228                 1.4327

                     46                     47                     48
                      A                      A                      A
 Frequencies --   1148.0121              1153.3988              1188.3964
 Red. masses --      1.6271                 2.1414                 1.7215
 Frc consts  --      1.2635                 1.6784                 1.4324
 IR Inten    --      8.0656                 3.7586                 2.1914

                     49                     50                     51
                      A                      A                      A
 Frequencies --   1208.2791              1242.9709              1250.3148
 Red. masses --      1.5773                 1.3484                 1.5562
 Frc consts  --      1.3567                 1.2274                 1.4334
 IR Inten    --      0.3886                 3.2916                 2.4165

                     52                     53                     54
                      A                      A                      A
 Frequencies --   1259.4952              1284.2102              1303.8590
 Red. masses --      1.1443                 1.1766                 1.1633
 Frc consts  --      1.0696                 1.1433                 1.1652
 IR Inten    --      0.1139                 0.8284                 0.4464

                     55                     56                     57
                      A                      A                      A
 Frequencies --   1317.8363              1334.5524              1345.2908
 Red. masses --      1.2413                 1.3139                 1.2542
 Frc consts  --      1.2701                 1.3788                 1.3374
 IR Inten    --      0.2236                 5.1091                 0.3625

                     58                     59                     60
                      A                      A                      A
 Frequencies --   1352.0026              1360.2213              1372.9866
 Red. masses --      1.3043                 1.3174                 1.3138
 Frc consts  --      1.4047                 1.4361                 1.4592
 IR Inten    --      0.8202                 1.1334                 0.6454

                     61                     62                     63
                      A                      A                      A
 Frequencies --   1382.0709              1384.7121              1390.1002
 Red. masses --      1.3363                 1.3362                 1.2867
 Frc consts  --      1.5038                 1.5095                 1.4649
 IR Inten    --      0.1831                 2.8527                 5.9106

                     64                     65                     66
                      A                      A                      A
 Frequencies --   1398.2734              1400.3905              1412.1480
 Red. masses --      1.2865                 1.3048                 1.2351
 Frc consts  --      1.4820                 1.5076                 1.4511
 IR Inten    --      2.8948                 3.6860                 4.2465

                     67                     68                     69
                      A                      A                      A
 Frequencies --   1413.1458              1419.9743              1471.9277
 Red. masses --      1.3442                 1.3618                 1.0692
 Frc consts  --      1.5815                 1.6178                 1.3648
 IR Inten    --      1.8215                 7.9329                 1.0067

                     70                     71                     72
                      A                      A                      A
 Frequencies --   1477.3372              1479.4980              1486.2201
 Red. masses --      1.0812                 1.0892                 1.0905
 Frc consts  --      1.3904                 1.4047                 1.4193
 IR Inten    --      3.1170                 4.4541                 7.5862

                     73                     74                     75
                      A                      A                      A
 Frequencies --   1487.5523              1488.8820              1492.9980
 Red. masses --      1.0651                 1.0775                 1.0687
 Frc consts  --      1.3886                 1.4073                 1.4036
 IR Inten    --      5.9962                 1.4936                 0.6997

                     76                     77                     78
                      A                      A                      A
 Frequencies --   1497.2807              1498.4733              1499.6043
 Red. masses --      1.0582                 1.0657                 1.0779
 Frc consts  --      1.3977                 1.4099                 1.4282
 IR Inten    --      3.5247                 4.8162                 6.5818

                     79                     80                     81
                      A                      A                      A
 Frequencies --   1505.7717              1512.1623              1735.7440
 Red. masses --      1.0537                 1.0562                 6.8648
 Frc consts  --      1.4076                 1.4229                12.1857
 IR Inten    --      2.3654                 2.0173                 1.0377

                     82                     83                     84
                      A                      A                      A
 Frequencies --   2991.7677              2995.9381              3006.5354
 Red. masses --      1.0758                 1.0651                 1.0669
 Frc consts  --      5.6735                 5.6325                 5.6819
 IR Inten    --      5.1428                28.5166                12.9138

                     85                     86                     87
                      A                      A                      A
 Frequencies --   3008.6870              3018.6595              3020.1630
 Red. masses --      1.0615                 1.0523                 1.0463
 Frc consts  --      5.6616                 5.6498                 5.6231
 IR Inten    --      8.8322                40.0020                15.0188

                     88                     89                     90
                      A                      A                      A
 Frequencies --   3021.9460              3024.0287              3026.2535
 Red. masses --      1.0560                 1.0678                 1.0680
 Frc consts  --      5.6816                 5.7535                 5.7628
 IR Inten    --     46.8498                99.2160                29.2671

                     91                     92                     93
                      A                      A                      A
 Frequencies --   3036.4551              3041.9576              3042.6241
 Red. masses --      1.0474                 1.0868                 1.0900
 Frc consts  --      5.6895                 5.9251                 5.9453
 IR Inten    --      7.0655                16.6039                81.9856

                     94                     95                     96
                      A                      A                      A
 Frequencies --   3048.8296              3049.2289              3064.5076
 Red. masses --      1.0982                 1.0953                 1.0948
 Frc consts  --      6.0144                 6.0003                 6.0576
 IR Inten    --     14.1115                13.0764                23.0578

                     97                     98                     99
                      A                      A                      A
 Frequencies --   3071.4473              3075.5503              3086.6390
 Red. masses --      1.0934                 1.0945                 1.0995
 Frc consts  --      6.0776                 6.0997                 6.1719
 IR Inten    --     42.0553                28.5571                47.8292

                    100                    101                    102
                      A                      A                      A
 Frequencies --   3094.7357              3099.3633              3110.1732
 Red. masses --      1.1002                 1.0976                 1.0878
 Frc consts  --      6.2081                 6.2123                 6.1994
 IR Inten    --     62.1861                 5.6819                25.1900

                    103                    104                    105
                      A                      A                      A
 Frequencies --   3117.2975              3126.5432              3131.6334
 Red. masses --      1.0991                 1.0859                 1.0950
 Frc consts  --      6.2926                 6.2544                 6.3270
 IR Inten    --     39.4247                28.4490                24.2014

 - Thermochemistry -
 -------------------
 Temperature   298.150 Kelvin.  Pressure   1.00000 Atm.
 Atom     1 has atomic number  6 and mass  12.00000

 Molecular mass:   180.18780 amu.
 Principal axes and moments of inertia in atomic units:
                           1         2         3
     Eigenvalues --  2019.682932503.922323618.97631
           X            0.99996   0.00902  -0.00143
           Y           -0.00902   0.99996   0.00139
           Z            0.00145  -0.00138   1.00000
 This molecule is an asymmetric top.
 Rotational symmetry number  1.
 Warning -- assumption of classical behavior for rotation
           may cause significant error
 Rotational temperatures (Kelvin)      0.04288     0.03459     0.02393
 Rotational constants (GHZ):           0.89358     0.72077     0.49869
 Zero-point vibrational energy     904959.8 (Joules/Mol)
                                  216.29059 (Kcal/Mol)
 Warning -- explicit consideration of  23 degrees of freedom as
           vibrations may cause significant error
 Vibrational temperatures:     60.37   138.26   153.00   211.85   232.90
          (Kelvin)            252.89   297.07   338.99   368.79   380.07
                              404.07   428.64   459.58   477.78   518.20
                              564.82   566.06   616.83   677.24   715.10
                              755.08   775.51   817.07  1009.76  1104.98
                             1163.38  1192.50  1210.00  1224.31  1270.55
                             1300.85  1330.58  1341.02  1366.94  1382.22
                             1434.57  1445.44  1460.25  1473.39  1508.25
                             1533.65  1540.02  1581.05  1601.35  1644.26
                             1651.73  1659.48  1709.84  1738.44  1788.36
                             1798.92  1812.13  1847.69  1875.96  1896.07
                             1920.12  1935.57  1945.23  1957.06  1975.42
                             1988.49  1992.29  2000.04  2011.80  2014.85
                             2031.77  2033.20  2043.03  2117.78  2125.56
                             2128.67  2138.34  2140.26  2142.17  2148.09
                             2154.25  2155.97  2157.60  2166.47  2175.66
                             2497.35  4304.49  4310.49  4325.73  4328.83
                             4343.18  4345.34  4347.91  4350.90  4354.10
                             4368.78  4376.70  4377.66  4386.59  4387.16
                             4409.14  4419.13  4425.03  4440.99  4452.63
                             4459.29  4474.85  4485.10  4498.40  4505.72

 Zero-point correction=                           0.344681 (Hartree/Particle)
 Thermal correction to Energy=                    0.359058
 Thermal correction to Enthalpy=                  0.360002
 Thermal correction to Gibbs Free Energy=         0.305011
 Sum of electronic and zero-point Energies=           -509.513260
 Sum of electronic and thermal Energies=              -509.498883
 Sum of electronic and thermal Enthalpies=            -509.497939
 Sum of electronic and thermal Free Energies=         -509.552929

                     E (Thermal)             CV                S
                      KCal/Mol        Cal/Mol-Kelvin    Cal/Mol-Kelvin
 Total                  225.312             57.429            115.737
 Electronic               0.000              0.000              0.000
 Translational            0.889              2.981             41.473
 Rotational               0.889              2.981             31.282
 Vibrational            223.535             51.467             42.982
 Vibration     1          0.595              1.980              5.164
 Vibration     2          0.603              1.952              3.532
 Vibration     3          0.605              1.944              3.335
 Vibration     4          0.617              1.906              2.708
 Vibration     5          0.622              1.889              2.528
 Vibration     6          0.628              1.872              2.373
 Vibration     7          0.641              1.831              2.075
 Vibration     8          0.655              1.786              1.836
 Vibration     9          0.666              1.752              1.687
 Vibration    10          0.671              1.739              1.634
 Vibration    11          0.681              1.709              1.529
 Vibration    12          0.691              1.678              1.429
 Vibration    13          0.705              1.636              1.313
 Vibration    14          0.714              1.611              1.250
 Vibration    15          0.735              1.554              1.121
 Vibration    16          0.760              1.486              0.990
 Vibration    17          0.761              1.484              0.987
 Vibration    18          0.790              1.408              0.863
 Vibration    19          0.828              1.315              0.736
 Vibration    20          0.853              1.257              0.666
 Vibration    21          0.880              1.195              0.599
 Vibration    22          0.894              1.164              0.567
 Vibration    23          0.924              1.101              0.508

 Optimization completed.
    -- Stationary point found.
 Normal termination of Gaussian 16 at Wed May 24 11:55:05 2023.
