 Gaussian 16, Revision A.03,
 Gaussian 16:  ES64L-G16RevA.03 25-Dec-2016

 -----------------------------
 # opt freq b3lyp/6-31g(2df,p)
 -----------------------------

 -------------------
 Title Card Required
 -------------------
 Symbolic Z-matrix:
 Charge =  0 Multiplicity = 1

 SCF Done:  E(RB3LYP) =  -617.138024045     A.U. after   13 cycles
 SCF Done:  E(RB3LYP) =  -617.150062434     A.U. after   12 cycles
 SCF Done:  E(RB3LYP) =  -617.152871704     A.U. after   10 cycles
 SCF Done:  E(RB3LYP) =  -617.153881383     A.U. after   11 cycles
 SCF Done:  E(RB3LYP) =  -617.155310772     A.U. after   11 cycles
 SCF Done:  E(RB3LYP) =  -617.157520915     A.U. after   11 cycles
 SCF Done:  E(RB3LYP) =  -617.158808731     A.U. after   10 cycles
 SCF Done:  E(RB3LYP) =  -617.162070777     A.U. after   11 cycles
 SCF Done:  E(RB3LYP) =  -617.163943433     A.U. after   11 cycles
 SCF Done:  E(RB3LYP) =  -617.166203375     A.U. after   11 cycles
 SCF Done:  E(RB3LYP) =  -617.167077147     A.U. after   11 cycles
 SCF Done:  E(RB3LYP) =  -617.167349533     A.U. after   10 cycles
 SCF Done:  E(RB3LYP) =  -617.167518827     A.U. after   10 cycles
 SCF Done:  E(RB3LYP) =  -617.167543662     A.U. after    9 cycles
 SCF Done:  E(RB3LYP) =  -617.167556767     A.U. after    8 cycles
 SCF Done:  E(RB3LYP) =  -617.167563280     A.U. after    9 cycles
 SCF Done:  E(RB3LYP) =  -617.167563792     A.U. after    7 cycles
 SCF Done:  E(RB3LYP) =  -617.167563938     A.U. after    6 cycles
 Optimization completed.
    -- Stationary point found.
 Normal termination of Gaussian 16 at Sun May 28 20:28:54 2023.

 ----------------------------------------------------------------------
 #N Geom=AllCheck Guess=TCheck SCRF=Check GenChk RB3LYP/6-31G(2df,p) Fr
 eq
 ----------------------------------------------------------------------

 Structure from the checkpoint file:  "CC1dCNCCqOCCCqCrCNrC1.chk"
 -------------------
 Title Card Required
 -------------------
 Charge =  0 Multiplicity = 1

                         Standard orientation:
 ---------------------------------------------------------------------
 Center     Atomic      Atomic             Coordinates (Angstroms)
 Number     Number       Type             X           Y           Z
 ---------------------------------------------------------------------
      1          6           0        5.026181   -1.596005    0.155527
      2          6           0        3.936432   -0.565978    0.070695
      3          6           0        4.190271    0.747555    0.146371
      4          7           0        3.210305    1.745245    0.117012
      5          6           0        1.931011    1.350028   -0.457814
      6          6           0        1.483135    0.031635    0.191904
      7          8           0        0.240403   -0.409696   -0.326511
      8          6           0       -0.903375    0.180121    0.264401
      9          6           0       -2.136840   -0.432382   -0.388950
     10          6           0       -3.470391   -0.003000    0.243661
     11          6           0       -3.729428    1.506015    0.131718
     12          6           0       -4.625648   -0.806852   -0.377868
     13          7           0       -5.890232   -0.554677    0.321408
     14          6           0        2.516170   -1.065572   -0.075772
     15          1           0        6.013504   -1.132908    0.246716
     16          1           0        5.041895   -2.241195   -0.734114
     17          1           0        4.889161   -2.264573    1.017169
     18          1           0        5.202962    1.115191    0.285448
     19          1           0        3.548580    2.634255   -0.220983
     20          1           0        1.987408    1.188737   -1.547401
     21          1           0        1.199347    2.141795   -0.270723
     22          1           0        1.401268    0.196951    1.277628
     23          1           0       -0.895295    1.272142    0.133230
     24          1           0       -0.909574   -0.014975    1.350949
     25          1           0       -2.032808   -1.522720   -0.331222
     26          1           0       -2.132393   -0.175978   -1.456587
     27          1           0       -3.435536   -0.265875    1.313272
     28          1           0       -3.647085    1.835003   -0.911848
     29          1           0       -3.017800    2.090589    0.722261
     30          1           0       -4.738585    1.737626    0.479478
     31          1           0       -4.341930   -1.873156   -0.402460
     32          1           0       -4.755482   -0.494745   -1.422605
     33          1           0       -5.863979   -0.986726    1.240990
     34          1           0       -6.655871   -0.998857   -0.175434
     35          1           0        2.339485   -1.467009   -1.084243
     36          1           0        2.333869   -1.903372    0.610387
 ---------------------------------------------------------------------

 SCF Done:  E(RB3LYP) =  -617.167563938     A.U. after    1 cycles

 The electronic state is 1-A.
 Alpha  occ. eigenvalues --  -19.13138 -14.32629 -14.30579 -10.22388 -10.22035
 Alpha  occ. eigenvalues --  -10.20285 -10.19947 -10.19245 -10.18234 -10.17290
 Alpha  occ. eigenvalues --  -10.17088 -10.16850 -10.16181 -10.16161  -1.02518
 Alpha  occ. eigenvalues --   -0.91870  -0.87668  -0.79884  -0.78449  -0.75392
 Alpha  occ. eigenvalues --   -0.70411  -0.68087  -0.66207  -0.63793  -0.61229
 Alpha  occ. eigenvalues --   -0.58247  -0.55764  -0.52000  -0.50830  -0.48514
 Alpha  occ. eigenvalues --   -0.47334  -0.47085  -0.45549  -0.44524  -0.43771
 Alpha  occ. eigenvalues --   -0.43313  -0.41575  -0.40160  -0.39929  -0.38969
 Alpha  occ. eigenvalues --   -0.38294  -0.37401  -0.37098  -0.36097  -0.34867
 Alpha  occ. eigenvalues --   -0.34010  -0.33212  -0.32375  -0.31822  -0.31189
 Alpha  occ. eigenvalues --   -0.30098  -0.29083  -0.24668  -0.23357  -0.18072
 Alpha virt. eigenvalues --    0.05297   0.07952   0.08552   0.09451   0.10482
 Alpha virt. eigenvalues --    0.11499   0.11706   0.12935   0.13557   0.14905
 Alpha virt. eigenvalues --    0.15973   0.16070   0.16320   0.16753   0.17115

 Mulliken charges:
               1
     1  C   -0.475799
     2  C    0.261175
     3  C   -0.082458
     4  N   -0.314187
     5  C   -0.187661
     6  C    0.127803
     7  O   -0.257157
     8  C   -0.078886
     9  C   -0.199906
    10  C    0.043763
    11  C   -0.385933
    12  C   -0.157926
    13  N   -0.508487
    14  C   -0.320945
    15  H    0.111287
    16  H    0.113569
    17  H    0.112222
    18  H    0.085754
    19  H    0.231349
    20  H    0.095557
    21  H    0.098363
    22  H    0.074836
    23  H    0.090571
    24  H    0.083840
    25  H    0.099686
    26  H    0.099212
    27  H    0.062982
    28  H    0.105058
    29  H    0.106541
    30  H    0.134574
    31  H    0.075925
    32  H    0.099298
    33  H    0.222406
    34  H    0.226192
    35  H    0.109683
    36  H    0.097697
 Sum of Mulliken charges =  -0.00000

 Dipole moment (field-independent basis, Debye):
    X=             -0.4101    Y=              0.1558    Z=             -0.0381  Tot=              0.4403
 Quadrupole moment (field-independent basis, Debye-Ang):
   XX=            -82.6068   YY=            -83.8545   ZZ=            -87.8452
   XY=             11.6366   XZ=             -1.8380   YZ=             -3.1070

  Exact polarizability: 173.287  -2.558 139.498   1.737  -0.654 105.156
 Approx polarizability: 193.591  -0.517 216.250   2.367   1.877 169.464

                      1                      2                      3
                      A                      A                      A
 Frequencies --     20.8715                29.9923                50.6530
 Red. masses --      2.7045                 4.0097                 3.9573
 Frc consts  --      0.0007                 0.0021                 0.0060
 IR Inten    --      0.9806                 0.3107                 0.1530

                      4                      5                      6
                      A                      A                      A
 Frequencies --     85.7916                98.0272               128.6153
 Red. masses --      3.0422                 2.0479                 2.3252
 Frc consts  --      0.0132                 0.0116                 0.0227
 IR Inten    --      0.7898                 1.3753                 1.8854

                      7                      8                      9
                      A                      A                      A
 Frequencies --    134.2385               160.0940               196.5287
 Red. masses --      2.7501                 2.3528                 3.1184
 Frc consts  --      0.0292                 0.0355                 0.0710
 IR Inten    --      0.8380                 1.7954                 2.9332

                     10                     11                     12
                      A                      A                      A
 Frequencies --    203.4437               231.8464               237.7760
 Red. masses --      1.2215                 1.1098                 2.2302
 Frc consts  --      0.0298                 0.0351                 0.0743
 IR Inten    --      0.4399                12.8143                 1.7323

                     13                     14                     15
                      A                      A                      A
 Frequencies --    252.3024               289.4702               311.9626
 Red. masses --      1.2529                 3.4234                 2.6852
 Frc consts  --      0.0470                 0.1690                 0.1540
 IR Inten    --     22.7511                 1.7449                 1.3108

                     16                     17                     18
                      A                      A                      A
 Frequencies --    323.8518               374.0151               401.7725
 Red. masses --      2.5227                 2.9792                 2.3915
 Frc consts  --      0.1559                 0.2455                 0.2274
 IR Inten    --      2.5256                 7.8073                10.5256

                     19                     20                     21
                      A                      A                      A
 Frequencies --    429.9435               436.8866               476.7075
 Red. masses --      2.6810                 2.5848                 3.1897
 Frc consts  --      0.2920                 0.2907                 0.4271
 IR Inten    --      6.1289                 1.1236                 8.0401

                     22                     23                     24
                      A                      A                      A
 Frequencies --    484.3529               530.8985               553.8665
 Red. masses --      2.5031                 2.9043                 2.0947
 Frc consts  --      0.3460                 0.4823                 0.3786
 IR Inten    --      3.1556                26.6720                73.6004

                     25                     26                     27
                      A                      A                      A
 Frequencies --    584.2710               717.1822               793.1792
 Red. masses --      2.6810                 2.6182                 1.2670
 Frc consts  --      0.5392                 0.7934                 0.4696
 IR Inten    --     36.2176                25.9931                 0.9667

                     28                     29                     30
                      A                      A                      A
 Frequencies --    822.0113               863.1299               873.0847
 Red. masses --      1.5783                 1.9549                 1.6272
 Frc consts  --      0.6283                 0.8581                 0.7308
 IR Inten    --     54.0038                 6.6837                45.0740

                     31                     32                     33
                      A                      A                      A
 Frequencies --    879.0003               906.4707               914.9794
 Red. masses --      1.7643                 1.3943                 1.5617
 Frc consts  --      0.8031                 0.6750                 0.7703
 IR Inten    --      2.5454                 7.3579                19.6013

                     34                     35                     36
                      A                      A                      A
 Frequencies --    938.2617               947.5796               974.7859
 Red. masses --      3.1082                 1.5004                 2.2221
 Frc consts  --      1.6122                 0.7938                 1.2440
 IR Inten    --      9.5354                 7.8385                 9.0626

                     37                     38                     39
                      A                      A                      A
 Frequencies --    992.6916              1027.8310              1044.9058
 Red. masses --      1.5487                 2.3617                 1.6369
 Frc consts  --      0.8992                 1.4700                 1.0530
 IR Inten    --     10.6667                 4.2742                 6.6315

                     40                     41                     42
                      A                      A                      A
 Frequencies --   1047.7940              1061.4406              1072.3057
 Red. masses --      1.4980                 2.1327                 1.7635
 Frc consts  --      0.9690                 1.4157                 1.1947
 IR Inten    --      1.1527                 9.2497                 7.9005

                     43                     44                     45
                      A                      A                      A
 Frequencies --   1093.5566              1099.2780              1131.6417
 Red. masses --      2.7831                 2.1280                 2.6040
 Frc consts  --      1.9610                 1.5151                 1.9648
 IR Inten    --      5.1274                 2.5473                51.8892

                     46                     47                     48
                      A                      A                      A
 Frequencies --   1141.3065              1152.3637              1177.1343
 Red. masses --      3.8230                 2.3253                 1.8604
 Frc consts  --      2.9340                 1.8193                 1.5189
 IR Inten    --    238.0982                 7.6381                 3.0007

                     49                     50                     51
                      A                      A                      A
 Frequencies --   1190.5323              1210.4231              1212.2095
 Red. masses --      1.3769                 1.7108                 1.8895
 Frc consts  --      1.1498                 1.4768                 1.6359
 IR Inten    --     31.2625                 5.0556                 5.8979

                     52                     53                     54
                      A                      A                      A
 Frequencies --   1219.4536              1254.5434              1272.4853
 Red. masses --      2.5682                 1.3437                 1.2592
 Frc consts  --      2.2501                 1.2460                 1.2013
 IR Inten    --     54.7918                 1.1838                 5.9474

                     55                     56                     57
                      A                      A                      A
 Frequencies --   1293.7935              1296.8615              1315.4639
 Red. masses --      1.2180                 1.2407                 1.1369
 Frc consts  --      1.2012                 1.2295                 1.1591
 IR Inten    --     19.1108                12.2519                 0.3624

                     58                     59                     60
                      A                      A                      A
 Frequencies --   1324.5595              1333.5824              1366.4946
 Red. masses --      1.2382                 1.3548                 1.3931
 Frc consts  --      1.2799                 1.4196                 1.5326
 IR Inten    --      2.6988                14.3103                 0.1924

                     61                     62                     63
                      A                      A                      A
 Frequencies --   1377.2853              1378.7101              1386.8162
 Red. masses --      1.3932                 1.3747                 1.6566
 Frc consts  --      1.5570                 1.5396                 1.8772
 IR Inten    --     19.3783                 6.6897                 2.9541

                     64                     65                     66
                      A                      A                      A
 Frequencies --   1397.7852              1402.2733              1418.7240
 Red. masses --      1.4088                 1.3854                 1.2715
 Frc consts  --      1.6217                 1.6050                 1.5078
 IR Inten    --     18.2896                 7.0398                 0.9518

                     67                     68                     69
                      A                      A                      A
 Frequencies --   1427.0972              1442.0032              1475.0821
 Red. masses --      1.3799                 1.4636                 1.0473
 Frc consts  --      1.6558                 1.7931                 1.3426
 IR Inten    --     12.9162                 7.0490                 5.7714

                     70                     71                     72
                      A                      A                      A
 Frequencies --   1480.3128              1487.7742              1493.0492
 Red. masses --      1.1843                 1.0864                 1.2913
 Frc consts  --      1.5290                 1.4168                 1.6960
 IR Inten    --      5.5949                 1.9594                21.3788

                     73                     74                     75
                      A                      A                      A
 Frequencies --   1493.7710              1498.2311              1507.8705
 Red. masses --      1.0877                 1.0635                 1.0736
 Frc consts  --      1.4299                 1.4065                 1.4382
 IR Inten    --      1.0359                 4.5010                 0.3356

                     76                     77                     78
                      A                      A                      A
 Frequencies --   1508.1655              1512.2765              1527.7937
 Red. masses --      1.0981                 1.0603                 1.0886
 Frc consts  --      1.4716                 1.4287                 1.4971
 IR Inten    --      2.6022                 5.9945                 4.9730

                     79                     80                     81
                      A                      A                      A
 Frequencies --   1657.9847              1747.9201              2945.3356
 Red. masses --      1.0891                 5.8791                 1.0715
 Frc consts  --      1.7639                10.5829                 5.4768
 IR Inten    --     21.6408                46.6302                64.5407

                     82                     83                     84
                      A                      A                      A
 Frequencies --   2952.1730              2961.1270              2974.1468
 Red. masses --      1.0647                 1.0709                 1.0801
 Frc consts  --      5.4671                 5.5324                 5.6289
 IR Inten    --     39.4179                24.3203                17.7824

                     85                     86                     87
                      A                      A                      A
 Frequencies --   2982.1943              2996.1911              3001.1427
 Red. masses --      1.0821                 1.0424                 1.0902
 Frc consts  --      5.6699                 5.5132                 5.7856
 IR Inten    --     49.4917                43.8380                10.2567

                     88                     89                     90
                      A                      A                      A
 Frequencies --   3003.3538              3021.2326              3027.6944
 Red. masses --      1.0602                 1.0588                 1.0449
 Frc consts  --      5.6342                 5.6942                 5.6434
 IR Inten    --     72.5970                28.1568                14.8526

                     91                     92                     93
                      A                      A                      A
 Frequencies --   3033.0448              3034.7525              3037.3037
 Red. masses --      1.0986                 1.0987                 1.0866
 Frc consts  --      5.9547                 5.9616                 5.9062
 IR Inten    --     27.5412                43.7816                39.8174

                     94                     95                     96
                      A                      A                      A
 Frequencies --   3065.5468              3074.5143              3094.2504
 Red. masses --      1.1028                 1.0916                 1.0965
 Frc consts  --      6.1059                 6.0795                 6.1857
 IR Inten    --     50.1124                47.0117                37.6186

                     97                     98                     99
                      A                      A                      A
 Frequencies --   3095.0806              3127.0851              3168.0104
 Red. masses --      1.0970                 1.0995                 1.0907
 Frc consts  --      6.1917                 6.3347                 6.4495
 IR Inten    --     28.1190                16.0364                23.9598

                    100                    101                    102
                      A                      A                      A
 Frequencies --   3488.0271              3567.1284              3591.1462
 Red. masses --      1.0498                 1.0917                 1.0759
 Frc consts  --      7.5254                 8.1843                 8.1747
 IR Inten    --      0.6004                 0.1204                 7.1719

 - Thermochemistry -
 -------------------
 Temperature   298.150 Kelvin.  Pressure   1.00000 Atm.
 Atom     1 has atomic number  6 and mass  12.00000

 Molecular mass:   198.17321 amu.
 Principal axes and moments of inertia in atomic units:
                           1         2         3
     Eigenvalues --   882.714918836.790839498.43771
           X            0.99999  -0.00523   0.00001
           Y            0.00523   0.99996  -0.00697
           Z            0.00003   0.00697   0.99998
 This molecule is an asymmetric top.
 Rotational symmetry number  1.
 Warning -- assumption of classical behavior for rotation
           may cause significant error
 Rotational temperatures (Kelvin)      0.09812     0.00980     0.00912
 Rotational constants (GHZ):           2.04453     0.20423     0.19000
 Zero-point vibrational energy     854444.1 (Joules/Mol)
                                  204.21705 (Kcal/Mol)
 Warning -- explicit consideration of  25 degrees of freedom as
           vibrations may cause significant error
 Vibrational temperatures:     30.03    43.15    72.88   123.43   141.04
          (Kelvin)            185.05   193.14   230.34   282.76   292.71
                              333.58   342.11   363.01   416.48   448.84
                              465.95   538.12   578.06   618.59   628.58
                              685.88   696.88   763.84   796.89   840.64
                             1031.87  1141.21  1182.69  1241.85  1256.17
                             1264.69  1304.21  1316.45  1349.95  1363.36
                             1402.50  1428.26  1478.82  1503.39  1507.54
                             1527.18  1542.81  1573.38  1581.62  1628.18
                             1642.09  1657.99  1693.63  1712.91  1741.53
                             1744.10  1754.52  1805.01  1830.82  1861.48
                             1865.89  1892.66  1905.75  1918.73  1966.08
                             1981.61  1983.66  1995.32  2011.10  2017.56
                             2041.23  2053.27  2074.72  2122.31  2129.84
                             2140.58  2148.16  2149.20  2155.62  2169.49
                             2169.91  2175.83  2198.15  2385.47  2514.87
                             4237.68  4247.52  4260.40  4279.13  4290.71
                             4310.85  4317.97  4321.16  4346.88  4356.18
                             4363.87  4366.33  4370.00  4410.64  4423.54
                             4451.94  4453.13  4499.18  4558.06  5018.49
                             5132.30  5166.86

 Zero-point correction=                           0.325441 (Hartree/Particle)
 Thermal correction to Energy=                    0.341710
 Thermal correction to Enthalpy=                  0.342654
 Thermal correction to Gibbs Free Energy=         0.280421
 Sum of electronic and zero-point Energies=           -616.842123
 Sum of electronic and thermal Energies=              -616.825854
 Sum of electronic and thermal Enthalpies=            -616.824910
 Sum of electronic and thermal Free Energies=         -616.887143

                     E (Thermal)             CV                S
                      KCal/Mol        Cal/Mol-Kelvin    Cal/Mol-Kelvin
 Total                  214.426             60.414            130.979
 Electronic               0.000              0.000              0.000
 Translational            0.889              2.981             41.757
 Rotational               0.889              2.981             32.671
 Vibrational            212.649             54.452             56.551
 Vibration     1          0.593              1.986              6.550
 Vibration     2          0.594              1.984              5.830
 Vibration     3          0.595              1.977              4.792
 Vibration     4          0.601              1.959              3.754
 Vibration     5          0.603              1.951              3.493
 Vibration     6          0.611              1.925              2.967
 Vibration     7          0.613              1.919              2.884
 Vibration     8          0.622              1.891              2.549
 Vibration     9          0.636              1.845              2.165
 Vibration    10          0.639              1.835              2.102
 Vibration    11          0.653              1.792              1.865
 Vibration    12          0.656              1.783              1.819
 Vibration    13          0.664              1.759              1.714
 Vibration    14          0.686              1.693              1.477
 Vibration    15          0.700              1.651              1.352
 Vibration    16          0.708              1.628              1.291
 Vibration    17          0.745              1.525              1.063
 Vibration    18          0.767              1.466              0.956
 Vibration    19          0.791              1.405              0.859
 Vibration    20          0.797              1.390              0.836
 Vibration    21          0.833              1.302              0.719
 Vibration    22          0.840              1.285              0.698
 Vibration    23          0.886              1.182              0.585
 Vibration    24          0.909              1.131              0.536
 Vibration    25          0.941              1.065              0.478

                           ! Non-Optimized Parameters !
 Normal termination of Gaussian 16 at Sun May 28 22:19:08 2023.
