 Gaussian 16, Revision A.03,
 Gaussian 16:  ES64L-G16RevA.03 25-Dec-2016

 -----------------------------
 # opt freq b3lyp/6-31g(2df,p)
 -----------------------------

 -------------------
 Title Card Required
 -------------------
 Symbolic Z-matrix:
 Charge =  0 Multiplicity = 1

 SCF Done:  E(RB3LYP) =  -574.117938641     A.U. after   14 cycles
 SCF Done:  E(RB3LYP) =  -574.153072325     A.U. after   13 cycles
 SCF Done:  E(RB3LYP) =  -574.171927726     A.U. after   12 cycles
 SCF Done:  E(RB3LYP) =  -574.181279380     A.U. after   13 cycles
 SCF Done:  E(RB3LYP) =  -574.188217350     A.U. after   13 cycles
 SCF Done:  E(RB3LYP) =  -574.191703243     A.U. after   13 cycles
 SCF Done:  E(RB3LYP) =  -574.193171848     A.U. after   12 cycles
 SCF Done:  E(RB3LYP) =  -574.193705518     A.U. after   11 cycles
 SCF Done:  E(RB3LYP) =  -574.194030555     A.U. after   11 cycles
 SCF Done:  E(RB3LYP) =  -574.194206687     A.U. after   10 cycles
 SCF Done:  E(RB3LYP) =  -574.194306641     A.U. after   10 cycles
 SCF Done:  E(RB3LYP) =  -574.194371052     A.U. after   11 cycles
 SCF Done:  E(RB3LYP) =  -574.194388575     A.U. after    9 cycles
 SCF Done:  E(RB3LYP) =  -574.194394572     A.U. after    9 cycles
 SCF Done:  E(RB3LYP) =  -574.194395809     A.U. after    8 cycles
 SCF Done:  E(RB3LYP) =  -574.194396158     A.U. after    7 cycles
 SCF Done:  E(RB3LYP) =  -574.194396211     A.U. after    6 cycles
 Optimization completed.
    -- Stationary point found.
 Normal termination of Gaussian 16 at Sun May 28 09:23:25 2023.

 ----------------------------------------------------------------------
 #N Geom=AllCheck Guess=TCheck SCRF=Check GenChk RB3LYP/6-31G(2df,p) Fr
 eq
 ----------------------------------------------------------------------

 Structure from the checkpoint file:  "CC1dCCdCC2qCNC2dOrNqCrC1.chk"
 -------------------
 Title Card Required
 -------------------
 Charge =  0 Multiplicity = 1

                         Standard orientation:
 ---------------------------------------------------------------------
 Center     Atomic      Atomic             Coordinates (Angstroms)
 Number     Number       Type             X           Y           Z
 ---------------------------------------------------------------------
      1          6           0        3.698670    0.771079   -0.008864
      2          6           0        2.392811    0.043427    0.124442
      3          6           0        2.274429   -1.275892   -0.083454
      4          6           0        1.045566   -2.035455    0.066684
      5          6           0       -0.229068   -1.611943    0.053387
      6          6           0       -0.832315   -0.275959   -0.261420
      7          6           0       -1.955343   -0.450384   -1.365479
      8          7           0       -2.947107   -0.232759   -0.313829
      9          6           0       -2.062980    0.015850    0.704079
     10          8           0       -2.200419    0.353352    1.849863
     11          7           0        0.096561    0.814953   -0.475769
     12          6           0       -0.548520    2.121147   -0.611391
     13          6           0        1.184627    0.857027    0.526254
     14          1           0        4.519226    0.093133   -0.258140
     15          1           0        3.958391    1.294898    0.920764
     16          1           0        3.641104    1.540616   -0.790577
     17          1           0        3.162543   -1.851119   -0.336108
     18          1           0        1.185673   -3.102043    0.234824
     19          1           0       -0.993717   -2.363307    0.241957
     20          1           0       -1.992090   -1.441624   -1.825436
     21          1           0       -1.941350    0.314087   -2.146204
     22          1           0       -3.955118   -0.191356   -0.343993
     23          1           0       -1.296661    2.101579   -1.407576
     24          1           0        0.204808    2.859982   -0.897646
     25          1           0       -1.041582    2.467452    0.311980
     26          1           0        0.819952    0.519875    1.510176
     27          1           0        1.478736    1.902267    0.648822
 ---------------------------------------------------------------------

 SCF Done:  E(RB3LYP) =  -574.194396211     A.U. after    1 cycles

 The electronic state is 1-A.
 Alpha  occ. eigenvalues --  -19.10930 -14.35469 -14.32623 -10.27075 -10.23113
 Alpha  occ. eigenvalues --  -10.22748 -10.20533 -10.20161 -10.18748 -10.18626
 Alpha  occ. eigenvalues --  -10.18370 -10.18161 -10.17363  -1.03471  -0.95616
 Alpha  occ. eigenvalues --   -0.91654  -0.81385  -0.78410  -0.72703  -0.70210
 Alpha  occ. eigenvalues --   -0.67826  -0.66050  -0.63938  -0.59549  -0.53022
 Alpha  occ. eigenvalues --   -0.52729  -0.48680  -0.48193  -0.47429  -0.45555
 Alpha  occ. eigenvalues --   -0.44181  -0.43452  -0.42657  -0.41425  -0.40792
 Alpha  occ. eigenvalues --   -0.40688  -0.38904  -0.37993  -0.37120  -0.36733
 Alpha  occ. eigenvalues --   -0.34740  -0.34383  -0.32609  -0.29620  -0.26935
 Alpha  occ. eigenvalues --   -0.25880  -0.22105  -0.19630
 Alpha virt. eigenvalues --   -0.02196   0.03809   0.07418   0.08372   0.09284
 Alpha virt. eigenvalues --    0.10434   0.10938   0.13310   0.13575   0.14514
 Alpha virt. eigenvalues --    0.14856   0.15812   0.16159   0.16627   0.17608

 Mulliken charges:
               1
     1  C   -0.486802
     2  C    0.319865
     3  C   -0.167120
     4  C   -0.120909
     5  C   -0.080208
     6  C    0.136221
     7  C   -0.221937
     8  N   -0.313538
     9  C    0.363804
    10  O   -0.369833
    11  N   -0.128773
    12  C   -0.352078
    13  C   -0.302755
    14  H    0.121559
    15  H    0.127007
    16  H    0.128026
    17  H    0.080240
    18  H    0.090411
    19  H    0.097331
    20  H    0.115676
    21  H    0.119015
    22  H    0.249783
    23  H    0.118875
    24  H    0.120095
    25  H    0.124091
    26  H    0.134886
    27  H    0.097066
 Sum of Mulliken charges =  -0.00000

 Dipole moment (field-independent basis, Debye):
    X=             -0.0418    Y=             -0.0397    Z=             -2.7163  Tot=              2.7169
 Quadrupole moment (field-independent basis, Debye-Ang):
   XX=            -67.9900   YY=            -72.6223   ZZ=            -83.8856
   XY=              2.7059   XZ=              8.8953   YZ=             -1.0268

  Exact polarizability: 155.781   5.293 120.394   4.116   3.362  91.107
 Approx polarizability: 218.614  12.094 186.918   5.629  10.822 155.903

                      1                      2                      3
                      A                      A                      A
 Frequencies --     43.7107                97.6816               117.8241
 Red. masses --      4.1415                 7.8686                 2.8080
 Frc consts  --      0.0047                 0.0442                 0.0230
 IR Inten    --      2.1812                 0.3310                 0.4964

                      4                      5                      6
                      A                      A                      A
 Frequencies --    136.5462               143.5639               204.2788
 Red. masses --      3.2772                 3.1504                 1.1957
 Frc consts  --      0.0360                 0.0383                 0.0294
 IR Inten    --      3.2204                 1.6126                 1.6039

                      7                      8                      9
                      A                      A                      A
 Frequencies --    223.6057               249.2951               278.2760
 Red. masses --      1.1864                 2.5527                 2.7720
 Frc consts  --      0.0349                 0.0935                 0.1265
 IR Inten    --      0.0418                 6.7269                 2.1449

                     10                     11                     12
                      A                      A                      A
 Frequencies --    309.2566               322.0486               376.8529
 Red. masses --      3.3304                 2.0095                 3.3936
 Frc consts  --      0.1877                 0.1228                 0.2840
 IR Inten    --      2.8834                29.1471                 3.6640

                     13                     14                     15
                      A                      A                      A
 Frequencies --    382.0034               419.5293               456.8156
 Red. masses --      2.5419                 2.3274                 2.6915
 Frc consts  --      0.2186                 0.2413                 0.3309
 IR Inten    --      1.2560                 6.8748                24.3007

                     16                     17                     18
                      A                      A                      A
 Frequencies --    481.0880               494.8150               585.5880
 Red. masses --      2.4846                 2.0340                 4.0632
 Frc consts  --      0.3388                 0.2934                 0.8209
 IR Inten    --     11.1746                21.6089                 2.2780

                     19                     20                     21
                      A                      A                      A
 Frequencies --    608.9719               659.4592               727.7679
 Red. masses --      3.6265                 4.3922                 6.9691
 Frc consts  --      0.7924                 1.1254                 2.1748
 IR Inten    --      1.3747                15.7494                12.7750

                     22                     23                     24
                      A                      A                      A
 Frequencies --    750.4914               782.9354               794.2979
 Red. masses --      2.2001                 2.7514                 2.8132
 Frc consts  --      0.7301                 0.9937                 1.0457
 IR Inten    --      4.7709                 6.8715                12.9318

                     25                     26                     27
                      A                      A                      A
 Frequencies --    853.2210               907.5689               920.0524
 Red. masses --      3.0155                 1.5551                 1.9453
 Frc consts  --      1.2934                 0.7547                 0.9702
 IR Inten    --      1.9201                 4.9358                 4.7283

                     28                     29                     30
                      A                      A                      A
 Frequencies --    927.2555               967.3985               980.7029
 Red. masses --      4.2962                 2.0164                 2.0479
 Frc consts  --      2.1764                 1.1118                 1.1604
 IR Inten    --     10.2174                 7.2932                14.4227

                     31                     32                     33
                      A                      A                      A
 Frequencies --    997.4007              1006.8070              1013.9816
 Red. masses --      1.9376                 1.5453                 1.7886
 Frc consts  --      1.1357                 0.9229                 1.0835
 IR Inten    --      3.1739                 5.3547                 2.7933

                     34                     35                     36
                      A                      A                      A
 Frequencies --   1063.9365              1081.0287              1107.7066
 Red. masses --      1.5919                 1.7795                 3.6139
 Frc consts  --      1.0617                 1.2252                 2.6126
 IR Inten    --      2.3331                 8.0095                24.4865

                     37                     38                     39
                      A                      A                      A
 Frequencies --   1127.0753              1146.5617              1148.7779
 Red. masses --      2.2229                 1.2898                 1.4583
 Frc consts  --      1.6637                 0.9990                 1.1339
 IR Inten    --     10.8233                10.0314                13.7736

                     40                     41                     42
                      A                      A                      A
 Frequencies --   1164.7342              1190.9897              1245.4712
 Red. masses --      2.4012                 1.9714                 2.7840
 Frc consts  --      1.9192                 1.6476                 2.5444
 IR Inten    --     72.2363                 0.7092                20.1407

                     43                     44                     45
                      A                      A                      A
 Frequencies --   1266.1111              1282.9127              1301.3198
 Red. masses --      2.1456                 1.7146                 1.2599
 Frc consts  --      2.0265                 1.6627                 1.2570
 IR Inten    --     16.4905                25.1148                 4.4309

                     46                     47                     48
                      A                      A                      A
 Frequencies --   1327.8007              1374.1023              1381.8707
 Red. masses --      1.5397                 1.4702                 2.0494
 Frc consts  --      1.5994                 1.6355                 2.3057
 IR Inten    --     11.1709                 2.5568                22.0900

                     49                     50                     51
                      A                      A                      A
 Frequencies --   1409.3569              1413.2163              1453.3629
 Red. masses --      1.3089                 1.4335                 1.5116
 Frc consts  --      1.5318                 1.6868                 1.8812
 IR Inten    --      0.4051                 6.3591                 2.4718

                     52                     53                     54
                      A                      A                      A
 Frequencies --   1461.7899              1477.2067              1486.7684
 Red. masses --      1.1897                 1.0480                 1.0885
 Frc consts  --      1.4978                 1.3474                 1.4177
 IR Inten    --      1.2930                 8.7002                 8.0357

                     55                     56                     57
                      A                      A                      A
 Frequencies --   1489.6136              1493.6576              1510.9056
 Red. masses --      1.0696                 1.0585                 1.0610
 Frc consts  --      1.3983                 1.3913                 1.4271
 IR Inten    --      7.9169                 6.0511                 4.8930

                     58                     59                     60
                      A                      A                      A
 Frequencies --   1537.1739              1682.9418              1720.6247
 Red. masses --      1.0892                 8.4967                 5.9387
 Frc consts  --      1.5164                14.1787                10.3589
 IR Inten    --     13.1934                 5.3479                11.1333

                     61                     62                     63
                      A                      A                      A
 Frequencies --   1878.4436              2971.1356              2977.0080
 Red. masses --     11.2722                 1.0571                 1.0684
 Frc consts  --     23.4344                 5.4978                 5.5787
 IR Inten    --    376.0172                38.5635                29.4700

                     64                     65                     66
                      A                      A                      A
 Frequencies --   3008.0321              3051.9609              3053.7354
 Red. masses --      1.0388                 1.0981                 1.0559
 Frc consts  --      5.5381                 6.0262                 5.8016
 IR Inten    --     33.6164                16.3400                36.8527

                     67                     68                     69
                      A                      A                      A
 Frequencies --   3078.7707              3086.7204              3102.0456
 Red. masses --      1.0801                 1.0894                 1.1102
 Frc consts  --      6.0318                 6.1158                 6.2941
 IR Inten    --     22.8330                20.6095                30.5617

                     70                     71                     72
                      A                      A                      A
 Frequencies --   3110.2669              3116.7714              3124.7255
 Red. masses --      1.0984                 1.1006                 1.0823
 Frc consts  --      6.2602                 6.2993                 6.2264
 IR Inten    --     23.2903                22.8473                 3.7825

                     73                     74                     75
                      A                      A                      A
 Frequencies --   3142.7569              3153.5250              3608.3851
 Red. masses --      1.0886                 1.0923                 1.0794
 Frc consts  --      6.3350                 6.3998                 8.2804
 IR Inten    --     27.9869                32.4449                19.9635

 - Thermochemistry -
 -------------------
 Temperature   298.150 Kelvin.  Pressure   1.00000 Atm.
 Atom     1 has atomic number  6 and mass  12.00000

 Molecular mass:   178.11061 amu.
 Principal axes and moments of inertia in atomic units:
                           1         2         3
     Eigenvalues --  1233.179562988.461843423.03661
           X            0.99977   0.01175   0.01778
           Y           -0.01155   0.99987  -0.01165
           Z           -0.01791   0.01145   0.99977
 This molecule is an asymmetric top.
 Rotational symmetry number  1.
 Warning -- assumption of classical behavior for rotation
           may cause significant error
 Rotational temperatures (Kelvin)      0.07024     0.02898     0.02530
 Rotational constants (GHZ):           1.46349     0.60390     0.52723
 Zero-point vibrational energy     598326.6 (Joules/Mol)
                                  143.00348 (Kcal/Mol)
 Warning -- explicit consideration of  19 degrees of freedom as
           vibrations may cause significant error
 Vibrational temperatures:     62.89   140.54   169.52   196.46   206.56
          (Kelvin)            293.91   321.72   358.68   400.38   444.95
                              463.36   542.21   549.62   603.61   657.26
                              692.18   711.93   842.53   876.17   948.81
                             1047.10  1079.79  1126.47  1142.82  1227.59
                             1305.79  1323.75  1334.11  1391.87  1411.01
                             1435.04  1448.57  1458.89  1530.77  1555.36
                             1593.74  1621.61  1649.65  1652.84  1675.79
                             1713.57  1791.96  1821.65  1845.83  1872.31
                             1910.41  1977.03  1988.20  2027.75  2033.30
                             2091.07  2103.19  2125.37  2139.13  2143.22
                             2149.04  2173.86  2211.65  2421.38  2475.60
                             2702.66  4274.80  4283.25  4327.89  4391.09
                             4393.64  4429.66  4441.10  4463.15  4474.98
                             4484.34  4495.78  4521.73  4537.22  5191.66

 Zero-point correction=                           0.227891 (Hartree/Particle)
 Thermal correction to Energy=                    0.240359
 Thermal correction to Enthalpy=                  0.241303
 Thermal correction to Gibbs Free Energy=         0.189597
 Sum of electronic and zero-point Energies=           -573.966506
 Sum of electronic and thermal Energies=              -573.954037
 Sum of electronic and thermal Enthalpies=            -573.953093
 Sum of electronic and thermal Free Energies=         -574.004799

                     E (Thermal)             CV                S
                      KCal/Mol        Cal/Mol-Kelvin    Cal/Mol-Kelvin
 Total                  150.828             48.163            108.826
 Electronic               0.000              0.000              0.000
 Translational            0.889              2.981             41.439
 Rotational               0.889              2.981             30.912
 Vibrational            149.050             42.202             36.475
 Vibration     1          0.595              1.980              5.083
 Vibration     2          0.603              1.951              3.500
 Vibration     3          0.608              1.935              3.136
 Vibration     4          0.614              1.917              2.852
 Vibration     5          0.616              1.910              2.756
 Vibration     6          0.640              1.834              2.094
 Vibration     7          0.649              1.805              1.930
 Vibration     8          0.662              1.764              1.736
 Vibration     9          0.679              1.714              1.544
 Vibration    10          0.699              1.656              1.366
 Vibration    11          0.707              1.631              1.300
 Vibration    12          0.747              1.519              1.052
 Vibration    13          0.751              1.509              1.031
 Vibration    14          0.782              1.428              0.894
 Vibration    15          0.815              1.346              0.775
 Vibration    16          0.837              1.292              0.707
 Vibration    17          0.850              1.262              0.671
 Vibration    18          0.943              1.063              0.475
 Vibration    19          0.968              1.013              0.434

 Optimization completed.
    -- Stationary point found.
 Normal termination of Gaussian 16 at Sun May 28 10:59:16 2023.
