 Gaussian 16, Revision A.03,
 Gaussian 16:  ES64L-G16RevA.03 25-Dec-2016

 -----------------------------
 # opt freq b3lyp/6-31g(2df,p)
 -----------------------------

 -------------------
 Title Card Required
 -------------------
 Symbolic Z-matrix:
 Charge =  0 Multiplicity = 1

 SCF Done:  E(RB3LYP) =  -698.826115515     A.U. after   13 cycles
 SCF Done:  E(RB3LYP) =  -698.912743972     A.U. after   12 cycles
 SCF Done:  E(RB3LYP) =  -699.019561265     A.U. after   12 cycles
 SCF Done:  E(RB3LYP) =  -699.085742439     A.U. after   12 cycles
 SCF Done:  E(RB3LYP) =  -699.120576087     A.U. after   12 cycles
 SCF Done:  E(RB3LYP) =  -699.130944126     A.U. after   11 cycles
 SCF Done:  E(RB3LYP) =  -699.142022884     A.U. after   11 cycles
 SCF Done:  E(RB3LYP) =  -699.146556208     A.U. after   11 cycles
 SCF Done:  E(RB3LYP) =  -699.148912853     A.U. after   10 cycles
 SCF Done:  E(RB3LYP) =  -699.149889651     A.U. after   11 cycles
 SCF Done:  E(RB3LYP) =  -699.163911418     A.U. after    9 cycles
 SCF Done:  E(RB3LYP) =  -699.163984880     A.U. after    9 cycles
 SCF Done:  E(RB3LYP) =  -699.164010615     A.U. after    9 cycles
 SCF Done:  E(RB3LYP) =  -699.164027166     A.U. after    9 cycles
 SCF Done:  E(RB3LYP) =  -699.164033625     A.U. after    7 cycles
 SCF Done:  E(RB3LYP) =  -699.164034385     A.U. after    7 cycles
 SCF Done:  E(RB3LYP) =  -699.164034672     A.U. after    7 cycles
 SCF Done:  E(RB3LYP) =  -699.164034991     A.U. after    7 cycles
 SCF Done:  E(RB3LYP) =  -699.164035002     A.U. after    6 cycles
 Optimization completed.
    -- Stationary point found.
 Normal termination of Gaussian 16 at Sun May 28 12:58:52 2023.

 ----------------------------------------------------------------------
 #N Geom=AllCheck Guess=TCheck SCRF=Check GenChk RB3LYP/6-31G(2df,p) Fr
 eq
 ----------------------------------------------------------------------

 Structure from the checkpoint file:  "CC1dCqCqNrNrCqCrCCCqCrCCqCrCC1.chk"
 -------------------
 Title Card Required
 -------------------
 Charge =  0 Multiplicity = 1

                         Standard orientation:
 ---------------------------------------------------------------------
 Center     Atomic      Atomic             Coordinates (Angstroms)
 Number     Number       Type             X           Y           Z
 ---------------------------------------------------------------------
      1          6           0       -0.930404   -0.221455    2.503163
      2          6           0       -0.792786   -0.929582    1.166482
      3          6           0       -1.371672   -0.534286    0.011942
      4          6           0       -1.525809   -1.367701   -1.293751
      5          7           0       -1.075424   -0.724851   -2.551905
      6          7           0       -1.037824   -2.745522   -1.278756
      7          6           0       -2.069432    0.822759   -0.198017
      8          6           0       -3.069431    1.315596    0.872328
      9          6           0       -1.096384    1.959165   -0.640129
     10          6           0        0.013649    2.465406    0.318424
     11          6           0        1.509289    2.065638    0.105536
     12          6           0        1.952714    2.184688   -1.359450
     13          6           0        2.000872    0.773236    0.819778
     14          6           0        1.957605   -0.616311    0.117943
     15          6           0        3.286538   -0.915830   -0.595867
     16          6           0        1.638040   -1.740844    1.138464
     17          6           0        0.129614   -2.122142    1.312213
     18          1           0       -1.658792   -0.766844    3.119454
     19          1           0       -1.249548    0.813534    2.460751
     20          1           0        0.014068   -0.256533    3.056078
     21          1           0       -2.616521   -1.454747   -1.407499
     22          1           0       -0.095212   -0.463227   -2.479413
     23          1           0       -1.589750    0.127514   -2.747713
     24          1           0       -0.024437   -2.741430   -1.375601
     25          1           0       -1.370329   -3.163873   -2.145132
     26          1           0       -2.705706    0.674705   -1.080407
     27          1           0       -2.606179    1.895383    1.673128
     28          1           0       -3.611275    0.483208    1.329889
     29          1           0       -3.806036    1.974167    0.398693
     30          1           0       -1.738563    2.816770   -0.880695
     31          1           0       -0.637558    1.673874   -1.589574
     32          1           0       -0.251016    2.262742    1.360425
     33          1           0        0.003874    3.559251    0.235758
     34          1           0        2.043889    2.863269    0.639827
     35          1           0        1.557029    1.379943   -1.987308
     36          1           0        3.043826    2.153820   -1.441984
     37          1           0        1.616090    3.132707   -1.793495
     38          1           0        1.463390    0.716960    1.769197
     39          1           0        3.049916    0.941516    1.101591
     40          1           0        1.165872   -0.604985   -0.637676
     41          1           0        4.105209   -1.002285    0.128843
     42          1           0        3.557370   -0.128777   -1.305341
     43          1           0        3.236179   -1.860756   -1.148656
     44          1           0        2.061112   -1.449736    2.108063
     45          1           0        2.171065   -2.655876    0.853489
     46          1           0        0.007386   -2.551867    2.314078
     47          1           0       -0.137041   -2.905840    0.611505
 ---------------------------------------------------------------------

 SCF Done:  E(RB3LYP) =  -699.164035002     A.U. after    1 cycles

 The electronic state is 1-A.
 Alpha  occ. eigenvalues --  -14.30590 -14.30519 -10.23624 -10.18702 -10.18393
 Alpha  occ. eigenvalues --  -10.17944 -10.17861 -10.17555 -10.17473 -10.17411
 Alpha  occ. eigenvalues --  -10.17233 -10.17148 -10.17055 -10.16923 -10.16905
 Alpha  occ. eigenvalues --  -10.16736 -10.16192  -0.91278  -0.83116  -0.82329
 Alpha  occ. eigenvalues --   -0.79919  -0.79273  -0.75400  -0.71746  -0.69661
 Alpha  occ. eigenvalues --   -0.69425  -0.67796  -0.64391  -0.62815  -0.60523
 Alpha  occ. eigenvalues --   -0.58919  -0.54694  -0.53029  -0.51275  -0.48681
 Alpha  occ. eigenvalues --   -0.47581  -0.46550  -0.45689  -0.44930  -0.43659
 Alpha  occ. eigenvalues --   -0.43474  -0.43192  -0.41938  -0.41438  -0.40343
 Alpha  occ. eigenvalues --   -0.40046  -0.39346  -0.39119  -0.38686  -0.37778
 Alpha  occ. eigenvalues --   -0.37136  -0.36804  -0.36281  -0.35672  -0.34237
 Alpha  occ. eigenvalues --   -0.34058  -0.32539  -0.31980  -0.31803  -0.31629
 Alpha  occ. eigenvalues --   -0.30237  -0.29970  -0.28891  -0.28542  -0.25090
 Alpha  occ. eigenvalues --   -0.23373  -0.21402
 Alpha virt. eigenvalues --    0.02218   0.05663   0.07720   0.08223   0.08593
 Alpha virt. eigenvalues --    0.10661   0.10825   0.12105   0.12731   0.13253
 Alpha virt. eigenvalues --    0.13728   0.14221   0.14544   0.15373   0.15575

 Mulliken charges:
               1
     1  C   -0.472792
     2  C    0.215823
     3  C    0.163273
     4  C   -0.065107
     5  N   -0.518543
     6  N   -0.496308
     7  C   -0.046279
     8  C   -0.418177
     9  C   -0.196951
    10  C   -0.206257
    11  C    0.032010
    12  C   -0.399023
    13  C   -0.212361
    14  C    0.076335
    15  C   -0.417902
    16  C   -0.212584
    17  C   -0.330138
    18  H    0.120159
    19  H    0.116943
    20  H    0.118247
    21  H    0.099233
    22  H    0.230781
    23  H    0.230479
    24  H    0.224748
    25  H    0.228208
    26  H    0.067018
    27  H    0.122409
    28  H    0.118086
    29  H    0.105966
    30  H    0.087589
    31  H    0.075556
    32  H    0.092463
    33  H    0.092072
    34  H    0.074204
    35  H    0.113948
    36  H    0.113319
    37  H    0.107062
    38  H    0.094559
    39  H    0.085445
    40  H    0.053700
    41  H    0.112450
    42  H    0.111396
    43  H    0.102927
    44  H    0.093017
    45  H    0.087762
    46  H    0.085921
    47  H    0.139312
 Sum of Mulliken charges =  -0.00000

 Dipole moment (field-independent basis, Debye):
    X=              0.2951    Y=              1.2277    Z=             -0.1288  Tot=              1.2692
 Quadrupole moment (field-independent basis, Debye-Ang):
   XX=           -108.8863   YY=           -111.0947   ZZ=           -110.1341
   XY=             -2.5617   XZ=              0.6255   YZ=              0.1817

  Exact polarizability: 178.656  -8.101 174.856   3.547  -5.325 168.200
 Approx polarizability: 250.064 -10.021 250.150  15.184  -9.376 268.269

                      1                      2                      3
                      A                      A                      A
 Frequencies --     39.1350                53.7636                74.9153
 Red. masses --      3.0983                 3.1068                 3.2246
 Frc consts  --      0.0028                 0.0053                 0.0107
 IR Inten    --      0.1203                 0.1198                 0.1744

                      4                      5                      6
                      A                      A                      A
 Frequencies --     91.9941               114.0547               125.3187
 Red. masses --      1.9851                 2.6551                 2.3441
 Frc consts  --      0.0099                 0.0203                 0.0217
 IR Inten    --      0.1104                 0.0411                 0.0262

                      7                      8                      9
                      A                      A                      A
 Frequencies --    170.8769               190.0003               203.4931
 Red. masses --      2.5342                 1.8348                 1.8363
 Frc consts  --      0.0436                 0.0390                 0.0448
 IR Inten    --      0.0985                 0.0461                 0.1201

                     10                     11                     12
                      A                      A                      A
 Frequencies --    203.8742               215.3173               220.7286
 Red. masses --      1.6638                 2.9679                 1.9702
 Frc consts  --      0.0407                 0.0811                 0.0566
 IR Inten    --      0.3587                 0.6810                 0.7064

                     13                     14                     15
                      A                      A                      A
 Frequencies --    257.3321               267.4694               273.8343
 Red. masses --      1.8053                 1.5555                 1.4970
 Frc consts  --      0.0704                 0.0656                 0.0661
 IR Inten    --      1.9980                 8.7544                15.8736

                     16                     17                     18
                      A                      A                      A
 Frequencies --    280.5773               294.0614               303.4514
 Red. masses --      1.6339                 1.3690                 2.0663
 Frc consts  --      0.0758                 0.0697                 0.1121
 IR Inten    --      2.1250                 1.8297                 0.0548

                     19                     20                     21
                      A                      A                      A
 Frequencies --    314.3151               322.4008               337.3472
 Red. masses --      1.9118                 2.1616                 2.3299
 Frc consts  --      0.1113                 0.1324                 0.1562
 IR Inten    --      2.2420                 7.7448                 2.6510

                     22                     23                     24
                      A                      A                      A
 Frequencies --    344.7741               368.6586               382.5412
 Red. masses --      1.7135                 2.1795                 1.9563
 Frc consts  --      0.1200                 0.1745                 0.1687
 IR Inten    --     27.7145                 9.0563                11.3981

                     25                     26                     27
                      A                      A                      A
 Frequencies --    397.7174               434.6112               451.3529
 Red. masses --      2.0820                 2.2278                 2.4325
 Frc consts  --      0.1940                 0.2479                 0.2920
 IR Inten    --      0.9263                 5.6979                 1.0419

                     28                     29                     30
                      A                      A                      A
 Frequencies --    461.6152               499.1240               515.6313
 Red. masses --      2.3199                 2.8559                 2.5581
 Frc consts  --      0.2913                 0.4192                 0.4007
 IR Inten    --      1.5388                 0.9526                10.5107

                     31                     32                     33
                      A                      A                      A
 Frequencies --    558.0564               578.5938               627.0529
 Red. masses --      2.5236                 2.5599                 2.7867
 Frc consts  --      0.4631                 0.5049                 0.6456
 IR Inten    --      4.5672                 2.4365                11.2523

                     34                     35                     36
                      A                      A                      A
 Frequencies --    667.1532               715.3681               730.7974
 Red. masses --      2.4489                 2.8536                 3.3194
 Frc consts  --      0.6422                 0.8604                 1.0445
 IR Inten    --      1.3604                 0.8703                 8.8757

                     37                     38                     39
                      A                      A                      A
 Frequencies --    792.4251               821.3217               835.4846
 Red. masses --      2.3795                 1.7202                 2.1609
 Frc consts  --      0.8803                 0.6837                 0.8887
 IR Inten    --      2.1621                 0.8274                 9.8921

                     40                     41                     42
                      A                      A                      A
 Frequencies --    848.3810               859.7232               866.8244
 Red. masses --      2.0201                 2.0400                 1.9439
 Frc consts  --      0.8566                 0.8884                 0.8606
 IR Inten    --    111.6761                50.4004                55.5162

                     43                     44                     45
                      A                      A                      A
 Frequencies --    893.7501               920.4031               932.7365
 Red. masses --      1.9847                 2.4574                 2.0065
 Frc consts  --      0.9341                 1.2265                 1.0285
 IR Inten    --      1.3503                22.7602                14.6679

                     46                     47                     48
                      A                      A                      A
 Frequencies --    944.7526               953.4381               957.0837
 Red. masses --      1.8690                 1.7359                 1.5276
 Frc consts  --      0.9829                 0.9297                 0.8245
 IR Inten    --      8.8672                10.6849                 2.4976

                     49                     50                     51
                      A                      A                      A
 Frequencies --    970.1593               991.0381              1010.3972
 Red. masses --      2.0756                 1.8434                 1.6356
 Frc consts  --      1.1510                 1.0667                 0.9838
 IR Inten    --      3.7656                 7.8736                25.5105

                     52                     53                     54
                      A                      A                      A
 Frequencies --   1012.1773              1027.0313              1039.6272
 Red. masses --      2.7673                 1.7000                 1.4822
 Frc consts  --      1.6704                 1.0565                 0.9439
 IR Inten    --      4.7252                43.4051                 7.1878

                     55                     56                     57
                      A                      A                      A
 Frequencies --   1048.0601              1065.6921              1086.4984
 Red. masses --      1.5876                 2.0144                 1.6296
 Frc consts  --      1.0275                 1.3479                 1.1334
 IR Inten    --      3.9034                 2.6053                 2.7717

                     58                     59                     60
                      A                      A                      A
 Frequencies --   1097.9089              1105.4169              1111.1142
 Red. masses --      1.8305                 2.2953                 2.0490
 Frc consts  --      1.3000                 1.6525                 1.4904
 IR Inten    --      4.7967                 7.0644                15.2990

                     61                     62                     63
                      A                      A                      A
 Frequencies --   1131.1663              1146.4310              1162.6159
 Red. masses --      2.1299                 2.0884                 1.9997
 Frc consts  --      1.6057                 1.6172                 1.5925
 IR Inten    --      8.8593                 2.1423                 4.8129

                     64                     65                     66
                      A                      A                      A
 Frequencies --   1169.8987              1189.4860              1213.4970
 Red. masses --      1.9366                 1.7734                 1.6791
 Frc consts  --      1.5617                 1.4783                 1.4568
 IR Inten    --      5.0512                 6.3200                 7.2937

                     67                     68                     69
                      A                      A                      A
 Frequencies --   1229.4322              1251.3052              1263.2457
 Red. masses --      1.7011                 1.2371                 1.3142
 Frc consts  --      1.5150                 1.1413                 1.2356
 IR Inten    --      2.1144                 6.2140                 1.8064

                     70                     71                     72
                      A                      A                      A
 Frequencies --   1278.6931              1292.1937              1297.8547
 Red. masses --      1.4997                 1.2423                 1.2164
 Frc consts  --      1.4447                 1.2222                 1.2072
 IR Inten    --     12.8622                 0.6965                 2.0816

                     73                     74                     75
                      A                      A                      A
 Frequencies --   1306.5171              1325.8941              1339.6111
 Red. masses --      1.3255                 1.2924                 1.2440
 Frc consts  --      1.3331                 1.3386                 1.3154
 IR Inten    --      9.5394                 1.6509                 1.1671

                     76                     77                     78
                      A                      A                      A
 Frequencies --   1344.7729              1354.8672              1367.9113
 Red. masses --      1.2477                 1.2893                 1.3369
 Frc consts  --      1.3294                 1.3945                 1.4739
 IR Inten    --      2.8919                 2.6587                 1.4833

                     79                     80                     81
                      A                      A                      A
 Frequencies --   1383.4596              1384.7634              1385.6316
 Red. masses --      1.2794                 1.3716                 1.2753
 Frc consts  --      1.4427                 1.5496                 1.4427
 IR Inten    --      2.6448                 4.5246                 4.4053

                     82                     83                     84
                      A                      A                      A
 Frequencies --   1396.1994              1403.0171              1405.7157
 Red. masses --      1.2561                 1.2348                 1.2393
 Frc consts  --      1.4427                 1.4321                 1.4429
 IR Inten    --      0.7058                 0.8577                 0.7905

                     85                     86                     87
                      A                      A                      A
 Frequencies --   1411.6789              1414.7608              1418.8466
 Red. masses --      1.2496                 1.2257                 1.2989
 Frc consts  --      1.4672                 1.4454                 1.5407
 IR Inten    --      3.9981                 8.4130                 9.7507

                     88                     89                     90
                      A                      A                      A
 Frequencies --   1422.5475              1428.0515              1470.9224
 Red. masses --      1.2952                 1.2388                 1.0755
 Frc consts  --      1.5442                 1.4885                 1.3710
 IR Inten    --      9.8793                 6.7887                 2.2447

                     91                     92                     93
                      A                      A                      A
 Frequencies --   1481.5049              1484.3734              1487.3771
 Red. masses --      1.0678                 1.0636                 1.0703
 Frc consts  --      1.3809                 1.3808                 1.3951
 IR Inten    --      1.5203                 6.7958                 5.3564

                     94                     95                     96
                      A                      A                      A
 Frequencies --   1490.8166              1494.0040              1497.5854
 Red. masses --      1.0587                 1.0583                 1.0621
 Frc consts  --      1.3864                 1.3917                 1.4035
 IR Inten    --      0.3901                 4.4965                 3.8227

                     97                     98                     99
                      A                      A                      A
 Frequencies --   1499.1273              1501.9490              1506.0783
 Red. masses --      1.0580                 1.0518                 1.0541
 Frc consts  --      1.4009                 1.3980                 1.4087
 IR Inten    --      6.4076                 1.6859                 1.2728

                    100                    101                    102
                      A                      A                      A
 Frequencies --   1511.1588              1523.7159              1531.4805
 Red. masses --      1.0589                 1.0584                 1.0835
 Frc consts  --      1.4247                 1.4479                 1.4973
 IR Inten    --      4.7790                 4.5295                 1.8306

                    103                    104                    105
                      A                      A                      A
 Frequencies --   1643.8247              1669.5956              1691.1238
 Red. masses --      1.0967                 1.1226                 5.5805
 Frc consts  --      1.7461                 1.8437                 9.4031
 IR Inten    --     17.1870                23.9938                 2.6734

                    106                    107                    108
                      A                      A                      A
 Frequencies --   2983.7378              2987.1075              2997.2950
 Red. masses --      1.0803                 1.0828                 1.0814
 Frc consts  --      5.6667                 5.6925                 5.7238
 IR Inten    --      6.3940                11.5698                32.9386

                    109                    110                    111
                      A                      A                      A
 Frequencies --   3006.4107              3011.7968              3014.1459
 Red. masses --      1.0740                 1.0753                 1.0613
 Frc consts  --      5.7195                 5.7467                 5.6810
 IR Inten    --      1.9021                58.8325                21.6375

                    112                    113                    114
                      A                      A                      A
 Frequencies --   3016.8000              3023.7757              3028.8824
 Red. masses --      1.0548                 1.0412                 1.0424
 Frc consts  --      5.6559                 5.6092                 5.6343
 IR Inten    --     10.5636                35.1076                23.4372

                    115                    116                    117
                      A                      A                      A
 Frequencies --   3032.0301              3034.0415              3038.4923
 Red. masses --      1.0711                 1.0580                 1.0468
 Frc consts  --      5.8015                 5.7383                 5.6941
 IR Inten    --     99.3898                28.2324                52.4891

                    118                    119                    120
                      A                      A                      A
 Frequencies --   3046.1991              3054.3238              3070.8625
 Red. masses --      1.0927                 1.0903                 1.0894
 Frc consts  --      5.9742                 5.9928                 6.0530
 IR Inten    --     24.3178                19.2857                25.1766

                    121                    122                    123
                      A                      A                      A
 Frequencies --   3078.2159              3086.2127              3091.8387
 Red. masses --      1.0913                 1.0994                 1.0960
 Frc consts  --      6.0923                 6.1693                 6.1727
 IR Inten    --      6.0725                45.2794                35.0004

                    124                    125                    126
                      A                      A                      A
 Frequencies --   3093.2463              3097.3643              3098.3531
 Red. masses --      1.0956                 1.0887                 1.0960
 Frc consts  --      6.1764                 6.1540                 6.1991
 IR Inten    --     33.4928                28.0725                40.6912

                    127                    128                    129
                      A                      A                      A
 Frequencies --   3100.8838              3109.7339              3123.4808
 Red. masses --      1.0951                 1.0981                 1.1012
 Frc consts  --      6.2042                 6.2567                 6.3296
 IR Inten    --     47.1022                26.1714                22.8497

                    130                    131                    132
                      A                      A                      A
 Frequencies --   3180.8537              3207.3851              3467.2526
 Red. masses --      1.0867                 1.0881                 1.0502
 Frc consts  --      6.4783                 6.5948                 7.4387
 IR Inten    --      4.7397                16.5778                 0.7284

                    133                    134                    135
                      A                      A                      A
 Frequencies --   3481.6874              3533.7707              3576.1129
 Red. masses --      1.0498                 1.0901                 1.0910
 Frc consts  --      7.4975                 8.0200                 8.2204
 IR Inten    --      1.5394                 0.0364                 1.0172

 - Thermochemistry -
 -------------------
 Temperature   298.150 Kelvin.  Pressure   1.00000 Atm.
 Atom     1 has atomic number  6 and mass  12.00000

 Molecular mass:   238.24090 amu.
 Principal axes and moments of inertia in atomic units:
                           1         2         3
     Eigenvalues --  3680.643334108.175464934.41398
           X            0.99602  -0.08620  -0.02250
           Y            0.08596   0.99623  -0.01133
           Z            0.02339   0.00935   0.99968
 This molecule is an asymmetric top.
 Rotational symmetry number  1.
 Warning -- assumption of classical behavior for rotation
           may cause significant error
 Rotational temperatures (Kelvin)      0.02353     0.02108     0.01755
 Rotational constants (GHZ):           0.49033     0.43930     0.36575
 Zero-point vibrational energy    1145757.8 (Joules/Mol)
                                  273.84269 (Kcal/Mol)
 Warning -- explicit consideration of  32 degrees of freedom as
           vibrations may cause significant error
 Vibrational temperatures:     56.31    77.35   107.79   132.36   164.10
          (Kelvin)            180.31   245.85   273.37   292.78   293.33
                              309.79   317.58   370.24   384.83   393.99
                              403.69   423.09   436.60   452.23   463.86
                              485.37   496.05   530.42   550.39   572.23
                              625.31   649.40   664.16   718.13   741.88
                              802.92   832.47   902.19   959.88  1029.26
                             1051.45  1140.12  1181.70  1202.08  1220.63
                             1236.95  1247.17  1285.91  1324.25  1342.00
                             1359.29  1371.78  1377.03  1395.84  1425.88
                             1453.74  1456.30  1477.67  1495.79  1507.92
                             1533.29  1563.23  1579.65  1590.45  1598.65
                             1627.50  1649.46  1672.74  1683.22  1711.41
                             1745.95  1768.88  1800.35  1817.53  1839.75
                             1859.18  1867.32  1879.79  1907.67  1927.40
                             1934.83  1949.35  1968.12  1990.49  1992.37
                             1993.61  2008.82  2018.63  2022.51  2031.09
                             2035.53  2041.40  2046.73  2054.65  2116.33
                             2131.56  2135.68  2140.00  2144.95  2149.54
                             2154.69  2156.91  2160.97  2166.91  2174.22
                             2192.29  2203.46  2365.10  2402.18  2433.15
                             4292.93  4297.78  4312.44  4325.55  4333.30
                             4336.68  4340.50  4350.54  4357.89  4362.42
                             4365.31  4371.71  4382.80  4394.49  4418.29
                             4428.87  4440.37  4448.47  4450.49  4456.42
                             4457.84  4461.48  4474.21  4493.99  4576.54
                             4614.71  4988.60  5009.37  5084.31  5145.23

 Zero-point correction=                           0.436396 (Hartree/Particle)
 Thermal correction to Energy=                    0.455941
 Thermal correction to Enthalpy=                  0.456885
 Thermal correction to Gibbs Free Energy=         0.390967
 Sum of electronic and zero-point Energies=           -698.727639
 Sum of electronic and thermal Energies=              -698.708094
 Sum of electronic and thermal Enthalpies=            -698.707150
 Sum of electronic and thermal Free Energies=         -698.773068

                     E (Thermal)             CV                S
                      KCal/Mol        Cal/Mol-Kelvin    Cal/Mol-Kelvin
 Total                  286.107             77.819            138.736
 Electronic               0.000              0.000              0.000
 Translational            0.889              2.981             42.306
 Rotational               0.889              2.981             32.678
 Vibrational            284.330             71.858             63.752
 Vibration     1          0.594              1.981              5.302
 Vibration     2          0.596              1.976              4.674
 Vibration     3          0.599              1.966              4.020
 Vibration     4          0.602              1.955              3.617
 Vibration     5          0.607              1.938              3.199
 Vibration     6          0.610              1.928              3.017
 Vibration     7          0.626              1.878              2.426
 Vibration     8          0.633              1.854              2.228
 Vibration     9          0.639              1.835              2.101
 Vibration    10          0.640              1.834              2.098
 Vibration    11          0.645              1.818              1.998
 Vibration    12          0.647              1.810              1.953
 Vibration    13          0.667              1.750              1.680
 Vibration    14          0.673              1.733              1.613
 Vibration    15          0.676              1.722              1.572
 Vibration    16          0.680              1.710              1.530
 Vibration    17          0.689              1.685              1.450
 Vibration    18          0.695              1.667              1.398
 Vibration    19          0.702              1.646              1.340
 Vibration    20          0.707              1.631              1.298
 Vibration    21          0.718              1.601              1.225
 Vibration    22          0.723              1.586              1.190
 Vibration    23          0.741              1.537              1.085
 Vibration    24          0.752              1.507              1.029
 Vibration    25          0.764              1.475              0.971
 Vibration    26          0.795              1.395              0.844
 Vibration    27          0.810              1.358              0.792
 Vibration    28          0.819              1.335              0.761
 Vibration    29          0.855              1.252              0.660
 Vibration    30          0.871              1.215              0.620
 Vibration    31          0.914              1.122              0.528
 Vibration    32          0.935              1.078              0.488

                           ! Non-Optimized Parameters !
 Normal termination of Gaussian 16 at Sun May 28 20:33:45 2023.
