 Gaussian 16, Revision A.03,
 Gaussian 16:  ES64L-G16RevA.03 25-Dec-2016

 -----------------------------
 # opt freq b3lyp/6-31g(2df,p)
 -----------------------------

 -------------------
 Title Card Required
 -------------------
 Symbolic Z-matrix:
 Charge =  0 Multiplicity = 1

 SCF Done:  E(RB3LYP) =  -765.654144634     A.U. after   38 cycles
 SCF Done:  E(RB3LYP) =  -765.802433767     A.U. after   26 cycles
 SCF Done:  E(RB3LYP) =  -766.003797259     A.U. after   29 cycles
 SCF Done:  E(RB3LYP) =  -766.120581300     A.U. after   30 cycles
 SCF Done:  E(RB3LYP) =  -766.262882470     A.U. after   24 cycles
 SCF Done:  E(RB3LYP) =  -766.425338134     A.U. after   24 cycles
 SCF Done:  E(RB3LYP) =  -766.578014564     A.U. after   20 cycles
 SCF Done:  E(RB3LYP) =  -766.747957897     A.U. after   17 cycles
 SCF Done:  E(RB3LYP) =  -766.816091324     A.U. after   16 cycles
 SCF Done:  E(RB3LYP) =  -766.869124009     A.U. after   15 cycles
 SCF Done:  E(RB3LYP) =  -767.097076502     A.U. after    9 cycles
 SCF Done:  E(RB3LYP) =  -767.097078072     A.U. after    9 cycles
 SCF Done:  E(RB3LYP) =  -767.097079093     A.U. after    9 cycles
 SCF Done:  E(RB3LYP) =  -767.097080136     A.U. after    8 cycles
 SCF Done:  E(RB3LYP) =  -767.097081190     A.U. after   10 cycles
 SCF Done:  E(RB3LYP) =  -767.097081440     A.U. after    8 cycles
 SCF Done:  E(RB3LYP) =  -767.097081548     A.U. after    8 cycles
 SCF Done:  E(RB3LYP) =  -767.097081603     A.U. after    7 cycles
 SCF Done:  E(RB3LYP) =  -767.097081628     A.U. after    6 cycles
 Optimization completed.
    -- Stationary point found.
 Normal termination of Gaussian 16 at Sun May 28 04:30:35 2023.

 ----------------------------------------------------------------------
 #N Geom=AllCheck Guess=TCheck SCRF=Check GenChk RB3LYP/6-31G(2df,p) Fr
 eq
 ----------------------------------------------------------------------

 Structure from the checkpoint file:  "CC1dCC2dCCdCCdCc3cocqdOrcc3C2dC1.chk"
 -------------------
 Title Card Required
 -------------------
 Charge =  0 Multiplicity = 1

                         Standard orientation:
 ---------------------------------------------------------------------
 Center     Atomic      Atomic             Coordinates (Angstroms)
 Number     Number       Type             X           Y           Z
 ---------------------------------------------------------------------
      1          6           0        7.030011    1.811958    0.001662
      2          6           0        5.642986    1.259874    0.001096
      3          6           0        5.348395   -0.051781    0.000182
      4          6           0        4.019066   -0.652113   -0.000263
      5          6           0        2.824434    0.174657   -0.000618
      6          6           0        1.570820   -0.335542   -0.000776
      7          6           0        0.373094    0.458807   -0.001204
      8          6           0       -0.863967   -0.071991   -0.001367
      9          6           0       -2.091487    0.738134   -0.001924
     10          6           0       -3.322564    0.314796    0.795141
     11          6           0       -3.736104   -0.919662    0.001873
     12          8           0       -5.128889   -1.048531    0.002752
     13          6           0       -5.609658    0.252787    0.000604
     14          8           0       -6.765748    0.532264    0.000644
     15          6           0       -4.371679    1.100556   -0.001472
     16          6           0       -3.323329    0.312057   -0.796182
     17          6           0        3.847588   -3.277751   -0.000675
     18          6           0        3.930018   -2.009989   -0.000427
     19          1           0        7.784198    1.021625    0.001199
     20          1           0        7.192103    2.450027    0.879672
     21          1           0        7.192306    2.451264   -0.875409
     22          1           0        6.161497   -0.772060   -0.000116
     23          1           0        2.947977    1.252723   -0.000866
     24          1           0        1.462122   -1.418652   -0.000618
     25          1           0        0.487898    1.541759   -0.001376
     26          1           0       -0.968843   -1.153718   -0.001323
     27          1           0       -1.921146    1.811483   -0.003710
     28          1           0       -3.209119   -1.862132    0.003256
     29          1           0       -4.423248    2.179829   -0.003331
     30          1           0        4.845618    1.999202    0.001561
 ---------------------------------------------------------------------

 SCF Done:  E(RB3LYP) =  -767.097081628     A.U. after    1 cycles

 The electronic state is 1-A.
 Alpha  occ. eigenvalues --  -19.20662 -19.14739 -10.32819 -10.29960 -10.26210
 Alpha  occ. eigenvalues --  -10.25992 -10.25616 -10.25594 -10.25539 -10.23625
 Alpha  occ. eigenvalues --  -10.23445 -10.23071 -10.22869 -10.22304 -10.21654
 Alpha  occ. eigenvalues --  -10.21189 -10.16545 -10.15268  -1.13725  -1.05612
 Alpha  occ. eigenvalues --   -0.99477  -0.87083  -0.84557  -0.81189  -0.77993
 Alpha  occ. eigenvalues --   -0.75418  -0.72446  -0.71688  -0.67084  -0.63881
 Alpha  occ. eigenvalues --   -0.62952  -0.60172  -0.58574  -0.58217  -0.56676
 Alpha  occ. eigenvalues --   -0.54686  -0.51949  -0.51258  -0.48080  -0.47498
 Alpha  occ. eigenvalues --   -0.46463  -0.45984  -0.44245  -0.44199  -0.43399
 Alpha  occ. eigenvalues --   -0.42456  -0.41583  -0.40159  -0.39843  -0.39649
 Alpha  occ. eigenvalues --   -0.39031  -0.38691  -0.37460  -0.37412  -0.33394
 Alpha  occ. eigenvalues --   -0.30186  -0.30142  -0.29076  -0.27313  -0.24818
 Alpha  occ. eigenvalues --   -0.24208  -0.24063
 Alpha virt. eigenvalues --   -0.12969  -0.06176  -0.01976  -0.00371   0.02268
 Alpha virt. eigenvalues --    0.04977   0.05742   0.07027   0.08047   0.08338
 Alpha virt. eigenvalues --    0.09101   0.09352   0.11135   0.12378   0.13667

 Mulliken charges:
               1
     1  C   -0.438199
     2  C   -0.045820
     3  C   -0.079049
     4  C    0.100037
     5  C   -0.161279
     6  C   -0.073230
     7  C   -0.077778
     8  C   -0.053185
     9  C   -0.111588
    10  C   -0.031610
    11  C    0.066092
    12  O   -0.229291
    13  C    0.484122
    14  O   -0.328850
    15  C   -0.245239
    16  C   -0.031647
    17  C   -0.347958
    18  C    0.093641
    19  H    0.140229
    20  H    0.145405
    21  H    0.145399
    22  H    0.119890
    23  H    0.099007
    24  H    0.141743
    25  H    0.099519
    26  H    0.119550
    27  H    0.115567
    28  H    0.143894
    29  H    0.132445
    30  H    0.108184
 Sum of Mulliken charges =  -0.00000

 Dipole moment (field-independent basis, Debye):
    X=              3.8594    Y=              7.4379    Z=             -0.0013  Tot=              8.3795
 Quadrupole moment (field-independent basis, Debye-Ang):
   XX=           -125.3214   YY=           -115.4912   ZZ=           -107.2283
   XY=             28.5356   XZ=              0.0256   YZ=             -0.0153

  Exact polarizability: 381.661   0.972 204.964   0.030   0.009  90.437
 Approx polarizability: 490.895   2.646 405.201   0.052   0.068 175.722

                      1                      2                      3
                      A                      A                      A
 Frequencies --     16.2437                34.0865                39.1257
 Red. masses --      4.8237                 6.2496                 4.1503
 Frc consts  --      0.0007                 0.0043                 0.0037
 IR Inten    --      0.1637                 1.6380                 1.9248

                      4                      5                      6
                      A                      A                      A
 Frequencies --     59.0822                85.1478                95.0804
 Red. masses --      3.4385                 2.1585                 5.5304
 Frc consts  --      0.0071                 0.0092                 0.0295
 IR Inten    --      2.7628                 0.4575                 2.9583

                      7                      8                      9
                      A                      A                      A
 Frequencies --    111.5494               143.2143               155.2369
 Red. masses --      7.9617                 3.6474                 2.8608
 Frc consts  --      0.0584                 0.0441                 0.0406
 IR Inten    --     11.0669                 0.3385                 2.5027

                     10                     11                     12
                      A                      A                      A
 Frequencies --    200.3672               201.9605               217.9434
 Red. masses --      1.3388                 5.9330                 5.8120
 Frc consts  --      0.0317                 0.1426                 0.1627
 IR Inten    --      2.4818                 2.8878                 3.9608

                     13                     14                     15
                      A                      A                      A
 Frequencies --    220.4196               251.6904               275.9999
 Red. masses --      3.8565                 3.3995                 3.1707
 Frc consts  --      0.1104                 0.1269                 0.1423
 IR Inten    --      4.6998                 1.5119                 0.4389

                     16                     17                     18
                      A                      A                      A
 Frequencies --    306.9157               378.3549               378.5650
 Red. masses --      4.2927                 5.2371                 4.6921
 Frc consts  --      0.2382                 0.4417                 0.3962
 IR Inten    --      2.1938                 6.2294                 5.0833

                     19                     20                     21
                      A                      A                      A
 Frequencies --    447.2171               464.6763               475.3432
 Red. masses --      4.8989                 4.2260                 6.1511
 Frc consts  --      0.5773                 0.5376                 0.8189
 IR Inten    --      3.7902                 0.2112                 0.8972

                     22                     23                     24
                      A                      A                      A
 Frequencies --    508.9282               593.1241               599.4176
 Red. masses --      6.2072                 3.9729                 4.7216
 Frc consts  --      0.9472                 0.8235                 0.9995
 IR Inten    --      1.1787                 0.4733                99.3340

                     25                     26                     27
                      A                      A                      A
 Frequencies --    645.6129               651.6167               681.5938
 Red. masses --      3.1182                 5.4754                 6.4992
 Frc consts  --      0.7658                 1.3698                 1.7790
 IR Inten    --      1.3577                 6.2752                10.2039

                     28                     29                     30
                      A                      A                      A
 Frequencies --    719.6307               775.9958               810.0897
 Red. masses --      5.1420                 7.7952                 4.6225
 Frc consts  --      1.5689                 2.7657                 1.7873
 IR Inten    --      0.0938                 7.4372                 7.6930

                     31                     32                     33
                      A                      A                      A
 Frequencies --    841.9500               858.2378               864.2875
 Red. masses --      1.6872                 3.2723                 6.3968
 Frc consts  --      0.7047                 1.4201                 2.8154
 IR Inten    --      0.8928                 1.8742                 0.0212

                     34                     35                     36
                      A                      A                      A
 Frequencies --    877.2733               885.1435               920.7945
 Red. masses --      2.2342                 4.2375                 1.8519
 Frc consts  --      1.0131                 1.9561                 0.9251
 IR Inten    --      3.9575                87.7765                 0.2169

                     37                     38                     39
                      A                      A                      A
 Frequencies --    929.0913               955.0621               984.6321
 Red. masses --      8.2400                 1.8381                 1.2488
 Frc consts  --      4.1908                 0.9878                 0.7134
 IR Inten    --     34.6459                47.5437                 5.3789

                     40                     41                     42
                      A                      A                      A
 Frequencies --   1016.7506              1021.3989              1049.2951
 Red. masses --      1.1798                 1.1321                 1.1271
 Frc consts  --      0.7186                 0.6959                 0.7311
 IR Inten    --      0.0918                12.5955                36.5137

                     43                     44                     45
                      A                      A                      A
 Frequencies --   1061.0991              1063.2327              1069.3117
 Red. masses --      2.8823                 1.5870                 1.2707
 Frc consts  --      1.9121                 1.0570                 0.8561
 IR Inten    --     67.2037                 1.7630                 1.5160

                     46                     47                     48
                      A                      A                      A
 Frequencies --   1078.3575              1119.5953              1130.4109
 Red. masses --      6.2357                 2.4834                 4.0845
 Frc consts  --      4.2723                 1.8341                 3.0751
 IR Inten    --     10.2702                27.4409                24.5522

                     49                     50                     51
                      A                      A                      A
 Frequencies --   1135.6690              1140.1814              1163.2554
 Red. masses --      1.3486                 2.1773                 4.0147
 Frc consts  --      1.0248                 1.6677                 3.2007
 IR Inten    --      6.7927                95.9747                39.0222

                     52                     53                     54
                      A                      A                      A
 Frequencies --   1184.2733              1214.7909              1225.9929
 Red. masses --      2.2353                 2.3973                 2.2834
 Frc consts  --      1.8471                 2.0844                 2.0221
 IR Inten    --      4.7338                15.9834                 1.5608

                     55                     56                     57
                      A                      A                      A
 Frequencies --   1268.8446              1282.1638              1288.2159
 Red. masses --      1.5737                 2.1189                 2.4573
 Frc consts  --      1.4928                 2.0523                 2.4026
 IR Inten    --      7.7610                45.8126                59.2255

                     58                     59                     60
                      A                      A                      A
 Frequencies --   1316.3207              1335.0293              1340.0350
 Red. masses --      1.5693                 1.3781                 1.4051
 Frc consts  --      1.6021                 1.4472                 1.4866
 IR Inten    --    100.3926                66.1036               105.4665

                     61                     62                     63
                      A                      A                      A
 Frequencies --   1363.0288              1384.6698              1387.4086
 Red. masses --      1.5743                 1.9033                 1.9593
 Frc consts  --      1.7233                 2.1500                 2.2221
 IR Inten    --     19.8734                31.6063                22.4149

                     64                     65                     66
                      A                      A                      A
 Frequencies --   1407.9285              1436.7602              1472.8210
 Red. masses --      1.2900                 1.8146                 1.0452
 Frc consts  --      1.5066                 2.2070                 1.3358
 IR Inten    --      4.2329                 5.3865                 7.1444

                     67                     68                     69
                      A                      A                      A
 Frequencies --   1481.5691              1635.8367              1677.1019
 Red. masses --      1.0851                 5.0030                 4.9672
 Frc consts  --      1.4033                 7.8879                 8.2315
 IR Inten    --     35.2694               434.2142               223.5056

                     70                     71                     72
                      A                      A                      A
 Frequencies --   1682.6393              1925.6027              2037.2320
 Red. masses --      5.2733                12.7013                11.8319
 Frc consts  --      8.7966                27.7479                28.9324
 IR Inten    --     38.4189               719.2796               748.6536

                     73                     74                     75
                      A                      A                      A
 Frequencies --   3021.3451              3068.0907              3123.0187
 Red. masses --      1.0381                 1.0975                 1.0985
 Frc consts  --      5.5834                 6.0869                 6.3122
 IR Inten    --     12.8675                 9.3301                 7.0405

                     76                     77                     78
                      A                      A                      A
 Frequencies --   3139.6656              3153.9750              3156.8605
 Red. masses --      1.0894                 1.0887                 1.0902
 Frc consts  --      6.3272                 6.3809                 6.4011
 IR Inten    --      9.2628                 2.2993                 0.9967

                     79                     80                     81
                      A                      A                      A
 Frequencies --   3158.8344              3171.4515              3177.1460
 Red. masses --      1.0898                 1.0874                 1.0882
 Frc consts  --      6.4072                 6.4438                 6.4718
 IR Inten    --      5.0217                 5.7698                 9.5674

                     82                     83                     84
                      A                      A                      A
 Frequencies --   3183.2527              3240.1603              3249.4137
 Red. masses --      1.0862                 1.0943                 1.0956
 Frc consts  --      6.4850                 6.7689                 6.8158
 IR Inten    --     16.6324                 2.6968                 1.0759

 - Thermochemistry -
 -------------------
 Temperature   298.150 Kelvin.  Pressure   1.00000 Atm.
 Atom     1 has atomic number  6 and mass  12.00000

 Molecular mass:   236.08373 amu.
 Principal axes and moments of inertia in atomic units:
                           1         2         3
     Eigenvalues --  1265.44092********************
           X            0.99994   0.01080   0.00001
           Y           -0.01080   0.99994  -0.00002
           Z           -0.00001   0.00002   1.00000
 This molecule is an asymmetric top.
 Rotational symmetry number  1.
 Warning -- assumption of classical behavior for rotation
           may cause significant error
 Rotational temperatures (Kelvin)      0.06845     0.00534     0.00499
 Rotational constants (GHZ):           1.42618     0.11123     0.10390
 Zero-point vibrational energy     597539.1 (Joules/Mol)
                                  142.81528 (Kcal/Mol)
 Warning -- explicit consideration of  24 degrees of freedom as
           vibrations may cause significant error
 Vibrational temperatures:     23.37    49.04    56.29    85.01   122.51
          (Kelvin)            136.80   160.49   206.05   223.35   288.28
                              290.58   313.57   317.13   362.13   397.10
                              441.58   544.37   544.67   643.45   668.57
                              683.91   732.23   853.37   862.43   928.89
                              937.53   980.66  1035.39  1116.48  1165.54
                             1211.38  1234.81  1243.52  1262.20  1273.52
                             1324.82  1336.76  1374.12  1416.67  1462.88
                             1469.57  1509.70  1526.68  1529.75  1538.50
                             1551.52  1610.85  1626.41  1633.97  1640.47
                             1673.67  1703.91  1747.81  1763.93  1825.58
                             1844.75  1853.46  1893.89  1920.81  1928.01
                             1961.09  1992.23  1996.17  2025.70  2067.18
                             2119.06  2131.65  2353.60  2412.98  2420.94
                             2770.51  2931.12  4347.04  4414.30  4493.33
                             4517.28  4537.87  4542.02  4544.86  4563.01
                             4571.20  4579.99  4661.87  4675.18

 Zero-point correction=                           0.227591 (Hartree/Particle)
 Thermal correction to Energy=                    0.244512
 Thermal correction to Enthalpy=                  0.245456
 Thermal correction to Gibbs Free Energy=         0.179945
 Sum of electronic and zero-point Energies=           -766.869491
 Sum of electronic and thermal Energies=              -766.852569
 Sum of electronic and thermal Enthalpies=            -766.851625
 Sum of electronic and thermal Free Energies=         -766.917137

                     E (Thermal)             CV                S
                      KCal/Mol        Cal/Mol-Kelvin    Cal/Mol-Kelvin
 Total                  153.434             61.522            137.881
 Electronic               0.000              0.000              0.000
 Translational            0.889              2.981             42.279
 Rotational               0.889              2.981             34.233
 Vibrational            151.656             55.561             61.370
 Vibration     1          0.593              1.986              7.047
 Vibration     2          0.594              1.983              5.576
 Vibration     3          0.594              1.981              5.303
 Vibration     4          0.596              1.974              4.488
 Vibration     5          0.601              1.959              3.769
 Vibration     6          0.603              1.953              3.553
 Vibration     7          0.607              1.940              3.242
 Vibration     8          0.616              1.910              2.760
 Vibration     9          0.620              1.897              2.607
 Vibration    10          0.638              1.839              2.130
 Vibration    11          0.639              1.837              2.115
 Vibration    12          0.646              1.814              1.976
 Vibration    13          0.647              1.810              1.956
 Vibration    14          0.664              1.760              1.719
 Vibration    15          0.678              1.718              1.558
 Vibration    16          0.697              1.661              1.379
 Vibration    17          0.749              1.516              1.046
 Vibration    18          0.749              1.516              1.045
 Vibration    19          0.806              1.367              0.804
 Vibration    20          0.822              1.328              0.753
 Vibration    21          0.832              1.305              0.723
 Vibration    22          0.864              1.230              0.636
 Vibration    23          0.951              1.046              0.462
 Vibration    24          0.957              1.033              0.451

                           ! Non-Optimized Parameters !
 Normal termination of Gaussian 16 at Sun May 28 06:40:19 2023.
