 Gaussian 16, Revision A.03,
 Gaussian 16:  ES64L-G16RevA.03 25-Dec-2016

 -----------------------------
 # opt freq b3lyp/6-31g(2df,p)
 -----------------------------

 -------------------
 Title Card Required
 -------------------
 Symbolic Z-matrix:
 Charge =  0 Multiplicity = 1

 SCF Done:  E(RB3LYP) =  -644.202858480     A.U. after   14 cycles
 SCF Done:  E(RB3LYP) =  -644.228930112     A.U. after   14 cycles
 SCF Done:  E(RB3LYP) =  -644.234711346     A.U. after   13 cycles
 SCF Done:  E(RB3LYP) =  -644.237328453     A.U. after   13 cycles
 SCF Done:  E(RB3LYP) =  -644.239393729     A.U. after   14 cycles
 SCF Done:  E(RB3LYP) =  -644.240364433     A.U. after   13 cycles
 SCF Done:  E(RB3LYP) =  -644.240684716     A.U. after   11 cycles
 SCF Done:  E(RB3LYP) =  -644.240762237     A.U. after   11 cycles
 SCF Done:  E(RB3LYP) =  -644.240783556     A.U. after   10 cycles
 SCF Done:  E(RB3LYP) =  -644.240802017     A.U. after   10 cycles
 SCF Done:  E(RB3LYP) =  -644.240815572     A.U. after   10 cycles
 SCF Done:  E(RB3LYP) =  -644.240818538     A.U. after    9 cycles
 SCF Done:  E(RB3LYP) =  -644.240822229     A.U. after    9 cycles
 SCF Done:  E(RB3LYP) =  -644.240823725     A.U. after    8 cycles
 SCF Done:  E(RB3LYP) =  -644.240823919     A.U. after    7 cycles
 SCF Done:  E(RB3LYP) =  -644.240823966     A.U. after    7 cycles
 Optimization completed.
    -- Stationary point found.
 Normal termination of Gaussian 16 at Mon May 29 17:04:12 2023.

 ----------------------------------------------------------------------
 #N Geom=AllCheck Guess=TCheck SCRF=Check GenChk RB3LYP/6-31G(2df,p) Fr
 eq
 ----------------------------------------------------------------------

 Structure from the checkpoint file:  "CC1dCCdCC1CdNOCdNN1CN1.chk"
 -------------------
 Title Card Required
 -------------------
 Charge =  0 Multiplicity = 1

                         Standard orientation:
 ---------------------------------------------------------------------
 Center     Atomic      Atomic             Coordinates (Angstroms)
 Number     Number       Type             X           Y           Z
 ---------------------------------------------------------------------
      1          6           0        3.029141    2.262564    0.072074
      2          6           0        3.418800    0.821101    0.024118
      3          6           0        4.549161    0.265889   -0.455874
      4          6           0        4.513194   -1.188846   -0.277139
      5          6           0        3.360728   -1.541063    0.317969
      6          6           0        2.532537   -0.297285    0.562518
      7          6           0        1.226906   -0.360040   -0.174622
      8          7           0        0.131752   -0.206491    0.456107
      9          8           0       -0.960439   -0.299287   -0.439486
     10          6           0       -2.126793   -0.135196    0.219570
     11          7           0       -3.206093   -0.188613   -0.440953
     12          7           0       -4.314988   -0.012290    0.452161
     13          6           0       -5.525079   -0.521099   -0.156757
     14          7           0       -5.288797    0.903427   -0.226028
     15          1           0        3.780034    2.889009   -0.416519
     16          1           0        2.918228    2.613716    1.105876
     17          1           0        2.064921    2.440014   -0.419205
     18          1           0        5.377281    0.807364   -0.897711
     19          1           0        5.310017   -1.859110   -0.575211
     20          1           0        3.026406   -2.535223    0.580219
     21          1           0        2.316558   -0.153227    1.628891
     22          1           0        1.244090   -0.533621   -1.251399
     23          1           0       -2.039122    0.030456    1.292581
     24          1           0       -6.255869   -0.930998    0.537296
     25          1           0       -5.422936   -1.039867   -1.105679
     26          1           0       -5.760789    1.357397    0.556606
 ---------------------------------------------------------------------

 SCF Done:  E(RB3LYP) =  -644.240823966     A.U. after    1 cycles

 The electronic state is 1-A.
 Alpha  occ. eigenvalues --  -19.21107 -14.39517 -14.37952 -14.34731 -14.33211
 Alpha  occ. eigenvalues --  -10.26638 -10.24079 -10.23124 -10.21263 -10.20082
 Alpha  occ. eigenvalues --  -10.19472 -10.19112 -10.19059 -10.18951  -1.11976
 Alpha  occ. eigenvalues --   -1.04184  -0.92860  -0.88782  -0.86097  -0.75900
 Alpha  occ. eigenvalues --   -0.73675  -0.70278  -0.67405  -0.64153  -0.60262
 Alpha  occ. eigenvalues --   -0.58683  -0.55335  -0.54755  -0.53432  -0.50824
 Alpha  occ. eigenvalues --   -0.50025  -0.48528  -0.45753  -0.45443  -0.42788
 Alpha  occ. eigenvalues --   -0.42407  -0.40535  -0.40256  -0.39648  -0.38108
 Alpha  occ. eigenvalues --   -0.37620  -0.36419  -0.35985  -0.33521  -0.31609
 Alpha  occ. eigenvalues --   -0.31340  -0.30057  -0.27361  -0.24628  -0.23221
 Alpha  occ. eigenvalues --   -0.22258
 Alpha virt. eigenvalues --   -0.02911  -0.01809   0.02114   0.07181   0.07855
 Alpha virt. eigenvalues --    0.09848   0.10505   0.11141   0.11910   0.12514
 Alpha virt. eigenvalues --    0.13384   0.14273   0.14635   0.15820   0.16289

 Mulliken charges:
               1
     1  C   -0.489848
     2  C    0.278836
     3  C   -0.196713
     4  C   -0.083213
     5  C   -0.123850
     6  C   -0.189488
     7  C    0.072996
     8  N   -0.100926
     9  O   -0.205739
    10  C    0.186926
    11  N   -0.199090
    12  N   -0.127246
    13  C   -0.149264
    14  N   -0.272530
    15  H    0.128971
    16  H    0.133731
    17  H    0.137368
    18  H    0.100742
    19  H    0.106689
    20  H    0.113090
    21  H    0.117135
    22  H    0.135321
    23  H    0.124575
    24  H    0.118093
    25  H    0.137753
    26  H    0.245679
 Sum of Mulliken charges =  -0.00000

 Dipole moment (field-independent basis, Debye):
    X=              2.3222    Y=             -0.3628    Z=              1.3186  Tot=              2.6949
 Quadrupole moment (field-independent basis, Debye-Ang):
   XX=            -66.1584   YY=            -77.5753   ZZ=            -83.0486
   XY=              3.4464   XZ=             -8.9384   YZ=              1.8726

  Exact polarizability: 219.356  -6.189 111.770 -10.743   1.773  86.267
 Approx polarizability: 269.901 -11.188 170.534 -19.107   1.765 145.358

                      1                      2                      3
                      A                      A                      A
 Frequencies --     24.3995                35.3390                53.4111
 Red. masses --      5.1294                 3.8868                 4.3125
 Frc consts  --      0.0018                 0.0029                 0.0072
 IR Inten    --      1.0155                 0.7816                 0.3019

                      4                      5                      6
                      A                      A                      A
 Frequencies --     77.0868                96.2264               106.2275
 Red. masses --      4.0962                 4.4213                 3.1060
 Frc consts  --      0.0143                 0.0241                 0.0207
 IR Inten    --      7.8007                 1.9568                 3.2795

                      7                      8                      9
                      A                      A                      A
 Frequencies --    146.6099               201.4568               219.0823
 Red. masses --      1.3080                 2.9790                 4.8151
 Frc consts  --      0.0166                 0.0712                 0.1362
 IR Inten    --      0.8429                 2.8154                 7.4026

                     10                     11                     12
                      A                      A                      A
 Frequencies --    249.2079               280.6692               302.4635
 Red. masses --      4.5741                 2.8522                 2.9098
 Frc consts  --      0.1674                 0.1324                 0.1568
 IR Inten    --      2.3939                12.0135                 3.7658

                     13                     14                     15
                      A                      A                      A
 Frequencies --    311.4722               410.6365               422.9203
 Red. masses --      4.5319                 4.8010                 3.2362
 Frc consts  --      0.2590                 0.4770                 0.3410
 IR Inten    --      2.2789                 3.5836                 0.6157

                     16                     17                     18
                      A                      A                      A
 Frequencies --    492.7715               517.0169               578.2549
 Red. masses --      5.8360                 4.4231                 2.9488
 Frc consts  --      0.8349                 0.6966                 0.5809
 IR Inten    --     24.1604                 2.1918                 0.7988

                     19                     20                     21
                      A                      A                      A
 Frequencies --    601.0207               632.5191               653.9832
 Red. masses --      4.9636                 4.1023                 2.9217
 Frc consts  --      1.0564                 0.9670                 0.7362
 IR Inten    --      6.4873                 4.8496                 3.2301

                     22                     23                     24
                      A                      A                      A
 Frequencies --    748.3788               755.5743               812.7762
 Red. masses --      2.7871                 2.0430                 5.4410
 Frc consts  --      0.9197                 0.6872                 2.1177
 IR Inten    --     20.5532                58.2693                 7.9281

                     25                     26                     27
                      A                      A                      A
 Frequencies --    853.5209               879.1722               913.2332
 Red. masses --      4.1913                 1.5737                 2.4036
 Frc consts  --      1.7990                 0.7167                 1.1811
 IR Inten    --     73.3288                10.5927                 6.7939

                     28                     29                     30
                      A                      A                      A
 Frequencies --    952.9534               960.4157               961.9002
 Red. masses --      2.8391                 1.6157                 2.0355
 Frc consts  --      1.5191                 0.8781                 1.1096
 IR Inten    --     29.5915                12.4230                41.7902

                     31                     32                     33
                      A                      A                      A
 Frequencies --    984.9600               985.5504              1010.6513
 Red. masses --      1.4303                 1.4884                 1.7010
 Frc consts  --      0.8175                 0.8518                 1.0237
 IR Inten    --     40.5716                35.1722                47.9744

                     34                     35                     36
                      A                      A                      A
 Frequencies --   1023.8009              1027.2830              1032.4224
 Red. masses --      1.8973                 2.2805                 1.5242
 Frc consts  --      1.1717                 1.4179                 0.9572
 IR Inten    --      7.4788                74.7309                17.5751

                     37                     38                     39
                      A                      A                      A
 Frequencies --   1061.1144              1077.7346              1113.6222
 Red. masses --      1.5576                 1.3006                 1.5616
 Frc consts  --      1.0333                 0.8901                 1.1411
 IR Inten    --      1.1063                 4.8956                 6.5437

                     40                     41                     42
                      A                      A                      A
 Frequencies --   1142.7053              1170.8871              1178.9862
 Red. masses --      1.8758                 1.2900                 1.7232
 Frc consts  --      1.4431                 1.0420                 1.4112
 IR Inten    --     11.3960                 4.5243                 3.0928

                     43                     44                     45
                      A                      A                      A
 Frequencies --   1212.2733              1223.5183              1245.1843
 Red. masses --      2.5389                 1.8598                 2.0054
 Frc consts  --      2.1984                 1.6404                 1.8320
 IR Inten    --    178.6244                11.8922                61.7289

                     46                     47                     48
                      A                      A                      A
 Frequencies --   1254.9701              1276.6560              1295.0814
 Red. masses --      2.0520                 1.3665                 1.9576
 Frc consts  --      1.9041                 1.3122                 1.9345
 IR Inten    --    184.1904                 2.5059                 3.0708

                     49                     50                     51
                      A                      A                      A
 Frequencies --   1329.3770              1338.6528              1364.0096
 Red. masses --      1.3620                 1.5123                 1.9717
 Frc consts  --      1.4181                 1.5967                 2.1613
 IR Inten    --     13.8498                 7.2541               110.9576

                     52                     53                     54
                      A                      A                      A
 Frequencies --   1379.3065              1417.6466              1476.8794
 Red. masses --      1.9635                 1.2618                 1.0452
 Frc consts  --      2.2009                 1.4941                 1.3432
 IR Inten    --      2.9112                 0.0640                 6.0952

                     55                     56                     57
                      A                      A                      A
 Frequencies --   1486.5882              1506.3048              1585.3249
 Red. masses --      1.0820                 1.1432                 6.3720
 Frc consts  --      1.4088                 1.5282                 9.4354
 IR Inten    --      5.6144                 0.5483                 3.9319

                     58                     59                     60
                      A                      A                      A
 Frequencies --   1670.1817              1696.8678              1737.1362
 Red. masses --      5.9478                 8.7538                 8.8119
 Frc consts  --      9.7753                14.8506                15.6670
 IR Inten    --      6.3388                69.9414               468.2189

                     61                     62                     63
                      A                      A                      A
 Frequencies --   3020.2193              3044.0156              3066.6262
 Red. masses --      1.0388                 1.0814                 1.0978
 Frc consts  --      5.5829                 5.9036                 6.0829
 IR Inten    --     23.0325                 2.4940                14.0752

                     64                     65                     66
                      A                      A                      A
 Frequencies --   3100.3837              3113.4895              3125.4259
 Red. masses --      1.0510                 1.0992                 1.0900
 Frc consts  --      5.9520                 6.2780                 6.2735
 IR Inten    --     35.0187                16.1246                 4.3779

                     67                     68                     69
                      A                      A                      A
 Frequencies --   3144.6082              3199.4911              3199.6605
 Red. masses --      1.0924                 1.0898                 1.1197
 Frc consts  --      6.3647                 6.5727                 6.7539
 IR Inten    --      6.5590                12.1232                 9.3038

                     70                     71                     72
                      A                      A                      A
 Frequencies --   3212.2919              3238.3472              3458.2339
 Red. masses --      1.0919                 1.1032                 1.0765
 Frc consts  --      6.6387                 6.8162                 7.5852
 IR Inten    --     11.6164                 8.4000                 0.3575

 - Thermochemistry -
 -------------------
 Temperature   298.150 Kelvin.  Pressure   1.00000 Atm.
 Atom     1 has atomic number  6 and mass  12.00000

 Molecular mass:   192.10111 amu.
 Principal axes and moments of inertia in atomic units:
                           1         2         3
     Eigenvalues --   730.857758735.197629231.48267
           X            0.99998   0.00581  -0.00257
           Y           -0.00579   0.99993   0.00988
           Z            0.00263  -0.00987   0.99995
 This molecule is an asymmetric top.
 Rotational symmetry number  1.
 Warning -- assumption of classical behavior for rotation
           may cause significant error
 Rotational temperatures (Kelvin)      0.11851     0.00992     0.00938
 Rotational constants (GHZ):           2.46935     0.20661     0.19550
 Zero-point vibrational energy     541185.6 (Joules/Mol)
                                  129.34647 (Kcal/Mol)
 Warning -- explicit consideration of  19 degrees of freedom as
           vibrations may cause significant error
 Vibrational temperatures:     35.11    50.84    76.85   110.91   138.45
          (Kelvin)            152.84   210.94   289.85   315.21   358.55
                              403.82   435.18   448.14   590.81   608.49
                              708.99   743.87   831.98   864.73   910.05
                              940.94  1076.75  1087.10  1169.40  1228.03
                             1264.93  1313.94  1371.09  1381.82  1383.96
                             1417.14  1417.99  1454.10  1473.02  1478.03
                             1485.43  1526.71  1550.62  1602.25  1644.10
                             1684.65  1696.30  1744.19  1760.37  1791.54
                             1805.62  1836.82  1863.33  1912.68  1926.02
                             1962.51  1984.51  2039.68  2124.90  2138.87
                             2167.24  2280.93  2403.02  2441.41  2499.35
                             4345.42  4379.66  4412.19  4460.76  4479.62
                             4496.79  4524.39  4603.35  4603.60  4621.77
                             4659.26  4975.63

 Zero-point correction=                           0.206127 (Hartree/Particle)
 Thermal correction to Energy=                    0.219984
 Thermal correction to Enthalpy=                  0.220928
 Thermal correction to Gibbs Free Energy=         0.163092
 Sum of electronic and zero-point Energies=           -644.034697
 Sum of electronic and thermal Energies=              -644.020840
 Sum of electronic and thermal Enthalpies=            -644.019896
 Sum of electronic and thermal Free Energies=         -644.077732

                     E (Thermal)             CV                S
                      KCal/Mol        Cal/Mol-Kelvin    Cal/Mol-Kelvin
 Total                  138.042             50.214            121.725
 Electronic               0.000              0.000              0.000
 Translational            0.889              2.981             41.664
 Rotational               0.889              2.981             32.444
 Vibrational            136.264             44.252             47.617
 Vibration     1          0.593              1.985              6.239
 Vibration     2          0.594              1.982              5.505
 Vibration     3          0.596              1.976              4.687
 Vibration     4          0.599              1.964              3.964
 Vibration     5          0.603              1.952              3.529
 Vibration     6          0.605              1.944              3.337
 Vibration     7          0.617              1.906              2.716
 Vibration     8          0.638              1.838              2.120
 Vibration     9          0.647              1.812              1.967
 Vibration    10          0.662              1.764              1.736
 Vibration    11          0.680              1.709              1.530
 Vibration    12          0.694              1.669              1.403
 Vibration    13          0.700              1.652              1.354
 Vibration    14          0.775              1.447              0.924
 Vibration    15          0.785              1.420              0.882
 Vibration    16          0.848              1.266              0.676
 Vibration    17          0.872              1.212              0.617
 Vibration    18          0.935              1.078              0.489
 Vibration    19          0.959              1.030              0.448

                           ! Non-Optimized Parameters !
 Normal termination of Gaussian 16 at Mon May 29 18:09:33 2023.
