 Gaussian 16, Revision A.03,
 Gaussian 16:  ES64L-G16RevA.03 25-Dec-2016

 -----------------------------
 # opt freq b3lyp/6-31g(2df,p)
 -----------------------------

 -------------------
 Title Card Required
 -------------------
 Symbolic Z-matrix:
 Charge =  0 Multiplicity = 1

 SCF Done:  E(RB3LYP) =  -559.152854444     A.U. after   12 cycles
 SCF Done:  E(RB3LYP) =  -559.164183400     A.U. after   11 cycles
 SCF Done:  E(RB3LYP) =  -559.177670947     A.U. after   10 cycles
 SCF Done:  E(RB3LYP) =  -559.185621377     A.U. after   11 cycles
 SCF Done:  E(RB3LYP) =  -559.191840003     A.U. after   11 cycles
 SCF Done:  E(RB3LYP) =  -559.187303025     A.U. after   13 cycles
 SCF Done:  E(RB3LYP) =  -559.197720933     A.U. after   10 cycles
 SCF Done:  E(RB3LYP) =  -559.198898879     A.U. after   10 cycles
 SCF Done:  E(RB3LYP) =  -559.199267775     A.U. after   10 cycles
 SCF Done:  E(RB3LYP) =  -559.199435668     A.U. after   10 cycles
 SCF Done:  E(RB3LYP) =  -559.203067223     A.U. after    9 cycles
 SCF Done:  E(RB3LYP) =  -559.203137056     A.U. after   10 cycles
 SCF Done:  E(RB3LYP) =  -559.203135267     A.U. after    9 cycles
 SCF Done:  E(RB3LYP) =  -559.203155023     A.U. after   10 cycles
 SCF Done:  E(RB3LYP) =  -559.203151590     A.U. after    9 cycles
 SCF Done:  E(RB3LYP) =  -559.203157505     A.U. after    9 cycles
 SCF Done:  E(RB3LYP) =  -559.203158303     A.U. after    7 cycles
 SCF Done:  E(RB3LYP) =  -559.203158459     A.U. after    6 cycles
 SCF Done:  E(RB3LYP) =  -559.203158515     A.U. after    6 cycles
 Optimization completed.
    -- Stationary point found.
 Normal termination of Gaussian 16 at Sun May 28 17:27:10 2023.

 ----------------------------------------------------------------------
 #N Geom=AllCheck Guess=TCheck SCRF=Check GenChk RB3LYP/6-31G(2df,p) Fr
 eq
 ----------------------------------------------------------------------

 Structure from the checkpoint file:  "CC1NqCCqCrqCrCrCCC1qNrN.chk"
 -------------------
 Title Card Required
 -------------------
 Charge =  0 Multiplicity = 1

                         Standard orientation:
 ---------------------------------------------------------------------
 Center     Atomic      Atomic             Coordinates (Angstroms)
 Number     Number       Type             X           Y           Z
 ---------------------------------------------------------------------
      1          6           0        0.947345   -2.060397    0.240763
      2          6           0        1.013283   -0.658282   -0.359359
      3          7           0       -0.016310    0.294119    0.084898
      4          6           0       -1.227931   -0.080111    0.780218
      5          6           0       -2.541596   -0.019613   -0.051932
      6          6           0       -2.764019    1.399174   -0.599978
      7          6           0       -2.464897   -1.011780   -1.224014
      8          6           0       -3.706749   -0.403785    0.875786
      9          6           0        0.557771    1.608642    0.350727
     10          6           0        1.933012    1.554446   -0.313829
     11          6           0        2.364644    0.088482   -0.099047
     12          7           0        2.835181   -0.197588    1.258220
     13          7           0        3.475417   -0.262634   -0.972593
     14          1           0        0.040247   -2.587471   -0.068619
     15          1           0        0.997121   -2.053034    1.331837
     16          1           0        1.802521   -2.639997   -0.121221
     17          1           0        0.952494   -0.784713   -1.456157
     18          1           0       -1.350687    0.581189    1.653306
     19          1           0       -1.138193   -1.096050    1.183904
     20          1           0       -1.949419    1.689361   -1.269911
     21          1           0       -2.819468    2.135760    0.210065
     22          1           0       -3.700488    1.457605   -1.165936
     23          1           0       -1.619376   -0.777627   -1.877951
     24          1           0       -3.377593   -0.976129   -1.829269
     25          1           0       -2.345627   -2.041561   -0.867714
     26          1           0       -3.792196    0.292779    1.717859
     27          1           0       -3.572993   -1.410547    1.288414
     28          1           0       -4.659965   -0.390545    0.336409
     29          1           0        0.655874    1.803208    1.437027
     30          1           0       -0.062871    2.419285   -0.049726
     31          1           0        2.651090    2.260672    0.109720
     32          1           0        1.843444    1.764326   -1.386480
     33          1           0        2.129569    0.058666    1.941559
     34          1           0        3.654512    0.375761    1.439657
     35          1           0        3.195994   -0.190314   -1.946280
     36          1           0        3.740813   -1.228559   -0.800177
 ---------------------------------------------------------------------

 SCF Done:  E(RB3LYP) =  -559.203158515     A.U. after    1 cycles

 The electronic state is 1-A.
 Alpha  occ. eigenvalues --  -14.30533 -14.30474 -14.30434 -10.23342 -10.20330
 Alpha  occ. eigenvalues --  -10.20106 -10.19601 -10.18351 -10.17321 -10.16852
 Alpha  occ. eigenvalues --  -10.16596 -10.16346 -10.16308  -0.93678  -0.89557
 Alpha  occ. eigenvalues --   -0.83098  -0.80880  -0.75413  -0.73957  -0.67790
 Alpha  occ. eigenvalues --   -0.67561  -0.65738  -0.65033  -0.57186  -0.55367
 Alpha  occ. eigenvalues --   -0.52033  -0.50594  -0.49126  -0.46766  -0.46589
 Alpha  occ. eigenvalues --   -0.45215  -0.44078  -0.42587  -0.41825  -0.41022
 Alpha  occ. eigenvalues --   -0.40044  -0.39151  -0.38264  -0.37312  -0.36500
 Alpha  occ. eigenvalues --   -0.35903  -0.35662  -0.35098  -0.34508  -0.34283
 Alpha  occ. eigenvalues --   -0.33124  -0.31576  -0.31522  -0.31061  -0.24302
 Alpha  occ. eigenvalues --   -0.23248  -0.18645
 Alpha virt. eigenvalues --    0.06056   0.08222   0.09629   0.10589   0.12255
 Alpha virt. eigenvalues --    0.12616   0.13438   0.13644   0.13858   0.14388
 Alpha virt. eigenvalues --    0.14708   0.15305   0.16523   0.16928   0.18163

 Mulliken charges:
               1
     1  C   -0.412456
     2  C    0.042381
     3  N   -0.059917
     4  C   -0.184494
     5  C    0.278913
     6  C   -0.402258
     7  C   -0.405063
     8  C   -0.404397
     9  C   -0.172807
    10  C   -0.237672
    11  C    0.240675
    12  N   -0.524250
    13  N   -0.546363
    14  H    0.116060
    15  H    0.122065
    16  H    0.107572
    17  H    0.048702
    18  H    0.077374
    19  H    0.091506
    20  H    0.118329
    21  H    0.101170
    22  H    0.102965
    23  H    0.119654
    24  H    0.103337
    25  H    0.103858
    26  H    0.105786
    27  H    0.105788
    28  H    0.107577
    29  H    0.067146
    30  H    0.094124
    31  H    0.094387
    32  H    0.092918
    33  H    0.228986
    34  H    0.228298
    35  H    0.221743
    36  H    0.228363
 Sum of Mulliken charges =  -0.00000

 Dipole moment (field-independent basis, Debye):
    X=             -0.4092    Y=              0.2251    Z=              0.0006  Tot=              0.4670
 Quadrupole moment (field-independent basis, Debye-Ang):
   XX=            -89.1841   YY=            -83.3591   ZZ=            -80.9985
   XY=              0.5871   XZ=             -0.6239   YZ=              2.6444

  Exact polarizability: 148.205  -0.115 123.872  -2.687   1.953 115.298
 Approx polarizability: 185.681  -0.759 180.094  -3.317   2.641 180.995

                      1                      2                      3
                      A                      A                      A
 Frequencies --     33.9170                45.9564                75.8655
 Red. masses --      3.5386                 2.8304                 3.0330
 Frc consts  --      0.0024                 0.0035                 0.0103
 IR Inten    --      0.1338                 0.0076                 0.1017

                      4                      5                      6
                      A                      A                      A
 Frequencies --    113.6855               205.0294               216.9320
 Red. masses --      3.3342                 1.9959                 2.7294
 Frc consts  --      0.0254                 0.0494                 0.0757
 IR Inten    --      2.4838                 0.4559                 1.3350

                      7                      8                      9
                      A                      A                      A
 Frequencies --    223.2167               239.6606               251.8050
 Red. masses --      1.0981                 1.8678                 1.7909
 Frc consts  --      0.0322                 0.0632                 0.0669
 IR Inten    --      0.0149                 2.4496                10.8517

                     10                     11                     12
                      A                      A                      A
 Frequencies --    268.0600               269.6860               282.8031
 Red. masses --      1.3124                 1.2282                 1.6290
 Frc consts  --      0.0556                 0.0526                 0.0768
 IR Inten    --      4.4794                13.3235                 1.8021

                     13                     14                     15
                      A                      A                      A
 Frequencies --    287.3338               290.9654               295.0621
 Red. masses --      1.6358                 1.5107                 1.1474
 Frc consts  --      0.0796                 0.0754                 0.0589
 IR Inten    --     15.8601                 2.0678                 0.2153

                     16                     17                     18
                      A                      A                      A
 Frequencies --    331.8743               362.0866               379.9758
 Red. masses --      1.6370                 2.2148                 2.2889
 Frc consts  --      0.1062                 0.1711                 0.1947
 IR Inten    --     23.7130                 1.7412                 0.3824

                     19                     20                     21
                      A                      A                      A
 Frequencies --    393.6253               411.2334               436.1720
 Red. masses --      2.2571                 1.9727                 2.2419
 Frc consts  --      0.2061                 0.1966                 0.2513
 IR Inten    --      2.4840                 1.5199                 7.0364

                     22                     23                     24
                      A                      A                      A
 Frequencies --    464.9747               506.5242               538.2590
 Red. masses --      2.2594                 2.5117                 2.9283
 Frc consts  --      0.2878                 0.3797                 0.4999
 IR Inten    --      1.7487                 4.0291                 3.4031

                     25                     26                     27
                      A                      A                      A
 Frequencies --    608.3621               644.3563               741.4785
 Red. masses --      3.8386                 2.9286                 3.4936
 Frc consts  --      0.8370                 0.7164                 1.1317
 IR Inten    --      0.3628                 5.1994                 1.1886

                     28                     29                     30
                      A                      A                      A
 Frequencies --    745.0011               788.1736               831.5282
 Red. masses --      3.0705                 2.2140                 1.9123
 Frc consts  --      1.0041                 0.8104                 0.7790
 IR Inten    --      2.3126                 6.4212                26.4205

                     31                     32                     33
                      A                      A                      A
 Frequencies --    870.5622               896.9632               900.0022
 Red. masses --      1.5845                 1.8782                 2.2089
 Frc consts  --      0.7075                 0.8903                 1.0542
 IR Inten    --     92.6229                20.7349                 9.4454

                     34                     35                     36
                      A                      A                      A
 Frequencies --    912.6910               937.7617               938.7903
 Red. masses --      1.2972                 1.6248                 1.6631
 Frc consts  --      0.6367                 0.8419                 0.8636
 IR Inten    --    216.6892                 0.9887                 3.9467

                     37                     38                     39
                      A                      A                      A
 Frequencies --    953.6438               961.9182               984.2099
 Red. masses --      1.2474                 1.5841                 1.8791
 Frc consts  --      0.6684                 0.8636                 1.0724
 IR Inten    --      2.8255                16.4274                 2.7086

                     40                     41                     42
                      A                      A                      A
 Frequencies --   1011.9461              1029.5173              1044.0349
 Red. masses --      2.1368                 1.6796                 1.5285
 Frc consts  --      1.2892                 1.0489                 0.9816
 IR Inten    --      5.1503                 3.0085                 3.3573

                     43                     44                     45
                      A                      A                      A
 Frequencies --   1046.8733              1064.4868              1087.5932
 Red. masses --      1.4668                 1.6418                 1.6861
 Frc consts  --      0.9471                 1.0961                 1.1751
 IR Inten    --      3.1629                 6.5993                11.2219

                     46                     47                     48
                      A                      A                      A
 Frequencies --   1114.5577              1159.7737              1177.0525
 Red. masses --      2.3380                 2.1122                 1.5252
 Frc consts  --      1.7112                 1.6739                 1.2450
 IR Inten    --     10.1176                28.9999                13.0105

                     49                     50                     51
                      A                      A                      A
 Frequencies --   1201.5392              1234.1330              1235.6769
 Red. masses --      1.5172                 2.2834                 2.3756
 Frc consts  --      1.2905                 2.0490                 2.1372
 IR Inten    --     39.7980                 3.2297                25.0109

                     52                     53                     54
                      A                      A                      A
 Frequencies --   1262.0488              1266.3565              1272.5565
 Red. masses --      2.5166                 1.6172                 2.8358
 Frc consts  --      2.3616                 1.5280                 2.7057
 IR Inten    --     42.8771                15.1378                 9.5654

                     55                     56                     57
                      A                      A                      A
 Frequencies --   1284.2785              1319.2137              1348.0142
 Red. masses --      2.5340                 1.4011                 1.5115
 Frc consts  --      2.4624                 1.4366                 1.6183
 IR Inten    --     22.8166                 3.1025                43.3736

                     58                     59                     60
                      A                      A                      A
 Frequencies --   1360.0491              1372.9686              1388.6387
 Red. masses --      1.5148                 1.4780                 1.3220
 Frc consts  --      1.6509                 1.6415                 1.5020
 IR Inten    --     14.7466                 2.5064                 9.3102

                     61                     62                     63
                      A                      A                      A
 Frequencies --   1390.5118              1395.1987              1399.0280
 Red. masses --      1.3331                 1.3108                 1.3837
 Frc consts  --      1.5186                 1.5034                 1.5957
 IR Inten    --      6.0421                 2.9970                 5.9975

                     64                     65                     66
                      A                      A                      A
 Frequencies --   1406.1823              1412.8274              1432.3373
 Red. masses --      1.3506                 1.3793                 1.2552
 Frc consts  --      1.5735                 1.6221                 1.5172
 IR Inten    --      6.6045                13.7127                13.4340

                     67                     68                     69
                      A                      A                      A
 Frequencies --   1469.4015              1478.5322              1480.6569
 Red. masses --      1.0829                 1.0506                 1.0849
 Frc consts  --      1.3776                 1.3532                 1.4014
 IR Inten    --      2.7446                 0.2082                 2.6274

                     70                     71                     72
                      A                      A                      A
 Frequencies --   1484.0098              1487.3029              1489.9543
 Red. masses --      1.0721                 1.0469                 1.0489
 Frc consts  --      1.3911                 1.3644                 1.3720
 IR Inten    --      2.8705                 1.1972                 1.3372

                     73                     74                     75
                      A                      A                      A
 Frequencies --   1498.6818              1506.4594              1506.9186
 Red. masses --      1.0535                 1.0600                 1.0596
 Frc consts  --      1.3941                 1.4173                 1.4176
 IR Inten    --      2.2538                 2.8443                 5.2330

                     76                     77                     78
                      A                      A                      A
 Frequencies --   1519.7363              1543.3764              1634.3752
 Red. masses --      1.0625                 1.0870                 1.1045
 Frc consts  --      1.4458                 1.5255                 1.7383
 IR Inten    --     17.0306                 4.5103                52.9932

                     79                     80                     81
                      A                      A                      A
 Frequencies --   1637.3169              2894.4831              2902.7519
 Red. masses --      1.1085                 1.0765                 1.0816
 Frc consts  --      1.7509                 5.3141                 5.3698
 IR Inten    --     14.8125               123.6894                37.5201

                     82                     83                     84
                      A                      A                      A
 Frequencies --   2967.0280              3018.2000              3020.2424
 Red. masses --      1.0677                 1.0352                 1.0394
 Frc consts  --      5.5377                 5.5561                 5.5861
 IR Inten    --     45.2290                29.9887                18.1027

                     85                     86                     87
                      A                      A                      A
 Frequencies --   3024.1933              3028.1494              3039.9466
 Red. masses --      1.0694                 1.0415                 1.0715
 Frc consts  --      5.7626                 5.6269                 5.8341
 IR Inten    --     36.2570                19.1014                59.9695

                     88                     89                     90
                      A                      A                      A
 Frequencies --   3041.2932              3046.8918              3082.2932
 Red. masses --      1.0601                 1.0658                 1.1015
 Frc consts  --      5.7771                 5.8298                 6.1655
 IR Inten    --      0.2926                32.9906                 0.0562

                     91                     92                     93
                      A                      A                      A
 Frequencies --   3085.5236              3086.5581              3092.7885
 Red. masses --      1.1008                 1.1007                 1.1003
 Frc consts  --      6.1749                 6.1781                 6.2012
 IR Inten    --     17.9318                49.4421                70.0709

                     94                     95                     96
                      A                      A                      A
 Frequencies --   3102.6218              3102.8180              3105.1307
 Red. masses --      1.0999                 1.0996                 1.0998
 Frc consts  --      6.2380                 6.2371                 6.2478
 IR Inten    --     23.9820                 8.3585                31.4260

                     97                     98                     99
                      A                      A                      A
 Frequencies --   3107.2803              3126.5975              3486.5265
 Red. masses --      1.0995                 1.1012                 1.0485
 Frc consts  --      6.2546                 6.3425                 7.5093
 IR Inten    --     56.2673                20.1316                 0.1377

                    100                    101                    102
                      A                      A                      A
 Frequencies --   3491.0458              3574.8491              3578.6448
 Red. masses --      1.0489                 1.0926                 1.0922
 Frc consts  --      7.5316                 8.2265                 8.2414
 IR Inten    --      0.2196                 0.3232                 0.2055

 - Thermochemistry -
 -------------------
 Temperature   298.150 Kelvin.  Pressure   1.00000 Atm.
 Atom     1 has atomic number  6 and mass  12.00000

 Molecular mass:   185.18920 amu.
 Principal axes and moments of inertia in atomic units:
                           1         2         3
     Eigenvalues --  1182.596383995.168024339.65602
           X            1.00000  -0.00021  -0.00025
           Y            0.00022   0.99994   0.01056
           Z            0.00025  -0.01056   0.99994
 This molecule is an asymmetric top.
 Rotational symmetry number  1.
 Warning -- assumption of classical behavior for rotation
           may cause significant error
 Rotational temperatures (Kelvin)      0.07324     0.02168     0.01996
 Rotational constants (GHZ):           1.52608     0.45173     0.41587
 Zero-point vibrational energy     867891.5 (Joules/Mol)
                                  207.43104 (Kcal/Mol)
 Warning -- explicit consideration of  25 degrees of freedom as
           vibrations may cause significant error
 Vibrational temperatures:     48.80    66.12   109.15   163.57   294.99
          (Kelvin)            312.12   321.16   344.82   362.29   385.68
                              388.02   406.89   413.41   418.63   424.53
                              477.49   520.96   546.70   566.34   591.67
                              627.55   668.99   728.78   774.43   875.30
                              927.08  1066.82  1071.89  1134.01  1196.38
                             1252.54  1290.53  1294.90  1313.16  1349.23
                             1350.71  1372.08  1383.99  1416.06  1455.96
                             1481.25  1502.13  1506.22  1531.56  1564.80
                             1603.60  1668.66  1693.52  1728.75  1775.64
                             1777.86  1815.81  1822.00  1830.93  1847.79
                             1898.05  1939.49  1956.81  1975.40  1997.94
                             2000.64  2007.38  2012.89  2023.18  2032.74
                             2060.81  2114.14  2127.28  2130.34  2135.16
                             2139.90  2143.71  2156.27  2167.46  2168.12
                             2186.56  2220.57  2351.50  2355.73  4164.52
                             4176.41  4268.89  4342.52  4345.46  4351.14
                             4356.83  4373.81  4375.74  4383.80  4434.73
                             4439.38  4440.87  4449.83  4463.98  4464.26
                             4467.59  4470.68  4498.48  5016.33  5022.84
                             5143.41  5148.87

 Zero-point correction=                           0.330562 (Hartree/Particle)
 Thermal correction to Energy=                    0.346038
 Thermal correction to Enthalpy=                  0.346982
 Thermal correction to Gibbs Free Energy=         0.289223
 Sum of electronic and zero-point Energies=           -558.872596
 Sum of electronic and thermal Energies=              -558.857120
 Sum of electronic and thermal Enthalpies=            -558.856176
 Sum of electronic and thermal Free Energies=         -558.913936

                     E (Thermal)             CV                S
                      KCal/Mol        Cal/Mol-Kelvin    Cal/Mol-Kelvin
 Total                  217.142             60.759            121.565
 Electronic               0.000              0.000              0.000
 Translational            0.889              2.981             41.555
 Rotational               0.889              2.981             31.395
 Vibrational            215.365             54.797             48.615
 Vibration     1          0.594              1.983              5.586
 Vibration     2          0.595              1.979              4.984
 Vibration     3          0.599              1.965              3.995
 Vibration     4          0.607              1.938              3.205
 Vibration     5          0.640              1.833              2.087
 Vibration     6          0.646              1.815              1.985
 Vibration     7          0.649              1.806              1.933
 Vibration     8          0.657              1.780              1.805
 Vibration     9          0.664              1.760              1.718
 Vibration    10          0.673              1.732              1.609
 Vibration    11          0.674              1.729              1.598
 Vibration    12          0.682              1.706              1.517
 Vibration    13          0.685              1.697              1.490
 Vibration    14          0.687              1.691              1.468
 Vibration    15          0.689              1.683              1.445
 Vibration    16          0.714              1.612              1.251
 Vibration    17          0.736              1.550              1.113
 Vibration    18          0.750              1.513              1.039
 Vibration    19          0.761              1.484              0.986
 Vibration    20          0.775              1.446              0.922
 Vibration    21          0.797              1.391              0.839
 Vibration    22          0.822              1.328              0.752
 Vibration    23          0.862              1.236              0.642
 Vibration    24          0.893              1.165              0.569
 Vibration    25          0.967              1.014              0.435

 Optimization completed.
    -- Stationary point found.
 Normal termination of Gaussian 16 at Sun May 28 19:46:22 2023.
