 Gaussian 16, Revision A.03,
 Gaussian 16:  ES64L-G16RevA.03 25-Dec-2016

 -----------------------------
 # opt freq b3lyp/6-31g(2df,p)
 -----------------------------

 -------------------
 Title Card Required
 -------------------
 Symbolic Z-matrix:
 Charge =  0 Multiplicity = 1

 SCF Done:  E(RB3LYP) =  -622.578318245     A.U. after   15 cycles
 SCF Done:  E(RB3LYP) =  -622.648716333     A.U. after   13 cycles
 SCF Done:  E(RB3LYP) =  -622.713958765     A.U. after   13 cycles
 SCF Done:  E(RB3LYP) =  -622.776638815     A.U. after   12 cycles
 SCF Done:  E(RB3LYP) =  -622.841546653     A.U. after   13 cycles
 SCF Done:  E(RB3LYP) =  -622.881552549     A.U. after   12 cycles
 SCF Done:  E(RB3LYP) =  -622.931390904     A.U. after   12 cycles
 SCF Done:  E(RB3LYP) =  -622.952177264     A.U. after   11 cycles
 SCF Done:  E(RB3LYP) =  -622.967336601     A.U. after   11 cycles
 SCF Done:  E(RB3LYP) =  -622.977605422     A.U. after   11 cycles
 SCF Done:  E(RB3LYP) =  -622.991579141     A.U. after   10 cycles
 SCF Done:  E(RB3LYP) =  -622.991684358     A.U. after   10 cycles
 SCF Done:  E(RB3LYP) =  -622.991748097     A.U. after    9 cycles
 SCF Done:  E(RB3LYP) =  -622.991778210     A.U. after    8 cycles
 SCF Done:  E(RB3LYP) =  -622.991784651     A.U. after    8 cycles
 SCF Done:  E(RB3LYP) =  -622.991786370     A.U. after    7 cycles
 SCF Done:  E(RB3LYP) =  -622.991786729     A.U. after    6 cycles
 SCF Done:  E(RB3LYP) =  -622.991787114     A.U. after    6 cycles
 SCF Done:  E(RB3LYP) =  -622.991787174     A.U. after    6 cycles
 Optimization completed.
    -- Stationary point found.
 Normal termination of Gaussian 16 at Wed May 24 23:15:47 2023.

 ----------------------------------------------------------------------
 #N Geom=AllCheck Guess=TCheck SCRF=Check GenChk RB3LYP/6-31G(2df,p) Fr
 eq
 ----------------------------------------------------------------------

 Structure from the checkpoint file:  "CC1OCCC2CCqCrC3qCrCC1C3C2.chk"
 -------------------
 Title Card Required
 -------------------
 Charge =  0 Multiplicity = 1

                         Standard orientation:
 ---------------------------------------------------------------------
 Center     Atomic      Atomic             Coordinates (Angstroms)
 Number     Number       Type             X           Y           Z
 ---------------------------------------------------------------------
      1          6           0        3.050686    1.189750    1.012598
      2          6           0        2.248178    1.091963   -0.275886
      3          8           0        2.296548   -0.232795   -0.955575
      4          6           0        2.303480   -1.561296   -0.393901
      5          6           0        0.950379   -2.428301   -0.395676
      6          6           0       -0.201087   -1.499251    0.026062
      7          6           0       -1.759837   -1.570941    0.218059
      8          6           0       -2.376512   -0.072287    0.610260
      9          6           0       -3.861724   -0.004517    0.254799
     10          6           0       -1.353030    0.927255   -0.053931
     11          6           0       -1.598046    0.681132   -1.587510
     12          6           0       -0.562501    2.405252   -0.168883
     13          6           0        0.721272    1.392393   -0.231442
     14          6           0       -0.070195    0.649731    0.804968
     15          6           0        0.216732   -0.736712    1.264778
     16          1           0        4.066393    0.809537    0.867362
     17          1           0        2.596117    0.658257    1.850517
     18          1           0        3.123429    2.245035    1.297147
     19          1           0        2.734821    1.719309   -1.029641
     20          1           0        2.726462   -1.552618    0.615267
     21          1           0        3.017798   -2.110590   -1.018537
     22          1           0        1.140010   -3.275878    0.276891
     23          1           0        0.791163   -2.836105   -1.400244
     24          1           0       -0.105543   -0.804410   -0.801165
     25          1           0       -2.033432   -2.243116    1.039388
     26          1           0       -2.278889   -1.931420   -0.675027
     27          1           0       -2.301308    0.021488    1.698256
     28          1           0       -4.045669   -0.133383   -0.815176
     29          1           0       -4.289808    0.957765    0.556034
     30          1           0       -4.416343   -0.791895    0.778200
     31          1           0       -1.818610   -0.347639   -1.869863
     32          1           0       -0.825546    1.044172   -2.265791
     33          1           0       -2.496518    1.266969   -1.817718
     34          1           0       -0.594257    3.036705    0.718809
     35          1           0       -0.790807    2.984305   -1.066170
     36          1           0        0.526408    0.940226   -1.194809
     37          1           0       -0.198041    1.302106    1.681409
     38          1           0       -0.393023   -1.006575    2.133317
     39          1           0        1.246047   -0.874911    1.580383
 ---------------------------------------------------------------------

 SCF Done:  E(RB3LYP) =  -622.991787174     A.U. after    1 cycles

 The electronic state is 1-A.
 Alpha  occ. eigenvalues --  -19.12549 -10.23786 -10.22648 -10.20045 -10.19696
 Alpha  occ. eigenvalues --  -10.19445 -10.18393 -10.18079 -10.17638 -10.17242
 Alpha  occ. eigenvalues --  -10.16796 -10.16792 -10.16600 -10.16581 -10.15316
 Alpha  occ. eigenvalues --   -0.99467  -0.86811  -0.80431  -0.77029  -0.75768
 Alpha  occ. eigenvalues --   -0.71790  -0.69938  -0.67894  -0.66206  -0.62665
 Alpha  occ. eigenvalues --   -0.61298  -0.58943  -0.55859  -0.53323  -0.50940
 Alpha  occ. eigenvalues --   -0.48900  -0.47647  -0.46586  -0.44602  -0.44035
 Alpha  occ. eigenvalues --   -0.42430  -0.42198  -0.41351  -0.40658  -0.39874
 Alpha  occ. eigenvalues --   -0.39498  -0.37888  -0.37552  -0.36714  -0.36459
 Alpha  occ. eigenvalues --   -0.35808  -0.35559  -0.34622  -0.32823  -0.32491
 Alpha  occ. eigenvalues --   -0.30746  -0.30330  -0.29855  -0.28196  -0.27625
 Alpha  occ. eigenvalues --   -0.25881  -0.24452  -0.22784
 Alpha virt. eigenvalues --    0.06685   0.08534   0.08797   0.09781   0.09934
 Alpha virt. eigenvalues --    0.11529   0.11953   0.12380   0.13166   0.13394
 Alpha virt. eigenvalues --    0.14143   0.14823   0.15183   0.15954   0.16139

 Mulliken charges:
               1
     1  C   -0.419309
     2  C    0.022057
     3  O   -0.313957
     4  C   -0.054490
     5  C   -0.354943
     6  C    0.175618
     7  C   -0.327544
     8  C   -0.060219
     9  C   -0.425053
    10  C    0.262655
    11  C   -0.417121
    12  C   -0.419125
    13  C    0.059722
    14  C    0.085282
    15  C   -0.276014
    16  H    0.123597
    17  H    0.127690
    18  H    0.122930
    19  H    0.090336
    20  H    0.107384
    21  H    0.100889
    22  H    0.091474
    23  H    0.096429
    24  H    0.115827
    25  H    0.096428
    26  H    0.098053
    27  H    0.075276
    28  H    0.115826
    29  H    0.112018
    30  H    0.110827
    31  H    0.118082
    32  H    0.122382
    33  H    0.112594
    34  H    0.108230
    35  H    0.098896
    36  H    0.120633
    37  H    0.049209
    38  H    0.075402
    39  H    0.072030
 Sum of Mulliken charges =  -0.00000

 Dipole moment (field-independent basis, Debye):
    X=             -0.0087    Y=              0.1311    Z=              0.9074  Tot=              0.9169
 Quadrupole moment (field-independent basis, Debye-Ang):
   XX=            -94.6883   YY=            -93.1953   ZZ=            -94.9495
   XY=              0.4403   XZ=              2.6148   YZ=             -0.2439

  Exact polarizability: 171.405  -0.619 154.563   1.191  -0.769 127.360
 Approx polarizability: 225.629  -0.503 230.064  -0.232  -2.464 215.221

                      1                      2                      3
                      A                      A                      A
 Frequencies --    129.5931               160.6308               167.6065
 Red. masses --      3.2331                 2.4571                 2.6174
 Frc consts  --      0.0320                 0.0374                 0.0433
 IR Inten    --      0.4879                 2.4005                 0.0619

                      4                      5                      6
                      A                      A                      A
 Frequencies --    203.4113               208.4042               214.9157
 Red. masses --      1.6568                 2.8166                 1.2467
 Frc consts  --      0.0404                 0.0721                 0.0339
 IR Inten    --      0.1754                 0.5655                 0.1843

                      7                      8                      9
                      A                      A                      A
 Frequencies --    230.1549               241.6000               255.4438
 Red. masses --      1.7528                 1.9505                 1.4543
 Frc consts  --      0.0547                 0.0671                 0.0559
 IR Inten    --      0.8716                 0.1922                 0.2305

                     10                     11                     12
                      A                      A                      A
 Frequencies --    290.0393               303.4383               318.6454
 Red. masses --      2.2629                 1.9941                 3.4119
 Frc consts  --      0.1122                 0.1082                 0.2041
 IR Inten    --      0.8675                 1.0667                 0.7862

                     13                     14                     15
                      A                      A                      A
 Frequencies --    343.9715               368.9416               373.6845
 Red. masses --      3.2978                 3.1832                 2.9752
 Frc consts  --      0.2299                 0.2553                 0.2448
 IR Inten    --      6.2856                 0.5569                 0.4992

                     16                     17                     18
                      A                      A                      A
 Frequencies --    416.3044               441.6398               473.5798
 Red. masses --      3.1753                 3.1128                 2.7978
 Frc consts  --      0.3242                 0.3577                 0.3697
 IR Inten    --      0.9653                 1.4031                 3.3184

                     19                     20                     21
                      A                      A                      A
 Frequencies --    485.4868               490.5993               528.6688
 Red. masses --      3.4061                 2.6832                 2.0142
 Frc consts  --      0.4730                 0.3805                 0.3317
 IR Inten    --      0.4797                 1.1963                 0.9373

                     22                     23                     24
                      A                      A                      A
 Frequencies --    543.6367               564.3287               612.8452
 Red. masses --      2.8298                 2.8557                 2.6936
 Frc consts  --      0.4928                 0.5358                 0.5961
 IR Inten    --      2.6787                 1.3412                 0.3135

                     25                     26                     27
                      A                      A                      A
 Frequencies --    676.7355               697.1735               704.9237
 Red. masses --      3.6635                 3.0353                 3.3022
 Frc consts  --      0.9885                 0.8692                 0.9668
 IR Inten    --     11.3027                12.8910                 5.8705

                     28                     29                     30
                      A                      A                      A
 Frequencies --    719.3176               720.4956               797.2931
 Red. masses --      3.3038                 3.1475                 2.3630
 Frc consts  --      1.0072                 0.9627                 0.8850
 IR Inten    --      3.0324                 2.0265                 0.6296

                     31                     32                     33
                      A                      A                      A
 Frequencies --    809.3539               827.2526               859.7957
 Red. masses --      2.7373                 2.2701                 2.1889
 Frc consts  --      1.0565                 0.9153                 0.9534
 IR Inten    --      9.1079                 1.5569                 1.5696

                     34                     35                     36
                      A                      A                      A
 Frequencies --    879.8109               897.4688               904.1622
 Red. masses --      1.6749                 1.8511                 3.2140
 Frc consts  --      0.7639                 0.8784                 1.5480
 IR Inten    --      4.1357                 1.3246                 0.9735

                     37                     38                     39
                      A                      A                      A
 Frequencies --    930.7405               954.0393               987.9880
 Red. masses --      2.1161                 2.0025                 1.8831
 Frc consts  --      1.0800                 1.0739                 1.0830
 IR Inten    --     35.0540                 7.6864                17.7305

                     40                     41                     42
                      A                      A                      A
 Frequencies --    989.9013              1005.1847              1014.1912
 Red. masses --      2.3023                 1.5549                 1.7191
 Frc consts  --      1.3292                 0.9256                 1.0418
 IR Inten    --     64.0473                 5.1193                 0.8684

                     43                     44                     45
                      A                      A                      A
 Frequencies --   1033.4220              1055.9953              1061.6962
 Red. masses --      1.3708                 1.7189                 1.7616
 Frc consts  --      0.8625                 1.1293                 1.1699
 IR Inten    --      5.9790                16.9368                43.3219

                     46                     47                     48
                      A                      A                      A
 Frequencies --   1073.8860              1077.3369              1096.1980
 Red. masses --      1.8902                 1.5535                 1.8706
 Frc consts  --      1.2844                 1.0623                 1.3244
 IR Inten    --      3.7008                 0.9100                 1.4644

                     49                     50                     51
                      A                      A                      A
 Frequencies --   1115.6488              1122.1253              1135.1903
 Red. masses --      1.9780                 2.3220                 1.6298
 Frc consts  --      1.4505                 1.7226                 1.2374
 IR Inten    --      3.9584                 4.5192                 7.8877

                     52                     53                     54
                      A                      A                      A
 Frequencies --   1149.0525              1159.6808              1164.6417
 Red. masses --      1.3012                 2.4252                 2.1343
 Frc consts  --      1.0123                 1.9217                 1.7057
 IR Inten    --      3.7027                10.4363                 1.9772

                     55                     56                     57
                      A                      A                      A
 Frequencies --   1184.8309              1204.4124              1226.7203
 Red. masses --      1.3492                 1.7176                 1.5618
 Frc consts  --      1.1160                 1.4680                 1.3847
 IR Inten    --      1.2152                 0.9475                 4.8459

                     58                     59                     60
                      A                      A                      A
 Frequencies --   1244.7109              1254.1688              1263.5782
 Red. masses --      1.3032                 1.7140                 1.3323
 Frc consts  --      1.1896                 1.5884                 1.2533
 IR Inten    --      1.8958                 4.4379                 1.1071

                     61                     62                     63
                      A                      A                      A
 Frequencies --   1276.8139              1289.3200              1300.8000
 Red. masses --      1.2619                 1.3486                 1.5756
 Frc consts  --      1.2121                 1.3208                 1.5708
 IR Inten    --      3.9399                 0.7244                 3.4518

                     64                     65                     66
                      A                      A                      A
 Frequencies --   1320.5196              1331.5143              1355.7081
 Red. masses --      1.2287                 1.3102                 1.7934
 Frc consts  --      1.2623                 1.3687                 1.9421
 IR Inten    --     13.3823                 6.1302                 2.6775

                     67                     68                     69
                      A                      A                      A
 Frequencies --   1370.3653              1380.7206              1388.5366
 Red. masses --      1.2017                 1.2745                 1.2109
 Frc consts  --      1.3296                 1.4316                 1.3755
 IR Inten    --      8.2382                 3.1268                 4.1756

                     70                     71                     72
                      A                      A                      A
 Frequencies --   1398.8442              1405.0200              1409.1642
 Red. masses --      1.3590                 1.2421                 1.2525
 Frc consts  --      1.5667                 1.4447                 1.4654
 IR Inten    --      2.9397                16.6086                 4.8688

                     73                     74                     75
                      A                      A                      A
 Frequencies --   1426.1780              1468.3310              1480.4523
 Red. masses --      1.2037                 1.1195                 1.0786
 Frc consts  --      1.4425                 1.4221                 1.3928
 IR Inten    --      4.3782                 2.0794                 1.1800

                     76                     77                     78
                      A                      A                      A
 Frequencies --   1486.6336              1488.0792              1491.5484
 Red. masses --      1.0726                 1.0552                 1.0697
 Frc consts  --      1.3967                 1.3767                 1.4021
 IR Inten    --      0.7825                 2.5684                 0.8190

                     79                     80                     81
                      A                      A                      A
 Frequencies --   1493.5567              1497.4917              1499.3407
 Red. masses --      1.0517                 1.0803                 1.0544
 Frc consts  --      1.3822                 1.4273                 1.3965
 IR Inten    --      2.7951                 0.6781                 0.8920

                     82                     83                     84
                      A                      A                      A
 Frequencies --   1503.7659              1512.2778              1515.1212
 Red. masses --      1.0870                 1.1445                 1.0733
 Frc consts  --      1.4482                 1.5422                 1.4517
 IR Inten    --      0.7985                 2.4173                 4.4029

                     85                     86                     87
                      A                      A                      A
 Frequencies --   1519.3809              1546.9655              1590.6848
 Red. masses --      1.0823                 1.0968                 1.1031
 Frc consts  --      1.4721                 1.5465                 1.6446
 IR Inten    --      0.2358                 8.0079                 0.8920

                     88                     89                     90
                      A                      A                      A
 Frequencies --   2963.5251              3013.0782              3028.2475
 Red. masses --      1.0810                 1.0601                 1.0391
 Frc consts  --      5.5935                 5.6706                 5.6143
 IR Inten    --     43.8335                26.5411                27.3157

                     91                     92                     93
                      A                      A                      A
 Frequencies --   3032.0589              3035.4657              3036.5961
 Red. masses --      1.0603                 1.0559                 1.0672
 Frc consts  --      5.7432                 5.7323                 5.7980
 IR Inten    --     77.0398                24.8700                32.4334

                     94                     95                     96
                      A                      A                      A
 Frequencies --   3039.7599              3041.9070              3049.1796
 Red. masses --      1.0705                 1.0449                 1.0787
 Frc consts  --      5.8282                 5.6969                 5.9090
 IR Inten    --     16.5477                14.2533                82.0802

                     97                     98                     99
                      A                      A                      A
 Frequencies --   3050.1932              3056.8386              3071.4691
 Red. masses --      1.0790                 1.1015                 1.0563
 Frc consts  --      5.9146                 6.0641                 5.8711
 IR Inten    --      8.9681                 2.2109                54.0476

                    100                    101                    102
                      A                      A                      A
 Frequencies --   3077.3522              3084.0772              3088.3262
 Red. masses --      1.1040                 1.1036                 1.1004
 Frc consts  --      6.1600                 6.1845                 6.1838
 IR Inten    --     45.2711                31.1442                25.2530

                    103                    104                    105
                      A                      A                      A
 Frequencies --   3105.0707              3105.6873              3112.4196
 Red. masses --      1.0999                 1.0841                 1.0992
 Frc consts  --      6.2478                 6.1606                 6.2736
 IR Inten    --     19.0670                17.6197                30.6514

                    106                    107                    108
                      A                      A                      A
 Frequencies --   3131.5290              3143.6542              3147.9486
 Red. masses --      1.0984                 1.0964                 1.1085
 Frc consts  --      6.3464                 6.3839                 6.4723
 IR Inten    --     32.3732                27.3987                24.2180

                    109                    110                    111
                      A                      A                      A
 Frequencies --   3153.0639              3158.8418              3169.6288
 Red. masses --      1.0826                 1.0837                 1.0803
 Frc consts  --      6.3413                 6.3711                 6.3943
 IR Inten    --      7.8951                30.6400                16.7673

 - Thermochemistry -
 -------------------
 Temperature   298.150 Kelvin.  Pressure   1.00000 Atm.
 Atom     1 has atomic number  6 and mass  12.00000

 Molecular mass:   208.18272 amu.
 Principal axes and moments of inertia in atomic units:
                           1         2         3
     Eigenvalues --  1850.544393424.015494291.21887
           X            0.99987   0.00244   0.01570
           Y           -0.00241   1.00000  -0.00192
           Z           -0.01570   0.00188   0.99987
 This molecule is an asymmetric top.
 Rotational symmetry number  1.
 Warning -- assumption of classical behavior for rotation
           may cause significant error
 Rotational temperatures (Kelvin)      0.04680     0.02530     0.02018
 Rotational constants (GHZ):           0.97525     0.52708     0.42057
 Zero-point vibrational energy     939126.8 (Joules/Mol)
                                  224.45670 (Kcal/Mol)
 Warning -- explicit consideration of  24 degrees of freedom as
           vibrations may cause significant error
 Vibrational temperatures:    186.46   231.11   241.15   292.66   299.85
          (Kelvin)            309.22   331.14   347.61   367.53   417.30
                              436.58   458.46   494.90   530.82   537.65
                              598.97   635.42   681.38   698.51   705.86
                              760.64   782.17   811.94   881.75   973.67
                             1003.08  1014.23  1034.94  1036.63  1147.13
                             1164.48  1190.23  1237.05  1265.85  1291.26
                             1300.89  1339.13  1372.65  1421.49  1424.25
                             1446.24  1459.19  1486.86  1519.34  1527.54
                             1545.08  1550.05  1577.18  1605.17  1614.49
                             1633.29  1653.23  1668.52  1675.66  1704.71
                             1732.88  1764.98  1790.86  1804.47  1818.01
                             1837.05  1855.04  1871.56  1899.93  1915.75
                             1950.56  1971.65  1986.55  1997.79  2012.62
                             2021.51  2027.47  2051.95  2112.60  2130.04
                             2138.93  2141.01  2146.01  2148.89  2154.56
                             2157.22  2163.58  2175.83  2179.92  2186.05
                             2225.74  2288.64  4263.85  4335.15  4356.97
                             4362.46  4367.36  4368.98  4373.54  4376.63
                             4387.09  4388.55  4398.11  4419.16  4427.62
                             4437.30  4443.41  4467.50  4468.39  4478.08
                             4505.57  4523.02  4529.20  4536.56  4544.87
                             4560.39

 Zero-point correction=                           0.357695 (Hartree/Particle)
 Thermal correction to Energy=                    0.371699
 Thermal correction to Enthalpy=                  0.372644
 Thermal correction to Gibbs Free Energy=         0.319791
 Sum of electronic and zero-point Energies=           -622.634093
 Sum of electronic and thermal Energies=              -622.620088
 Sum of electronic and thermal Enthalpies=            -622.619144
 Sum of electronic and thermal Free Energies=         -622.671996

                     E (Thermal)             CV                S
                      KCal/Mol        Cal/Mol-Kelvin    Cal/Mol-Kelvin
 Total                  233.245             60.840            111.237
 Electronic               0.000              0.000              0.000
 Translational            0.889              2.981             41.904
 Rotational               0.889              2.981             31.675
 Vibrational            231.467             54.878             37.658
 Vibration     1          0.612              1.924              2.952
 Vibration     2          0.622              1.891              2.542
 Vibration     3          0.624              1.882              2.462
 Vibration     4          0.639              1.835              2.102
 Vibration     5          0.642              1.828              2.058
 Vibration     6          0.645              1.818              2.002
 Vibration     7          0.652              1.795              1.878
 Vibration     8          0.658              1.777              1.791
 Vibration     9          0.666              1.754              1.693
 Vibration    10          0.686              1.692              1.474
 Vibration    11          0.695              1.667              1.398
 Vibration    12          0.705              1.638              1.317
 Vibration    13          0.723              1.588              1.194
 Vibration    14          0.741              1.536              1.084
 Vibration    15          0.745              1.526              1.065
 Vibration    16          0.780              1.435              0.905
 Vibration    17          0.801              1.379              0.821
 Vibration    18          0.830              1.309              0.728
 Vibration    19          0.842              1.282              0.695
 Vibration    20          0.846              1.271              0.682
 Vibration    21          0.884              1.187              0.590
 Vibration    22          0.899              1.154              0.558
 Vibration    23          0.920              1.108              0.515
 Vibration    24          0.972              1.005              0.428

 Optimization completed.
    -- Stationary point found.
 Normal termination of Gaussian 16 at Thu May 25 04:22:27 2023.
