 Gaussian 16, Revision A.03,
 Gaussian 16:  ES64L-G16RevA.03 25-Dec-2016

 -----------------------------
 # opt freq b3lyp/6-31g(2df,p)
 -----------------------------

 -------------------
 Title Card Required
 -------------------
 Symbolic Z-matrix:
 Charge =  0 Multiplicity = 1

 SCF Done:  E(RB3LYP) =  -1228.30791361     A.U. after   12 cycles
 SCF Done:  E(RB3LYP) =  -1228.31951383     A.U. after   12 cycles
 SCF Done:  E(RB3LYP) =  -1228.32280910     A.U. after   11 cycles
 SCF Done:  E(RB3LYP) =  -1228.32405743     A.U. after   11 cycles
 SCF Done:  E(RB3LYP) =  -1228.32471417     A.U. after   10 cycles
 SCF Done:  E(RB3LYP) =  -1228.32496819     A.U. after   10 cycles
 SCF Done:  E(RB3LYP) =  -1228.32510963     A.U. after   10 cycles
 SCF Done:  E(RB3LYP) =  -1228.32515973     A.U. after    9 cycles
 SCF Done:  E(RB3LYP) =  -1228.32530793     A.U. after   10 cycles
 SCF Done:  E(RB3LYP) =  -1228.31395498     A.U. after   11 cycles
 SCF Done:  E(RB3LYP) =  -1228.33445060     A.U. after   11 cycles
 SCF Done:  E(RB3LYP) =  -1228.33457689     A.U. after   10 cycles
 SCF Done:  E(RB3LYP) =  -1228.33500444     A.U. after   10 cycles
 SCF Done:  E(RB3LYP) =  -1228.33515063     A.U. after   10 cycles
 SCF Done:  E(RB3LYP) =  -1228.33516494     A.U. after   10 cycles
 SCF Done:  E(RB3LYP) =  -1228.33517853     A.U. after    9 cycles
 SCF Done:  E(RB3LYP) =  -1228.33518449     A.U. after    9 cycles
 SCF Done:  E(RB3LYP) =  -1228.33518474     A.U. after    7 cycles
 SCF Done:  E(RB3LYP) =  -1228.33518500     A.U. after    7 cycles
 Optimization completed.
    -- Stationary point found.
 Normal termination of Gaussian 16 at Tue May 23 06:37:20 2023.

 ----------------------------------------------------------------------
 #N Geom=AllCheck Guess=TCheck SCRF=Check GenChk RB3LYP/6-31G(2df,p) Fr
 eq
 ----------------------------------------------------------------------

 Structure from the checkpoint file:  "CC1OCqCCCCCCNOrONCC1Cl.chk"
 -------------------
 Title Card Required
 -------------------
 Charge =  0 Multiplicity = 1

                         Standard orientation:
 ---------------------------------------------------------------------
 Center     Atomic      Atomic             Coordinates (Angstroms)
 Number     Number       Type             X           Y           Z
 ---------------------------------------------------------------------
      1          6           0        4.073369   -0.176642    2.283303
      2          6           0        3.336834   -0.043387    0.955776
      3          8           0        2.725805    1.246989    0.952794
      4          6           0        1.517820    1.430743    0.243474
      5          6           0        0.399472    0.448574    0.602865
      6          6           0       -0.967284    0.943482    0.113677
      7          6           0       -2.107640   -0.028432    0.433361
      8          6           0       -3.475889    0.463257   -0.050908
      9          6           0       -4.615239   -0.512152    0.263535
     10          6           0       -5.975249   -0.008508   -0.219473
     11          7           0       -7.009080   -1.003052    0.073873
     12          8           0       -8.287279   -0.397422   -0.207439
     13          8           0        1.736890    1.522549   -1.153788
     14          7           0        2.278318    0.278429   -1.646047
     15          6           0        3.738504    0.371517   -1.575189
     16          6           0        4.289354   -0.187508   -0.255558
     17         17           0        4.683207   -1.967291   -0.440966
     18          1           0        3.361177   -0.136452    3.111134
     19          1           0        4.782105    0.649018    2.403563
     20          1           0        4.619298   -1.121378    2.333569
     21          1           0        2.579390   -0.826167    0.871520
     22          1           0        1.212738    2.450198    0.503940
     23          1           0        0.389671    0.326598    1.692555
     24          1           0        0.610147   -0.527666    0.158057
     25          1           0       -0.917150    1.111741   -0.968782
     26          1           0       -1.186876    1.921401    0.564768
     27          1           0       -2.146748   -0.201641    1.517947
     28          1           0       -1.890906   -1.005267   -0.020410
     29          1           0       -3.435737    0.637443   -1.134831
     30          1           0       -3.693941    1.438908    0.404579
     31          1           0       -4.654700   -0.684393    1.348996
     32          1           0       -4.411545   -1.487449   -0.195249
     33          1           0       -5.960132    0.139340   -1.305663
     34          1           0       -6.208903    0.967120    0.235865
     35          1           0       -7.035434   -1.133613    1.084877
     36          1           0       -8.657938   -0.992542   -0.867567
     37          1           0        1.990326    0.300136   -2.619242
     38          1           0        4.048782    1.420169   -1.670024
     39          1           0        4.166847   -0.190542   -2.409306
     40          1           0        5.252705    0.278750   -0.040377
 ---------------------------------------------------------------------

 SCF Done:  E(RB3LYP) =  -1228.33518500     A.U. after    1 cycles

 The electronic state is 1-A.
 Alpha  occ. eigenvalues -- -101.52412 -19.17008 -19.15162 -19.14819 -14.37652
 Alpha  occ. eigenvalues --  -14.35761 -10.27799 -10.24837 -10.24427 -10.22310
 Alpha  occ. eigenvalues --  -10.20042 -10.18245 -10.18155 -10.18101 -10.18031
 Alpha  occ. eigenvalues --  -10.18019 -10.17746  -9.44595  -7.20876  -7.20038
 Alpha  occ. eigenvalues --   -7.20029  -1.08691  -1.04310  -1.02437  -0.88130
 Alpha  occ. eigenvalues --   -0.83895  -0.83521  -0.80373  -0.77017  -0.75849
 Alpha  occ. eigenvalues --   -0.72140  -0.70354  -0.65947  -0.63600  -0.59866
 Alpha  occ. eigenvalues --   -0.58770  -0.58112  -0.57231  -0.53387  -0.50532
 Alpha  occ. eigenvalues --   -0.49467  -0.49192  -0.48735  -0.47639  -0.46943
 Alpha  occ. eigenvalues --   -0.45730  -0.43974  -0.43019  -0.42707  -0.42485
 Alpha  occ. eigenvalues --   -0.40635  -0.40228  -0.39324  -0.38879  -0.38741
 Alpha  occ. eigenvalues --   -0.37778  -0.36235  -0.35660  -0.35516  -0.34761
 Alpha  occ. eigenvalues --   -0.33850  -0.33362  -0.33048  -0.32584  -0.32376
 Alpha  occ. eigenvalues --   -0.29868  -0.29678  -0.28360  -0.27582  -0.26649
 Alpha  occ. eigenvalues --   -0.24201  -0.23444
 Alpha virt. eigenvalues --    0.01804   0.07334   0.08468   0.08618   0.08939
 Alpha virt. eigenvalues --    0.09565   0.10270   0.10724   0.10970   0.11776
 Alpha virt. eigenvalues --    0.12575   0.13479   0.13715   0.14131   0.14898

 Mulliken charges:
               1
     1  C   -0.412553
     2  C    0.126420
     3  O   -0.286093
     4  C    0.209833
     5  C   -0.238048
     6  C   -0.194417
     7  C   -0.182569
     8  C   -0.180885
     9  C   -0.202906
    10  C   -0.087465
    11  N   -0.228662
    12  O   -0.420739
    13  O   -0.261825
    14  N   -0.234816
    15  C   -0.143430
    16  C    0.011543
    17  Cl  -0.217681
    18  H    0.121768
    19  H    0.123990
    20  H    0.139328
    21  H    0.108351
    22  H    0.093211
    23  H    0.101277
    24  H    0.125298
    25  H    0.107447
    26  H    0.092510
    27  H    0.092214
    28  H    0.096682
    29  H    0.096709
    30  H    0.095813
    31  H    0.090171
    32  H    0.108315
    33  H    0.102603
    34  H    0.091792
    35  H    0.232348
    36  H    0.298801
    37  H    0.249588
    38  H    0.121470
    39  H    0.127365
    40  H    0.127242
 Sum of Mulliken charges =  -0.00000

 Dipole moment (field-independent basis, Debye):
    X=              0.1192    Y=              0.5345    Z=             -0.4554  Tot=              0.7122
 Quadrupole moment (field-independent basis, Debye-Ang):
   XX=           -120.8179   YY=           -117.3463   ZZ=           -103.0228
   XY=              9.0765   XZ=             -0.5775   YZ=             -0.7113

  Exact polarizability: 197.712  -8.968 140.893   1.856   0.926 141.955
 Approx polarizability: 223.226 -12.457 226.941   1.409   5.376 212.884

                      1                      2                      3
                      A                      A                      A
 Frequencies --     19.6140                28.9405                36.4250
 Red. masses --      6.2386                 5.3603                 1.9895
 Frc consts  --      0.0014                 0.0026                 0.0016
 IR Inten    --      0.1295                 0.3921                 0.3142

                      4                      5                      6
                      A                      A                      A
 Frequencies --     44.2863                62.7218                94.5011
 Red. masses --      4.9228                 4.0107                 2.9953
 Frc consts  --      0.0057                 0.0093                 0.0158
 IR Inten    --      0.3354                 0.6915                 0.5435

                      7                      8                      9
                      A                      A                      A
 Frequencies --     99.1037               111.3505               140.3993
 Red. masses --      2.1073                 3.5600                 3.7684
 Frc consts  --      0.0122                 0.0260                 0.0438
 IR Inten    --      0.1041                 1.0571                 0.9743

                     10                     11                     12
                      A                      A                      A
 Frequencies --    150.0411               155.8318               167.7462
 Red. masses --      2.3770                 2.7040                 2.6780
 Frc consts  --      0.0315                 0.0387                 0.0444
 IR Inten    --      0.3165                 0.0688                 0.3730

                     13                     14                     15
                      A                      A                      A
 Frequencies --    194.5706               218.3589               227.0785
 Red. masses --      3.8389                 3.3771                 1.2411
 Frc consts  --      0.0856                 0.0949                 0.0377
 IR Inten    --      0.2378                 2.5896                 0.1372

                     16                     17                     18
                      A                      A                      A
 Frequencies --    259.9100               274.9066               312.9027
 Red. masses --      4.3178                 3.6884                 3.0016
 Frc consts  --      0.1719                 0.1642                 0.1732
 IR Inten    --      1.7011                 0.0360                 1.1129

                     19                     20                     21
                      A                      A                      A
 Frequencies --    317.7188               324.9780               364.0039
 Red. masses --      1.5140                 2.2373                 3.5210
 Frc consts  --      0.0900                 0.1392                 0.2749
 IR Inten    --     66.3520                33.0832                 2.9264

                     22                     23                     24
                      A                      A                      A
 Frequencies --    394.0983               402.7682               441.5902
 Red. masses --      3.7582                 6.0300                 3.2519
 Frc consts  --      0.3439                 0.5763                 0.3736
 IR Inten    --      0.2031                 2.2173                 7.0707

                     25                     26                     27
                      A                      A                      A
 Frequencies --    468.4383               500.2689               529.2837
 Red. masses --      2.8058                 3.4850                 3.6071
 Frc consts  --      0.3628                 0.5139                 0.5954
 IR Inten    --      6.9559                 3.0243                 1.0153

                     28                     29                     30
                      A                      A                      A
 Frequencies --    557.9823               618.7092               686.5595
 Red. masses --      3.1208                 3.3599                 4.1063
 Frc consts  --      0.5725                 0.7578                 1.1404
 IR Inten    --     15.4616                25.0330                40.8437

                     31                     32                     33
                      A                      A                      A
 Frequencies --    715.8986               735.4446               754.8167
 Red. masses --      2.7327                 1.0860                 1.2036
 Frc consts  --      0.8252                 0.3461                 0.4040
 IR Inten    --      8.0703                 4.5518                 1.0681

                     34                     35                     36
                      A                      A                      A
 Frequencies --    795.7851               812.0719               854.3800
 Red. masses --      1.6855                 2.3352                 1.8453
 Frc consts  --      0.6289                 0.9073                 0.7936
 IR Inten    --      5.1473                 5.6536                 9.8837

                     37                     38                     39
                      A                      A                      A
 Frequencies --    865.7897               879.2471               892.4578
 Red. masses --      2.3258                 2.3033                 2.3529
 Frc consts  --      1.0272                 1.0491                 1.1041
 IR Inten    --      1.1011                 2.3962                68.5348

                     40                     41                     42
                      A                      A                      A
 Frequencies --    932.4550               970.8585               972.0998
 Red. masses --      1.6967                 2.1376                 1.9702
 Frc consts  --      0.8692                 1.1871                 1.0969
 IR Inten    --     19.9434                11.7415                 7.6520

                     43                     44                     45
                      A                      A                      A
 Frequencies --    994.5702              1012.7877              1017.5987
 Red. masses --      2.2172                 3.0018                 2.9552
 Frc consts  --      1.2922                 1.8141                 1.8030
 IR Inten    --     23.5220                31.5984                 8.4461

                     46                     47                     48
                      A                      A                      A
 Frequencies --   1033.5164              1039.9041              1052.5378
 Red. masses --      1.7709                 2.6743                 3.1788
 Frc consts  --      1.1145                 1.7039                 2.0748
 IR Inten    --      2.3472                36.9319                51.3803

                     49                     50                     51
                      A                      A                      A
 Frequencies --   1063.4738              1067.0708              1070.8441
 Red. masses --      2.5536                 2.4570                 2.2425
 Frc consts  --      1.7016                 1.6483                 1.5151
 IR Inten    --     10.5504                10.3870                 2.0951

                     52                     53                     54
                      A                      A                      A
 Frequencies --   1088.6891              1102.7858              1126.2057
 Red. masses --      2.6467                 2.5179                 3.5217
 Frc consts  --      1.8482                 1.8041                 2.6317
 IR Inten    --     61.5960                 5.2199               191.6691

                     55                     56                     57
                      A                      A                      A
 Frequencies --   1132.9710              1135.2365              1164.1648
 Red. masses --      2.9685                 2.1125                 2.3571
 Frc consts  --      2.2450                 1.6041                 1.8822
 IR Inten    --     11.7002                29.4094                 7.5305

                     58                     59                     60
                      A                      A                      A
 Frequencies --   1175.9529              1216.6176              1238.0529
 Red. masses --      2.0143                 1.5445                 1.2854
 Frc consts  --      1.6411                 1.3469                 1.1609
 IR Inten    --     23.0204                 8.1154                21.7404

                     61                     62                     63
                      A                      A                      A
 Frequencies --   1239.2028              1257.9986              1288.6911
 Red. masses --      1.2993                 1.3584                 1.2995
 Frc consts  --      1.1755                 1.2666                 1.2715
 IR Inten    --      6.1928                 9.6878                 7.4448

                     64                     65                     66
                      A                      A                      A
 Frequencies --   1292.7508              1293.3656              1303.4988
 Red. masses --      1.2427                 1.1309                 1.3081
 Frc consts  --      1.2236                 1.1146                 1.3096
 IR Inten    --      3.9510                 5.8503                 1.1476

                     67                     68                     69
                      A                      A                      A
 Frequencies --   1318.9469              1331.3646              1334.2406
 Red. masses --      1.1185                 1.0904                 1.1413
 Frc consts  --      1.1464                 1.1388                 1.1971
 IR Inten    --      1.1595                 0.6227                 1.1090

                     70                     71                     72
                      A                      A                      A
 Frequencies --   1340.1694              1367.7920              1376.9499
 Red. masses --      1.2692                 1.4155                 1.3498
 Frc consts  --      1.3431                 1.5603                 1.5079
 IR Inten    --      2.6973                 6.7513                 1.0936

                     73                     74                     75
                      A                      A                      A
 Frequencies --   1384.1320              1384.5604              1391.7222
 Red. masses --      1.2274                 1.2305                 1.2141
 Frc consts  --      1.3855                 1.3898                 1.3855
 IR Inten    --      1.9095                46.5617                11.2726

                     76                     77                     78
                      A                      A                      A
 Frequencies --   1398.2436              1401.6459              1405.1841
 Red. masses --      1.3599                 1.5614                 1.3547
 Frc consts  --      1.5665                 1.8073                 1.5760
 IR Inten    --     12.8275                 0.9140                10.5070

                     79                     80                     81
                      A                      A                      A
 Frequencies --   1406.1750              1411.9863              1453.7481
 Red. masses --      1.5933                 1.3034                 1.0771
 Frc consts  --      1.8562                 1.5311                 1.3412
 IR Inten    --      0.0452                26.4298                11.5325

                     82                     83                     84
                      A                      A                      A
 Frequencies --   1477.1403              1481.4629              1484.6771
 Red. masses --      1.1072                 1.1349                 1.0703
 Frc consts  --      1.4234                 1.4675                 1.3901
 IR Inten    --      3.7655                 4.0645                 0.1628

                     85                     86                     87
                      A                      A                      A
 Frequencies --   1487.4371              1488.9728              1495.0147
 Red. masses --      1.0842                 1.0463                 1.0986
 Frc consts  --      1.4133                 1.3667                 1.4467
 IR Inten    --      0.3410                 4.0613                 5.5340

                     88                     89                     90
                      A                      A                      A
 Frequencies --   1496.0459              1499.7428              1512.1089
 Red. masses --      1.0516                 1.0865                 1.0964
 Frc consts  --      1.3867                 1.4398                 1.4771
 IR Inten    --      2.0410                 0.8514                 3.2143

                     91                     92                     93
                      A                      A                      A
 Frequencies --   1524.7897              2978.5524              3001.8257
 Red. masses --      1.0915                 1.0686                 1.0622
 Frc consts  --      1.4952                 5.5858                 5.6395
 IR Inten    --      2.0264                38.0093                 2.0205

                     94                     95                     96
                      A                      A                      A
 Frequencies --   3003.1142              3007.9613              3015.3873
 Red. masses --      1.0585                 1.0645                 1.0661
 Frc consts  --      5.6243                 5.6744                 5.7113
 IR Inten    --      2.9056                 3.4101                75.6499

                     97                     98                     99
                      A                      A                      A
 Frequencies --   3020.7399              3027.8815              3038.2291
 Red. masses --      1.0650                 1.0937                 1.0715
 Frc consts  --      5.7259                 5.9075                 5.8277
 IR Inten    --     24.2185                 8.7562                20.2286

                    100                    101                    102
                      A                      A                      A
 Frequencies --   3042.6088              3046.2478              3050.5446
 Red. masses --      1.0873                 1.0362                 1.0922
 Frc consts  --      5.9304                 5.6654                 5.9881
 IR Inten    --      2.2781                14.2934                18.3377

                    103                    104                    105
                      A                      A                      A
 Frequencies --   3059.2061              3063.8046              3072.3523
 Red. masses --      1.0869                 1.0967                 1.1022
 Frc consts  --      5.9934                 6.0654                 6.1298
 IR Inten    --     27.0718                 6.9575               109.2178

                    106                    107                    108
                      A                      A                      A
 Frequencies --   3081.2269              3097.1106              3099.8774
 Red. masses --      1.0840                 1.0904                 1.0964
 Frc consts  --      6.0637                 6.1622                 6.2074
 IR Inten    --      1.9749                10.7456                 4.9524

                    109                    110                    111
                      A                      A                      A
 Frequencies --   3105.2020              3121.1397              3136.1808
 Red. masses --      1.0978                 1.0997                 1.1019
 Frc consts  --      6.2367                 6.3115                 6.3853
 IR Inten    --     33.6791                25.6320                13.1989

                    112                    113                    114
                      A                      A                      A
 Frequencies --   3447.9492              3524.2634              3805.2124
 Red. masses --      1.0749                 1.0760                 1.0683
 Frc consts  --      7.5293                 7.8743                 9.1136
 IR Inten    --      1.8956                 3.4420                37.8204

 - Thermochemistry -
 -------------------
 Temperature   298.150 Kelvin.  Pressure   1.00000 Atm.
 Atom     1 has atomic number  6 and mass  12.00000

 Molecular mass:   266.13972 amu.
 Principal axes and moments of inertia in atomic units:
                           1         2         3
     Eigenvalues --  1898.21390********************
           X            0.99998   0.00577   0.00274
           Y           -0.00539   0.99222  -0.12442
           Z           -0.00344   0.12440   0.99223
 This molecule is an asymmetric top.
 Rotational symmetry number  1.
 Warning -- assumption of classical behavior for rotation
           may cause significant error
 Rotational temperatures (Kelvin)      0.04563     0.00477     0.00473
 Rotational constants (GHZ):           0.95076     0.09931     0.09850
 Zero-point vibrational energy     916912.2 (Joules/Mol)
                                  219.14728 (Kcal/Mol)
 Warning -- explicit consideration of  29 degrees of freedom as
           vibrations may cause significant error
 Vibrational temperatures:     28.22    41.64    52.41    63.72    90.24
          (Kelvin)            135.97   142.59   160.21   202.00   215.88
                              224.21   241.35   279.94   314.17   326.72
                              373.95   395.53   450.20   457.13   467.57
                              523.72   567.02   579.49   635.35   673.98
                              719.78   761.52   802.81   890.18   987.81
                             1030.02  1058.14  1086.01  1144.96  1168.39
                             1229.26  1245.68  1265.04  1284.05  1341.59
                             1396.85  1398.63  1430.96  1457.18  1464.10
                             1487.00  1496.19  1514.37  1530.10  1535.28
                             1540.71  1566.38  1586.66  1620.36  1630.09
                             1633.35  1674.97  1691.93  1750.44  1781.28
                             1782.94  1809.98  1854.14  1859.98  1860.86
                             1875.44  1897.67  1915.54  1919.67  1928.20
                             1967.95  1981.12  1991.46  1992.07  2002.38
                             2011.76  2016.66  2021.75  2023.17  2031.53
                             2091.62  2125.28  2131.49  2136.12  2140.09
                             2142.30  2150.99  2152.48  2157.80  2175.59
                             2193.83  4285.47  4318.96  4320.81  4327.79
                             4338.47  4346.17  4356.45  4371.33  4377.64
                             4382.87  4389.05  4401.52  4408.13  4420.43
                             4433.20  4456.05  4460.03  4467.69  4490.62
                             4512.26  4960.83  5070.63  5474.85

 Zero-point correction=                           0.349233 (Hartree/Particle)
 Thermal correction to Energy=                    0.368755
 Thermal correction to Enthalpy=                  0.369699
 Thermal correction to Gibbs Free Energy=         0.298430
 Sum of electronic and zero-point Energies=          -1227.985952
 Sum of electronic and thermal Energies=             -1227.966430
 Sum of electronic and thermal Enthalpies=           -1227.965486
 Sum of electronic and thermal Free Energies=        -1228.036755

                     E (Thermal)             CV                S
                      KCal/Mol        Cal/Mol-Kelvin    Cal/Mol-Kelvin
 Total                  231.397             71.365            149.998
 Electronic               0.000              0.000              0.000
 Translational            0.889              2.981             42.636
 Rotational               0.889              2.981             34.801
 Vibrational            229.620             65.404             72.561
 Vibration     1          0.593              1.986              6.673
 Vibration     2          0.593              1.984              5.901
 Vibration     3          0.594              1.982              5.445
 Vibration     4          0.595              1.980              5.057
 Vibration     5          0.597              1.972              4.370
 Vibration     6          0.603              1.953              3.565
 Vibration     7          0.604              1.950              3.472
 Vibration     8          0.607              1.940              3.245
 Vibration     9          0.615              1.913              2.798
 Vibration    10          0.618              1.903              2.672
 Vibration    11          0.620              1.896              2.600
 Vibration    12          0.624              1.882              2.461
 Vibration    13          0.635              1.847              2.184
 Vibration    14          0.646              1.813              1.973
 Vibration    15          0.651              1.800              1.902
 Vibration    16          0.668              1.746              1.662
 Vibration    17          0.677              1.720              1.565
 Vibration    18          0.701              1.649              1.347
 Vibration    19          0.704              1.640              1.322
 Vibration    20          0.709              1.626              1.285
 Vibration    21          0.738              1.546              1.105
 Vibration    22          0.761              1.483              0.985
 Vibration    23          0.768              1.464              0.953
 Vibration    24          0.801              1.379              0.822
 Vibration    25          0.826              1.320              0.742
 Vibration    26          0.856              1.249              0.657
 Vibration    27          0.884              1.185              0.589
 Vibration    28          0.914              1.122              0.528
 Vibration    29          0.979              0.992              0.419

 Optimization completed.
    -- Stationary point found.
 Normal termination of Gaussian 16 at Tue May 23 10:49:02 2023.
