 Gaussian 16, Revision A.03,
 Gaussian 16:  ES64L-G16RevA.03 25-Dec-2016

 -----------------------------
 # opt freq b3lyp/6-31g(2df,p)
 -----------------------------

 -------------------
 Title Card Required
 -------------------
 Symbolic Z-matrix:
 Charge =  0 Multiplicity = 1

 SCF Done:  E(RB3LYP) =  -786.978567011     A.U. after   13 cycles
 SCF Done:  E(RB3LYP) =  -786.997921175     A.U. after   12 cycles
 SCF Done:  E(RB3LYP) =  -787.003106733     A.U. after   11 cycles
 SCF Done:  E(RB3LYP) =  -787.004793376     A.U. after   12 cycles
 SCF Done:  E(RB3LYP) =  -787.005467063     A.U. after   11 cycles
 SCF Done:  E(RB3LYP) =  -787.006277002     A.U. after   11 cycles
 SCF Done:  E(RB3LYP) =  -787.006094732     A.U. after   14 cycles
 SCF Done:  E(RB3LYP) =  -787.009312684     A.U. after   11 cycles
 SCF Done:  E(RB3LYP) =  -787.009787436     A.U. after   12 cycles
 SCF Done:  E(RB3LYP) =  -787.011072733     A.U. after   11 cycles
 SCF Done:  E(RB3LYP) =  -787.013355282     A.U. after   11 cycles
 SCF Done:  E(RB3LYP) =  -787.013640874     A.U. after   11 cycles
 SCF Done:  E(RB3LYP) =  -787.013836583     A.U. after   10 cycles
 SCF Done:  E(RB3LYP) =  -787.013931827     A.U. after   11 cycles
 SCF Done:  E(RB3LYP) =  -787.013966245     A.U. after    9 cycles
 SCF Done:  E(RB3LYP) =  -787.013974862     A.U. after    9 cycles
 SCF Done:  E(RB3LYP) =  -787.013975432     A.U. after    7 cycles
 SCF Done:  E(RB3LYP) =  -787.013975565     A.U. after    7 cycles
 SCF Done:  E(RB3LYP) =  -787.013975589     A.U. after    6 cycles
 Optimization completed.
    -- Stationary point found.
 Normal termination of Gaussian 16 at Sun May 28 18:07:44 2023.

 ----------------------------------------------------------------------
 #N Geom=AllCheck Guess=TCheck SCRF=Check GenChk RB3LYP/6-31G(2df,p) Fr
 eq
 ----------------------------------------------------------------------

 Structure from the checkpoint file:  "CC1OCqCCNNqCrCOrCCCCC1dN.chk"
 -------------------
 Title Card Required
 -------------------
 Charge =  0 Multiplicity = 1

                         Standard orientation:
 ---------------------------------------------------------------------
 Center     Atomic      Atomic             Coordinates (Angstroms)
 Number     Number       Type             X           Y           Z
 ---------------------------------------------------------------------
      1          6           0        3.706691   -2.387237   -0.486349
      2          6           0        3.087561   -0.994737   -0.428517
      3          8           0        1.706546   -1.157471   -0.722874
      4          6           0        0.802494   -0.099644   -0.408494
      5          6           0       -0.563277   -0.624874   -0.869284
      6          6           0       -1.750004    0.090807   -0.224367
      7          7           0       -2.999553   -0.440734   -0.761785
      8          7           0       -4.146757    0.155184   -0.164314
      9          6           0       -5.225047    0.243917   -1.141904
     10          6           0       -4.565849   -0.511613    1.062708
     11          8           0       -5.471039    0.280702    1.791408
     12          6           0        1.157521    1.254009   -1.066947
     13          6           0        1.983559    2.268606   -0.246606
     14          6           0        3.501825    2.035421   -0.143529
     15          6           0        3.971177    1.039459    0.936717
     16          6           0        3.315132   -0.327968    0.933583
     17          7           0        2.941025   -0.958171    1.973168
     18          1           0        3.468160   -2.854827   -1.445391
     19          1           0        3.306602   -2.997373    0.325502
     20          1           0        4.795005   -2.332035   -0.383778
     21          1           0        3.550145   -0.368787   -1.205205
     22          1           0        0.772564    0.032569    0.684035
     23          1           0       -0.596926   -1.690420   -0.614343
     24          1           0       -0.640936   -0.555816   -1.960531
     25          1           0       -1.740076    1.162979   -0.449616
     26          1           0       -1.674857    0.000857    0.874213
     27          1           0       -3.025891   -1.457566   -0.657180
     28          1           0       -4.901981    0.863587   -1.980386
     29          1           0       -6.093843    0.699816   -0.661378
     30          1           0       -5.522658   -0.745188   -1.532903
     31          1           0       -3.657175   -0.739140    1.638119
     32          1           0       -5.099237   -1.459141    0.866604
     33          1           0       -5.047543    1.140326    1.901752
     34          1           0        0.212024    1.749012   -1.314698
     35          1           0        1.645999    1.052896   -2.029244
     36          1           0        1.553157    2.353347    0.761100
     37          1           0        1.837770    3.250202   -0.712518
     38          1           0        3.987533    2.992432    0.079848
     39          1           0        3.885654    1.736646   -1.126190
     40          1           0        3.834063    1.481668    1.931427
     41          1           0        5.054598    0.893027    0.814075
     42          1           0        3.120094   -0.405757    2.816875
 ---------------------------------------------------------------------

 SCF Done:  E(RB3LYP) =  -787.013975589     A.U. after    1 cycles

 The electronic state is 1-A.
 Alpha  occ. eigenvalues --  -19.13697 -19.13212 -14.34211 -14.33678 -14.31096
 Alpha  occ. eigenvalues --  -10.24746 -10.23127 -10.22829 -10.22727 -10.20284
 Alpha  occ. eigenvalues --  -10.19742 -10.19329 -10.19100 -10.18851 -10.18173
 Alpha  occ. eigenvalues --  -10.17493 -10.16805  -1.02908  -1.02490  -0.96637
 Alpha  occ. eigenvalues --   -0.90351  -0.82587  -0.80780  -0.78469  -0.73750
 Alpha  occ. eigenvalues --   -0.72945  -0.69250  -0.67714  -0.64814  -0.61612
 Alpha  occ. eigenvalues --   -0.60411  -0.59037  -0.57988  -0.53226  -0.51941
 Alpha  occ. eigenvalues --   -0.51164  -0.50055  -0.47669  -0.47203  -0.46269
 Alpha  occ. eigenvalues --   -0.44920  -0.44353  -0.43342  -0.43001  -0.42786
 Alpha  occ. eigenvalues --   -0.41688  -0.41151  -0.40669  -0.39087  -0.38591
 Alpha  occ. eigenvalues --   -0.37468  -0.36929  -0.36699  -0.35763  -0.35323
 Alpha  occ. eigenvalues --   -0.34166  -0.33766  -0.33701  -0.32676  -0.32444
 Alpha  occ. eigenvalues --   -0.30140  -0.29545  -0.28217  -0.25659  -0.24423
 Alpha  occ. eigenvalues --   -0.22842  -0.22736
 Alpha virt. eigenvalues --   -0.00802   0.07305   0.08329   0.08676   0.09509
 Alpha virt. eigenvalues --    0.09896   0.11248   0.11372   0.12477   0.13237
 Alpha virt. eigenvalues --    0.13521   0.14066   0.14314   0.15280   0.15478

 Mulliken charges:
               1
     1  C   -0.399524
     2  C    0.118531
     3  O   -0.287889
     4  C    0.138340
     5  C   -0.237926
     6  C   -0.114794
     7  N   -0.289731
     8  N   -0.076094
     9  C   -0.301564
    10  C   -0.014546
    11  O   -0.406269
    12  C   -0.218409
    13  C   -0.200206
    14  C   -0.206466
    15  C   -0.293685
    16  C    0.284881
    17  N   -0.454065
    18  H    0.118306
    19  H    0.147694
    20  H    0.106011
    21  H    0.060599
    22  H    0.073941
    23  H    0.105532
    24  H    0.107992
    25  H    0.107907
    26  H    0.081339
    27  H    0.207052
    28  H    0.121500
    29  H    0.127949
    30  H    0.091251
    31  H    0.091816
    32  H    0.088348
    33  H    0.280191
    34  H    0.103631
    35  H    0.104488
    36  H    0.096083
    37  H    0.099045
    38  H    0.100024
    39  H    0.107519
    40  H    0.101677
    41  H    0.119105
    42  H    0.210415
 Sum of Mulliken charges =  -0.00000

 Dipole moment (field-independent basis, Debye):
    X=              2.4647    Y=              2.4648    Z=             -0.1603  Tot=              3.4894
 Quadrupole moment (field-independent basis, Debye-Ang):
   XX=           -107.4845   YY=           -104.1716   ZZ=           -107.2478
   XY=              6.4778   XZ=              3.0280   YZ=              3.8733

  Exact polarizability: 185.286   0.231 150.328   1.878  -0.207 144.334
 Approx polarizability: 222.635   2.882 219.582  -6.375  -2.840 226.259

                      1                      2                      3
                      A                      A                      A
 Frequencies --     21.6070                29.8670                39.0142
 Red. masses --      3.8517                 4.2561                 3.3360
 Frc consts  --      0.0011                 0.0022                 0.0030
 IR Inten    --      0.2651                 0.0445                 0.7356

                      4                      5                      6
                      A                      A                      A
 Frequencies --     62.6270                78.4616                98.7110
 Red. masses --      3.4714                 4.3669                 3.5118
 Frc consts  --      0.0080                 0.0158                 0.0202
 IR Inten    --      1.9246                 1.9283                 1.1491

                      7                      8                      9
                      A                      A                      A
 Frequencies --    118.1477               144.3252               145.9711
 Red. masses --      3.1711                 3.4888                 2.0108
 Frc consts  --      0.0261                 0.0428                 0.0252
 IR Inten    --      3.0220                 1.4653                 1.0193

                     10                     11                     12
                      A                      A                      A
 Frequencies --    182.0389               203.0033               228.1995
 Red. masses --      2.3937                 2.9463                 2.1821
 Frc consts  --      0.0467                 0.0715                 0.0670
 IR Inten    --      2.9224                 0.9267                 1.1406

                     13                     14                     15
                      A                      A                      A
 Frequencies --    236.9289               243.3668               263.0735
 Red. masses --      1.1819                 1.3794                 2.3752
 Frc consts  --      0.0391                 0.0481                 0.0968
 IR Inten    --      0.1765                 0.7584                 0.3523

                     16                     17                     18
                      A                      A                      A
 Frequencies --    279.9433               288.9309               306.1454
 Red. masses --      2.5379                 2.8592                 2.0694
 Frc consts  --      0.1172                 0.1406                 0.1143
 IR Inten    --      4.7635                 3.9034                 0.3143

                     19                     20                     21
                      A                      A                      A
 Frequencies --    323.4402               343.4744               361.9578
 Red. masses --      2.8881                 3.0971                 2.1301
 Frc consts  --      0.1780                 0.2153                 0.1644
 IR Inten    --      1.8506                 3.7251                27.4636

                     22                     23                     24
                      A                      A                      A
 Frequencies --    389.5702               410.5396               416.7793
 Red. masses --      2.1779                 2.2444                 1.7148
 Frc consts  --      0.1947                 0.2229                 0.1755
 IR Inten    --     41.5066                 4.0811                38.0856

                     25                     26                     27
                      A                      A                      A
 Frequencies --    469.5528               488.4325               509.9084
 Red. masses --      2.6526                 2.4251                 3.2831
 Frc consts  --      0.3446                 0.3409                 0.5029
 IR Inten    --      3.4634                 2.7780                10.0474

                     28                     29                     30
                      A                      A                      A
 Frequencies --    541.9025               580.1334               616.5870
 Red. masses --      3.0591                 3.4144                 3.1663
 Frc consts  --      0.5293                 0.6771                 0.7092
 IR Inten    --      3.9727                 1.7081                15.1622

                     31                     32                     33
                      A                      A                      A
 Frequencies --    645.1691               739.6632               769.1112
 Red. masses --      2.9333                 1.9731                 2.0414
 Frc consts  --      0.7194                 0.6360                 0.7115
 IR Inten    --      1.3840                 2.1052                 3.2494

                     34                     35                     36
                      A                      A                      A
 Frequencies --    777.5016               806.4709               819.4354
 Red. masses --      1.7634                 1.5509                 1.6497
 Frc consts  --      0.6281                 0.5943                 0.6527
 IR Inten    --     35.2314                 1.1070                 4.7757

                     37                     38                     39
                      A                      A                      A
 Frequencies --    845.6680               888.5927               901.4641
 Red. masses --      2.1269                 2.0207                 1.9228
 Frc consts  --      0.8962                 0.9400                 0.9206
 IR Inten    --     10.0686                41.1458                20.4101

                     40                     41                     42
                      A                      A                      A
 Frequencies --    921.5971               942.3547               960.9990
 Red. masses --      1.8805                 1.9916                 1.8923
 Frc consts  --      0.9410                 1.0420                 1.0296
 IR Inten    --     12.6130                11.2282                 6.0689

                     43                     44                     45
                      A                      A                      A
 Frequencies --    983.9503              1013.9578              1018.2977
 Red. masses --      2.6809                 1.6480                 1.7286
 Frc consts  --      1.5292                 0.9983                 1.0561
 IR Inten    --     12.7989                20.2371                 1.1348

                     46                     47                     48
                      A                      A                      A
 Frequencies --   1034.2167              1044.7157              1069.1532
 Red. masses --      1.9345                 2.0349                 1.9179
 Frc consts  --      1.2191                 1.3085                 1.2917
 IR Inten    --     45.4064                25.6744                31.7579

                     49                     50                     51
                      A                      A                      A
 Frequencies --   1078.3424              1085.9920              1095.6722
 Red. masses --      2.5040                 3.4172                 3.1161
 Frc consts  --      1.7155                 2.3745                 2.2041
 IR Inten    --     31.2914                63.1808                11.9101

                     52                     53                     54
                      A                      A                      A
 Frequencies --   1108.9682              1121.0189              1125.9787
 Red. masses --      2.6283                 2.4515                 2.2847
 Frc consts  --      1.9044                 1.8151                 1.7066
 IR Inten    --     32.5932                44.0019                30.5721

                     55                     56                     57
                      A                      A                      A
 Frequencies --   1130.5633              1142.7510              1160.6262
 Red. masses --      2.0983                 1.9950                 1.8425
 Frc consts  --      1.5802                 1.5350                 1.4624
 IR Inten    --     24.9224                50.4534                40.4923

                     58                     59                     60
                      A                      A                      A
 Frequencies --   1172.5144              1176.8322              1191.0100
 Red. masses --      1.8799                 1.6776                 1.6222
 Frc consts  --      1.5227                 1.3688                 1.3557
 IR Inten    --      7.0902                55.4515                 0.5808

                     61                     62                     63
                      A                      A                      A
 Frequencies --   1233.3371              1240.7092              1249.7645
 Red. masses --      1.3199                 1.4128                 2.6911
 Frc consts  --      1.1829                 1.2813                 2.4765
 IR Inten    --      0.9877                15.6073                 8.4158

                     64                     65                     66
                      A                      A                      A
 Frequencies --   1265.5856              1286.3565              1291.5070
 Red. masses --      1.2897                 1.4182                 1.3438
 Frc consts  --      1.2171                 1.3827                 1.3206
 IR Inten    --      1.1512                 7.0033                 1.1771

                     67                     68                     69
                      A                      A                      A
 Frequencies --   1298.5595              1306.8919              1323.3863
 Red. masses --      1.2098                 1.1351                 1.4210
 Frc consts  --      1.2020                 1.1422                 1.4662
 IR Inten    --     10.6881                 1.1985                41.1962

                     70                     71                     72
                      A                      A                      A
 Frequencies --   1351.8351              1361.1236              1369.4777
 Red. masses --      1.2605                 1.1889                 1.2826
 Frc consts  --      1.3571                 1.2977                 1.4173
 IR Inten    --      4.0386                13.4067                 4.7689

                     73                     74                     75
                      A                      A                      A
 Frequencies --   1382.9965              1387.7665              1388.8971
 Red. masses --      1.3973                 1.2749                 1.3583
 Frc consts  --      1.5746                 1.4467                 1.5438
 IR Inten    --      4.8876                 7.5115                 9.9611

                     76                     77                     78
                      A                      A                      A
 Frequencies --   1389.4249              1398.0244              1404.4613
 Red. masses --      1.2701                 1.3195                 1.4188
 Frc consts  --      1.4447                 1.5194                 1.6489
 IR Inten    --     18.5922                 9.9851                10.6333

                     79                     80                     81
                      A                      A                      A
 Frequencies --   1415.0132              1422.9728              1424.2164
 Red. masses --      1.5062                 1.5814                 1.1813
 Frc consts  --      1.7768                 1.8866                 1.4118
 IR Inten    --      8.3125                27.1106                32.5286

                     82                     83                     84
                      A                      A                      A
 Frequencies --   1445.2085              1461.3109              1472.3617
 Red. masses --      1.1905                 1.0899                 1.0878
 Frc consts  --      1.4650                 1.3713                 1.3894
 IR Inten    --     29.0605                 8.9050                 4.0533

                     85                     86                     87
                      A                      A                      A
 Frequencies --   1481.8616              1484.6957              1485.1727
 Red. masses --      1.0458                 1.0747                 1.0867
 Frc consts  --      1.3530                 1.3958                 1.4122
 IR Inten    --      1.8840                 7.0380                 6.0238

                     88                     89                     90
                      A                      A                      A
 Frequencies --   1491.7754              1495.2570              1496.3498
 Red. masses --      1.0825                 1.0842                 1.0704
 Frc consts  --      1.4193                 1.4282                 1.4121
 IR Inten    --      1.7514                10.1621                 3.3421

                     91                     92                     93
                      A                      A                      A
 Frequencies --   1498.9760              1509.8280              1523.6844
 Red. masses --      1.0578                 1.1302                 1.1207
 Frc consts  --      1.4003                 1.5180                 1.5330
 IR Inten    --     10.6839                 3.2049                 8.5053

                     94                     95                     96
                      A                      A                      A
 Frequencies --   1526.7148              1723.1732              2936.7468
 Red. masses --      1.1031                 8.6493                 1.0718
 Frc consts  --      1.5149                15.1318                 5.4460
 IR Inten    --      0.3012                33.8009                39.8100

                     97                     98                     99
                      A                      A                      A
 Frequencies --   2945.6379              2954.4924              2982.9508
 Red. masses --      1.0645                 1.0591                 1.0810
 Frc consts  --      5.4421                 5.4470                 5.6670
 IR Inten    --     46.2377                98.7573                29.8788

                    100                    101                    102
                      A                      A                      A
 Frequencies --   2992.8681              3000.6301              3011.3237
 Red. masses --      1.0815                 1.0625                 1.0641
 Frc consts  --      5.7077                 5.6364                 5.6854
 IR Inten    --     30.7381                17.0745                17.8754

                    103                    104                    105
                      A                      A                      A
 Frequencies --   3012.4817              3025.1308              3029.1825
 Red. masses --      1.0962                 1.0646                 1.0636
 Frc consts  --      5.8613                 5.7403                 5.7504
 IR Inten    --     62.2302                 7.6767                21.1350

                    106                    107                    108
                      A                      A                      A
 Frequencies --   3035.0648              3044.6590              3045.5670
 Red. masses --      1.0597                 1.0986                 1.0354
 Frc consts  --      5.7515                 6.0000                 5.6586
 IR Inten    --     22.0912                 7.6133                22.4399

                    109                    110                    111
                      A                      A                      A
 Frequencies --   3053.7104              3057.5188              3065.7588
 Red. masses --      1.0867                 1.0936                 1.1001
 Frc consts  --      5.9706                 6.0234                 6.0922
 IR Inten    --     20.6957                52.7632                18.8092

                    112                    113                    114
                      A                      A                      A
 Frequencies --   3070.5252              3082.0446              3090.0385
 Red. masses --      1.0996                 1.1031                 1.0721
 Frc consts  --      6.1083                 6.1734                 6.0312
 IR Inten    --     69.3466                36.1257                27.5018

                    115                    116                    117
                      A                      A                      A
 Frequencies --   3116.3410              3140.0677              3144.8070
 Red. masses --      1.1011                 1.1044                 1.1019
 Frc consts  --      6.3002                 6.4159                 6.4209
 IR Inten    --     22.0806                14.7651                10.0678

                    118                    119                    120
                      A                      A                      A
 Frequencies --   3393.9306              3413.7087              3791.7894
 Red. masses --      1.0736                 1.0741                 1.0651
 Frc consts  --      7.2861                 7.3745                 9.0227
 IR Inten    --     10.6228                 5.0660                15.0128

 - Thermochemistry -
 -------------------
 Temperature   298.150 Kelvin.  Pressure   1.00000 Atm.
 Atom     1 has atomic number  6 and mass  12.00000

 Molecular mass:   243.19468 amu.
 Principal axes and moments of inertia in atomic units:
                           1         2         3
     Eigenvalues --  2113.68673********************
           X            0.99999   0.00438   0.00320
           Y           -0.00443   0.99987   0.01575
           Z           -0.00313  -0.01576   0.99987
 This molecule is an asymmetric top.
 Rotational symmetry number  1.
 Warning -- assumption of classical behavior for rotation
           may cause significant error
 Rotational temperatures (Kelvin)      0.04098     0.00803     0.00778
 Rotational constants (GHZ):           0.85384     0.16721     0.16214
 Zero-point vibrational energy     986445.9 (Joules/Mol)
                                  235.76624 (Kcal/Mol)
 Warning -- explicit consideration of  30 degrees of freedom as
           vibrations may cause significant error
 Vibrational temperatures:     31.09    42.97    56.13    90.11   112.89
          (Kelvin)            142.02   169.99   207.65   210.02   261.91
                              292.08   328.33   340.89   350.15   378.50
                              402.78   415.71   440.48   465.36   494.18
                              520.78   560.50   590.67   599.65   675.58
                              702.75   733.64   779.68   834.68   887.13
                              928.25  1064.21  1106.58  1118.65  1160.33
                             1178.98  1216.73  1278.49  1297.01  1325.97
                             1355.84  1382.66  1415.69  1458.86  1465.10
                             1488.01  1503.11  1538.27  1551.49  1562.50
                             1576.43  1595.56  1612.90  1620.03  1626.63
                             1644.16  1669.88  1686.99  1693.20  1713.60
                             1774.50  1785.10  1798.13  1820.90  1850.78
                             1858.19  1868.34  1880.33  1904.06  1944.99
                             1958.35  1970.37  1989.82  1996.69  1998.31
                             1999.07  2011.45  2020.71  2035.89  2047.34
                             2049.13  2079.33  2102.50  2118.40  2132.07
                             2136.15  2136.83  2146.33  2151.34  2152.91
                             2156.69  2172.31  2192.24  2196.60  2479.26
                             4225.32  4238.12  4250.86  4291.80  4306.07
                             4317.24  4332.62  4334.29  4352.49  4358.32
                             4366.78  4380.59  4381.89  4393.61  4399.09
                             4410.94  4417.80  4434.37  4445.88  4483.72
                             4517.86  4524.68  4883.11  4911.57  5455.54

 Zero-point correction=                           0.375717 (Hartree/Particle)
 Thermal correction to Energy=                    0.394779
 Thermal correction to Enthalpy=                  0.395723
 Thermal correction to Gibbs Free Energy=         0.327153
 Sum of electronic and zero-point Energies=           -786.638258
 Sum of electronic and thermal Energies=              -786.619197
 Sum of electronic and thermal Enthalpies=            -786.618253
 Sum of electronic and thermal Free Energies=         -786.686823

                     E (Thermal)             CV                S
                      KCal/Mol        Cal/Mol-Kelvin    Cal/Mol-Kelvin
 Total                  247.727             71.827            144.318
 Electronic               0.000              0.000              0.000
 Translational            0.889              2.981             42.367
 Rotational               0.889              2.981             33.895
 Vibrational            245.950             65.865             68.055
 Vibration     1          0.593              1.985              6.481
 Vibration     2          0.594              1.984              5.838
 Vibration     3          0.594              1.981              5.309
 Vibration     4          0.597              1.972              4.373
 Vibration     5          0.600              1.964              3.929
 Vibration     6          0.604              1.950              3.480
 Vibration     7          0.608              1.934              3.130
 Vibration     8          0.616              1.909              2.746
 Vibration     9          0.617              1.907              2.724
 Vibration    10          0.630              1.864              2.307
 Vibration    11          0.639              1.836              2.106
 Vibration    12          0.651              1.798              1.893
 Vibration    13          0.656              1.784              1.826
 Vibration    14          0.659              1.774              1.778
 Vibration    15          0.670              1.741              1.641
 Vibration    16          0.680              1.711              1.534
 Vibration    17          0.685              1.694              1.480
 Vibration    18          0.697              1.662              1.383
 Vibration    19          0.708              1.629              1.293
 Vibration    20          0.722              1.589              1.196
 Vibration    21          0.736              1.551              1.114
 Vibration    22          0.757              1.492              1.002
 Vibration    23          0.775              1.447              0.925
 Vibration    24          0.780              1.434              0.903
 Vibration    25          0.827              1.318              0.739
 Vibration    26          0.844              1.276              0.688
 Vibration    27          0.865              1.228              0.634
 Vibration    28          0.897              1.157              0.561
 Vibration    29          0.937              1.074              0.485
 Vibration    30          0.976              0.997              0.422

 Optimization completed.
    -- Stationary point found.
 Normal termination of Gaussian 16 at Sun May 28 22:32:17 2023.
