 Gaussian 16, Revision A.03,
 Gaussian 16:  ES64L-G16RevA.03 25-Dec-2016

 -----------------------------
 # opt freq b3lyp/6-31g(2df,p)
 -----------------------------

 -------------------
 Title Card Required
 -------------------
 Symbolic Z-matrix:
 Charge =  0 Multiplicity = 1

 SCF Done:  E(RB3LYP) =  -484.341460313     A.U. after   13 cycles
 SCF Done:  E(RB3LYP) =  -484.349866968     A.U. after   11 cycles
 SCF Done:  E(RB3LYP) =  -484.343363806     A.U. after   11 cycles
 SCF Done:  E(RB3LYP) =  -484.351604770     A.U. after   12 cycles
 SCF Done:  E(RB3LYP) =  -484.355589885     A.U. after   11 cycles
 SCF Done:  E(RB3LYP) =  -484.345810118     A.U. after   12 cycles
 SCF Done:  E(RB3LYP) =  -484.359044996     A.U. after   11 cycles
 SCF Done:  E(RB3LYP) =  -484.362297402     A.U. after   11 cycles
 SCF Done:  E(RB3LYP) =  -484.364823228     A.U. after   11 cycles
 SCF Done:  E(RB3LYP) =  -484.366057287     A.U. after   10 cycles
 SCF Done:  E(RB3LYP) =  -484.368911687     A.U. after   11 cycles
 SCF Done:  E(RB3LYP) =  -484.368849907     A.U. after   10 cycles
 SCF Done:  E(RB3LYP) =  -484.368924652     A.U. after   10 cycles
 SCF Done:  E(RB3LYP) =  -484.368926412     A.U. after    8 cycles
 SCF Done:  E(RB3LYP) =  -484.368927123     A.U. after    9 cycles
 SCF Done:  E(RB3LYP) =  -484.368927269     A.U. after    6 cycles
 SCF Done:  E(RB3LYP) =  -484.368927395     A.U. after    7 cycles
 SCF Done:  E(RB3LYP) =  -484.368927485     A.U. after    7 cycles
 SCF Done:  E(RB3LYP) =  -484.368927508     A.U. after    6 cycles
 Optimization completed.
    -- Stationary point found.
 Normal termination of Gaussian 16 at Mon May 22 10:28:06 2023.

 ----------------------------------------------------------------------
 #N Geom=AllCheck Guess=TCheck SCRF=Check GenChk RB3LYP/6-31G(2df,p) Fr
 eq
 ----------------------------------------------------------------------

 Structure from the checkpoint file:  "CC1OC1NqCqCrCrCqCrC.chk"
 -------------------
 Title Card Required
 -------------------
 Charge =  0 Multiplicity = 1

                         Standard orientation:
 ---------------------------------------------------------------------
 Center     Atomic      Atomic             Coordinates (Angstroms)
 Number     Number       Type             X           Y           Z
 ---------------------------------------------------------------------
      1          6           0       -3.307255   -0.643364   -0.091908
      2          6           0       -1.920000   -0.587037    0.494117
      3          8           0       -1.094672   -1.737231    0.307170
      4          6           0       -0.701972   -0.523609   -0.335905
      5          7           0        0.478974    0.108912    0.151391
      6          6           0        1.770433   -0.508266   -0.245270
      7          6           0        2.786007   -0.340196    0.894971
      8          6           0        1.651057   -1.994419   -0.601689
      9          6           0        0.481865    1.581493   -0.006012
     10          6           0        0.171851    2.068751   -1.436007
     11          6           0       -0.423622    2.278505    1.016722
     12          1           0       -3.948921   -1.300733    0.504197
     13          1           0       -3.284555   -1.027916   -1.115084
     14          1           0       -3.764100    0.352508   -0.100633
     15          1           0       -1.843002   -0.166113    1.495781
     16          1           0       -0.843721   -0.576823   -1.421885
     17          1           0        2.167527    0.008664   -1.137310
     18          1           0        2.452154   -0.898764    1.774833
     19          1           0        2.913421    0.704932    1.190513
     20          1           0        3.767716   -0.719075    0.591401
     21          1           0        1.263974   -2.571283    0.241112
     22          1           0        2.643311   -2.375582   -0.860684
     23          1           0        0.995188   -2.169130   -1.457982
     24          1           0        1.506700    1.889472    0.221924
     25          1           0       -0.873804    1.885446   -1.704677
     26          1           0        0.805198    1.573195   -2.178625
     27          1           0        0.346973    3.146458   -1.516141
     28          1           0       -1.483732    2.110723    0.805053
     29          1           0       -0.254161    3.360022    0.990137
     30          1           0       -0.211793    1.918318    2.026856
 ---------------------------------------------------------------------

 SCF Done:  E(RB3LYP) =  -484.368927508     A.U. after    1 cycles

 The electronic state is 1-A.
 Alpha  occ. eigenvalues --  -19.13935 -14.31444 -10.24830 -10.22987 -10.21324
 Alpha  occ. eigenvalues --  -10.20978 -10.18073 -10.17415 -10.17139 -10.16619
 Alpha  occ. eigenvalues --  -10.16465  -1.06652  -0.91192  -0.78356  -0.74388
 Alpha  occ. eigenvalues --   -0.74056  -0.68541  -0.67953  -0.64119  -0.59543
 Alpha  occ. eigenvalues --   -0.58117  -0.55585  -0.48555  -0.48044  -0.47015
 Alpha  occ. eigenvalues --   -0.45174  -0.43515  -0.42519  -0.40957  -0.40681
 Alpha  occ. eigenvalues --   -0.39646  -0.38714  -0.38515  -0.37750  -0.36896
 Alpha  occ. eigenvalues --   -0.36079  -0.35497  -0.34464  -0.33540  -0.32949
 Alpha  occ. eigenvalues --   -0.32150  -0.28513  -0.26175  -0.21055
 Alpha virt. eigenvalues --    0.07503   0.09347   0.10434   0.11141   0.11884
 Alpha virt. eigenvalues --    0.13134   0.13420   0.13817   0.14733   0.15122
 Alpha virt. eigenvalues --    0.15513   0.16772   0.16894   0.17832   0.18429

 Mulliken charges:
               1
     1  C   -0.423833
     2  C    0.074096
     3  O   -0.269229
     4  C    0.045470
     5  N   -0.071958
     6  C    0.063187
     7  C   -0.373839
     8  C   -0.398439
     9  C    0.065398
    10  C   -0.396461
    11  C   -0.399079
    12  H    0.129715
    13  H    0.124670
    14  H    0.120644
    15  H    0.095508
    16  H    0.078272
    17  H    0.059888
    18  H    0.121975
    19  H    0.110379
    20  H    0.106020
    21  H    0.142315
    22  H    0.104451
    23  H    0.115707
    24  H    0.082490
    25  H    0.117055
    26  H    0.116787
    27  H    0.112756
    28  H    0.117510
    29  H    0.108845
    30  H    0.119701
 Sum of Mulliken charges =  -0.00000

 Dipole moment (field-independent basis, Debye):
    X=             -0.1414    Y=              1.7424    Z=             -0.7449  Tot=              1.9002
 Quadrupole moment (field-independent basis, Debye-Ang):
   XX=            -66.3327   YY=            -73.0281   ZZ=            -70.1237
   XY=             -1.0645   XZ=             -0.6021   YZ=              1.0030

  Exact polarizability: 121.961  -1.464 107.760  -1.528   1.594  94.781
 Approx polarizability: 158.355  -0.481 151.331  -4.351  -0.044 143.062

                      1                      2                      3
                      A                      A                      A
 Frequencies --     35.2342                64.4067                98.2346
 Red. masses --      2.7237                 2.5592                 3.2408
 Frc consts  --      0.0020                 0.0063                 0.0184
 IR Inten    --      0.1325                 0.4808                 1.5506

                      4                      5                      6
                      A                      A                      A
 Frequencies --    123.5526               154.6609               196.8946
 Red. masses --      3.0469                 2.1545                 1.1797
 Frc consts  --      0.0274                 0.0304                 0.0269
 IR Inten    --      0.8012                 0.1490                 0.1498

                      7                      8                      9
                      A                      A                      A
 Frequencies --    205.0315               225.3742               252.6244
 Red. masses --      1.9911                 1.2623                 1.1626
 Frc consts  --      0.0493                 0.0378                 0.0437
 IR Inten    --      0.3615                 0.3001                 0.0023

                     10                     11                     12
                      A                      A                      A
 Frequencies --    268.9482               276.2389               282.4983
 Red. masses --      1.2654                 1.7480                 1.1499
 Frc consts  --      0.0539                 0.0786                 0.0541
 IR Inten    --      0.1293                 0.9195                 0.7177

                     13                     14                     15
                      A                      A                      A
 Frequencies --    309.6462               335.4464               363.1240
 Red. masses --      2.5075                 2.8757                 2.6713
 Frc consts  --      0.1417                 0.1907                 0.2075
 IR Inten    --      0.6308                 1.3269                 0.2391

                     16                     17                     18
                      A                      A                      A
 Frequencies --    400.3045               450.3820               456.0554
 Red. masses --      2.2097                 3.0375                 2.5329
 Frc consts  --      0.2086                 0.3630                 0.3104
 IR Inten    --      0.2321                 6.1273                 3.4283

                     19                     20                     21
                      A                      A                      A
 Frequencies --    489.4532               512.6428               585.2967
 Red. masses --      3.0313                 3.2838                 2.7632
 Frc consts  --      0.4279                 0.5085                 0.5577
 IR Inten    --      3.1640                 2.5294                 5.3009

                     22                     23                     24
                      A                      A                      A
 Frequencies --    776.2921               807.5618               846.0076
 Red. masses --      2.9669                 3.3313                 3.1188
 Frc consts  --      1.0534                 1.2800                 1.3152
 IR Inten    --      9.7504                13.0403                 0.7605

                     25                     26                     27
                      A                      A                      A
 Frequencies --    880.5152               911.8438               920.2477
 Red. masses --      2.1981                 2.1602                 1.2239
 Frc consts  --      1.0041                 1.0582                 0.6107
 IR Inten    --      8.1170                 9.0096                 0.1880

                     28                     29                     30
                      A                      A                      A
 Frequencies --    930.8480               941.9439               954.8752
 Red. masses --      1.1800                 1.4655                 1.5116
 Frc consts  --      0.6024                 0.7661                 0.8120
 IR Inten    --      0.3585                 0.2288                 2.1708

                     31                     32                     33
                      A                      A                      A
 Frequencies --    971.8659              1028.7600              1048.0487
 Red. masses --      2.4798                 2.4129                 1.5662
 Frc consts  --      1.3800                 1.5046                 1.0136
 IR Inten    --     16.5570                 5.7293                29.2542

                     34                     35                     36
                      A                      A                      A
 Frequencies --   1096.9620              1105.7026              1121.7608
 Red. masses --      2.0441                 1.9776                 1.8851
 Frc consts  --      1.4492                 1.4245                 1.3976
 IR Inten    --     14.8361                16.6999                 8.7646

                     37                     38                     39
                      A                      A                      A
 Frequencies --   1142.9582              1155.0971              1177.4140
 Red. masses --      2.0175                 2.1095                 1.5258
 Frc consts  --      1.5528                 1.6583                 1.2463
 IR Inten    --     18.7100                 6.5842                 7.6127

                     40                     41                     42
                      A                      A                      A
 Frequencies --   1181.8974              1203.5607              1208.6832
 Red. masses --      1.6765                 2.0107                 2.3049
 Frc consts  --      1.3798                 1.7161                 1.9840
 IR Inten    --      2.4738                11.7304                50.3908

                     43                     44                     45
                      A                      A                      A
 Frequencies --   1252.9667              1292.0499              1346.5953
 Red. masses --      2.8395                 1.5129                 1.3259
 Frc consts  --      2.6264                 1.4881                 1.4166
 IR Inten    --     54.4153                26.9654                 6.0049

                     46                     47                     48
                      A                      A                      A
 Frequencies --   1352.8790              1367.6754              1375.6162
 Red. masses --      1.1689                 1.4045                 1.2250
 Frc consts  --      1.2605                 1.5479                 1.3658
 IR Inten    --     54.6474                 7.3017                 4.9581

                     49                     50                     51
                      A                      A                      A
 Frequencies --   1393.7013              1399.1267              1409.4632
 Red. masses --      1.2517                 1.2700                 1.2476
 Frc consts  --      1.4325                 1.4647                 1.4603
 IR Inten    --      5.9437                12.1767                 4.0404

                     52                     53                     54
                      A                      A                      A
 Frequencies --   1413.3105              1421.8615              1427.1196
 Red. masses --      1.2524                 1.2195                 1.3680
 Frc consts  --      1.4739                 1.4526                 1.6416
 IR Inten    --      2.9039                14.8643                 5.1918

                     55                     56                     57
                      A                      A                      A
 Frequencies --   1469.0656              1483.0342              1484.8283
 Red. masses --      1.4158                 1.0474                 1.0521
 Frc consts  --      1.8003                 1.3573                 1.3667
 IR Inten    --     10.5299                 1.0196                 3.3992

                     58                     59                     60
                      A                      A                      A
 Frequencies --   1487.3666              1489.4285              1493.1767
 Red. masses --      1.0438                 1.1255                 1.0590
 Frc consts  --      1.3605                 1.4711                 1.3911
 IR Inten    --      0.2797                 9.7193                 2.0884

                     61                     62                     63
                      A                      A                      A
 Frequencies --   1499.5163              1500.4501              1503.9873
 Red. masses --      1.1153                 1.0650                 1.1846
 Frc consts  --      1.4776                 1.4126                 1.5787
 IR Inten    --      5.9844                 1.4382                 2.1791

                     64                     65                     66
                      A                      A                      A
 Frequencies --   1512.2361              1514.1606              2929.4611
 Red. masses --      1.0596                 1.1399                 1.0811
 Frc consts  --      1.4277                 1.5398                 5.4663
 IR Inten    --      2.8768                15.3843                51.2473

                     67                     68                     69
                      A                      A                      A
 Frequencies --   3015.9935              3032.5225              3033.9442
 Red. masses --      1.0803                 1.0366                 1.0369
 Frc consts  --      5.7895                 5.6167                 5.6236
 IR Inten    --     28.3297                24.4457                33.0350

                     70                     71                     72
                      A                      A                      A
 Frequencies --   3034.7276              3039.4309              3049.6867
 Red. masses --      1.0362                 1.0358                 1.0376
 Frc consts  --      5.6227                 5.6376                 5.6857
 IR Inten    --     12.6790                19.3460                16.7430

                     73                     74                     75
                      A                      A                      A
 Frequencies --   3055.2646              3097.4443              3098.6163
 Red. masses --      1.0821                 1.1004                 1.1008
 Frc consts  --      5.9515                 6.2204                 6.2273
 IR Inten    --     12.0291                19.4927                 0.3412

                     76                     77                     78
                      A                      A                      A
 Frequencies --   3103.5028              3103.7426              3107.1943
 Red. masses --      1.1002                 1.1014                 1.0991
 Frc consts  --      6.2432                 6.2513                 6.2521
 IR Inten    --     20.6425                35.3764                49.9991

                     79                     80                     81
                      A                      A                      A
 Frequencies --   3110.9066              3113.2289              3115.8260
 Red. masses --      1.0951                 1.1012                 1.1008
 Frc consts  --      6.2444                 6.2882                 6.2968
 IR Inten    --      0.5846                37.9377                47.4343

                     82                     83                     84
                      A                      A                      A
 Frequencies --   3121.0245              3129.0122              3135.6341
 Red. masses --      1.1021                 1.0942                 1.1015
 Frc consts  --      6.3249                 6.3120                 6.3811
 IR Inten    --     28.7535                34.3782                18.6181

 - Thermochemistry -
 -------------------
 Temperature   298.150 Kelvin.  Pressure   1.00000 Atm.
 Atom     1 has atomic number  6 and mass  12.00000

 Molecular mass:   157.14666 amu.
 Principal axes and moments of inertia in atomic units:
                           1         2         3
     Eigenvalues --  1451.680661986.310472803.27037
           X            0.99880  -0.04857   0.00584
           Y            0.04851   0.99878   0.00972
           Z           -0.00631  -0.00943   0.99994
 This molecule is an asymmetric top.
 Rotational symmetry number  1.
 Warning -- assumption of classical behavior for rotation
           may cause significant error
 Rotational temperatures (Kelvin)      0.05966     0.04361     0.03090
 Rotational constants (GHZ):           1.24321     0.90859     0.64380
 Zero-point vibrational energy     710675.6 (Joules/Mol)
                                  169.85554 (Kcal/Mol)
 Warning -- explicit consideration of  21 degrees of freedom as
           vibrations may cause significant error
 Vibrational temperatures:     50.69    92.67   141.34   177.76   222.52
          (Kelvin)            283.29   294.99   324.26   363.47   386.96
                              397.45   406.45   445.51   482.63   522.45
                              575.95   648.00   656.16   704.21   737.58
                              842.11  1116.91  1161.90  1217.22  1266.87
                             1311.94  1324.03  1339.28  1355.25  1373.85
                             1398.30  1480.16  1507.91  1578.28  1590.86
                             1613.96  1644.46  1661.93  1694.04  1700.49
                             1731.66  1739.03  1802.74  1858.97  1937.45
                             1946.49  1967.78  1979.20  2005.23  2013.03
                             2027.90  2033.44  2045.74  2053.31  2113.66
                             2133.76  2136.34  2139.99  2142.96  2148.35
                             2157.47  2158.81  2163.90  2175.77  2178.54
                             4214.84  4339.34  4363.12  4365.17  4366.30
                             4373.06  4387.82  4395.84  4456.53  4458.22
                             4465.25  4465.59  4470.56  4475.90  4479.24
                             4482.98  4490.46  4501.95  4511.48

 Zero-point correction=                           0.270682 (Hartree/Particle)
 Thermal correction to Energy=                    0.284277
 Thermal correction to Enthalpy=                  0.285221
 Thermal correction to Gibbs Free Energy=         0.231263
 Sum of electronic and zero-point Energies=           -484.098245
 Sum of electronic and thermal Energies=              -484.084650
 Sum of electronic and thermal Enthalpies=            -484.083706
 Sum of electronic and thermal Free Energies=         -484.137664

                     E (Thermal)             CV                S
                      KCal/Mol        Cal/Mol-Kelvin    Cal/Mol-Kelvin
 Total                  178.387             50.841            113.564
 Electronic               0.000              0.000              0.000
 Translational            0.889              2.981             41.065
 Rotational               0.889              2.981             30.470
 Vibrational            176.609             44.880             42.028
 Vibration     1          0.594              1.982              5.510
 Vibration     2          0.597              1.971              4.317
 Vibration     3          0.604              1.950              3.489
 Vibration     4          0.610              1.929              3.044
 Vibration     5          0.620              1.897              2.614
 Vibration     6          0.636              1.844              2.162
 Vibration     7          0.640              1.833              2.087
 Vibration     8          0.650              1.802              1.915
 Vibration     9          0.664              1.758              1.712
 Vibration    10          0.673              1.730              1.603
 Vibration    11          0.678              1.717              1.557
 Vibration    12          0.682              1.706              1.518
 Vibration    13          0.699              1.655              1.364
 Vibration    14          0.717              1.605              1.234
 Vibration    15          0.737              1.548              1.109
 Vibration    16          0.766              1.469              0.962
 Vibration    17          0.809              1.360              0.795
 Vibration    18          0.814              1.348              0.778
 Vibration    19          0.845              1.273              0.685
 Vibration    20          0.868              1.222              0.627
 Vibration    21          0.942              1.063              0.476

                           ! Non-Optimized Parameters !
 Normal termination of Gaussian 16 at Mon May 22 11:40:10 2023.
