 Gaussian 16, Revision A.03,
 Gaussian 16:  ES64L-G16RevA.03 25-Dec-2016

 -----------------------------
 # opt freq b3lyp/6-31g(2df,p)
 -----------------------------

 -------------------
 Title Card Required
 -------------------
 Symbolic Z-matrix:
 Charge =  0 Multiplicity = 1

 SCF Done:  E(RB3LYP) =  -351.294039619     A.U. after   12 cycles
 SCF Done:  E(RB3LYP) =  -351.321103272     A.U. after   11 cycles
 SCF Done:  E(RB3LYP) =  -351.332698275     A.U. after   11 cycles
 SCF Done:  E(RB3LYP) =  -351.334357050     A.U. after   10 cycles
 SCF Done:  E(RB3LYP) =  -351.334588334     A.U. after   10 cycles
 SCF Done:  E(RB3LYP) =  -351.334817824     A.U. after    9 cycles
 SCF Done:  E(RB3LYP) =  -351.334862704     A.U. after    8 cycles
 SCF Done:  E(RB3LYP) =  -351.334877108     A.U. after    8 cycles
 SCF Done:  E(RB3LYP) =  -351.334880449     A.U. after    8 cycles
 SCF Done:  E(RB3LYP) =  -351.334880839     A.U. after    6 cycles
 SCF Done:  E(RB3LYP) =  -351.334880940     A.U. after    5 cycles
 Optimization completed.
    -- Stationary point found.
 Normal termination of Gaussian 16 at Sun May 28 11:47:30 2023.

 ----------------------------------------------------------------------
 #N Geom=AllCheck Guess=TCheck SCRF=Check GenChk RB3LYP/6-31G(2df,p) Fr
 eq
 ----------------------------------------------------------------------

 Structure from the checkpoint file:  "CC1qCrC2C3CCC2C31.chk"
 -------------------
 Title Card Required
 -------------------
 Charge =  0 Multiplicity = 1

                         Standard orientation:
 ---------------------------------------------------------------------
 Center     Atomic      Atomic             Coordinates (Angstroms)
 Number     Number       Type             X           Y           Z
 ---------------------------------------------------------------------
      1          6           0       -2.138574    1.238274    0.000101
      2          6           0       -1.235665    0.000000   -0.000005
      3          6           0       -2.138507   -1.238309   -0.000072
      4          6           0        0.016520   -0.000040    0.938780
      5          6           0        0.725954   -1.034657   -0.000127
      6          6           0        2.231217   -0.775615    0.000167
      7          6           0        2.231191    0.775639   -0.000143
      8          6           0        0.725942    1.034673    0.000095
      9          6           0        0.016492    0.000048   -0.938813
     10          1           0       -2.791138    1.233049    0.881210
     11          1           0       -2.791455    1.233009   -0.880769
     12          1           0       -1.595168    2.184059   -0.000042
     13          1           0       -2.791334   -1.233111    0.880837
     14          1           0       -1.595025   -2.184058   -0.000011
     15          1           0       -2.791115   -1.233082   -0.881143
     16          1           0        0.027441   -0.000206    2.032765
     17          1           0        0.404474   -2.074390   -0.000186
     18          1           0        2.721415   -1.201627   -0.881469
     19          1           0        2.720652   -1.201099    0.882503
     20          1           0        2.720635    1.201158   -0.882453
     21          1           0        2.721387    1.201652    0.881501
     22          1           0        0.404375    2.074373    0.000158
     23          1           0        0.027437    0.000197   -2.032797
 ---------------------------------------------------------------------

 SCF Done:  E(RB3LYP) =  -351.334880940     A.U. after    1 cycles

 The electronic state is 1-A.
 Alpha  occ. eigenvalues --  -10.19193 -10.18711 -10.18708 -10.18258 -10.18257
 Alpha  occ. eigenvalues --  -10.17111 -10.17092 -10.16479 -10.16478  -0.91501
 Alpha  occ. eigenvalues --   -0.78228  -0.72045  -0.69336  -0.66613  -0.61913
 Alpha  occ. eigenvalues --   -0.57200  -0.55509  -0.50107  -0.48816  -0.46372
 Alpha  occ. eigenvalues --   -0.44722  -0.41622  -0.39923  -0.39780  -0.37477
 Alpha  occ. eigenvalues --   -0.36476  -0.35684  -0.32711  -0.32265  -0.30128
 Alpha  occ. eigenvalues --   -0.29639  -0.28906  -0.28203  -0.27954
 Alpha virt. eigenvalues --    0.09428   0.10652   0.12856   0.12921   0.13272
 Alpha virt. eigenvalues --    0.14194   0.14962   0.15024   0.15515   0.15590
 Alpha virt. eigenvalues --    0.17250   0.18713   0.19250   0.19829   0.20476

 Mulliken charges:
               1
     1  C   -0.464220
     2  C    0.359076
     3  C   -0.464209
     4  C   -0.097900
     5  C   -0.002138
     6  C   -0.248822
     7  C   -0.248816
     8  C   -0.002139
     9  C   -0.097919
    10  H    0.110550
    11  H    0.110546
    12  H    0.112488
    13  H    0.110544
    14  H    0.112487
    15  H    0.110546
    16  H    0.053698
    17  H    0.058030
    18  H    0.094112
    19  H    0.094124
    20  H    0.094121
    21  H    0.094112
    22  H    0.058031
    23  H    0.053701
 Sum of Mulliken charges =   0.00000

 Dipole moment (field-independent basis, Debye):
    X=              0.0409    Y=              0.0000    Z=              0.0000  Tot=              0.0409
 Quadrupole moment (field-independent basis, Debye-Ang):
   XX=            -57.1779   YY=            -56.5785   ZZ=            -55.8161
   XY=             -0.0002   XZ=              0.0000   YZ=             -0.0001

  Exact polarizability: 105.196  -0.000  85.215   0.000  -0.001  78.526
 Approx polarizability: 134.175  -0.001 126.903   0.001   0.000 127.739

                      1                      2                      3
                      A                      A                      A
 Frequencies --    140.1113               183.3015               196.5154
 Red. masses --      1.0246                 2.0558                 1.1464
 Frc consts  --      0.0119                 0.0407                 0.0261
 IR Inten    --      0.0000                 0.0000                 0.1517

                      4                      5                      6
                      A                      A                      A
 Frequencies --    263.6802               272.3413               273.4858
 Red. masses --      1.8513                 2.0401                 3.1609
 Frc consts  --      0.0758                 0.0892                 0.1393
 IR Inten    --      0.0000                 0.3091                 0.1485

                      7                      8                      9
                      A                      A                      A
 Frequencies --    397.9655               445.4249               501.8409
 Red. masses --      2.4562                 2.0575                 3.2736
 Frc consts  --      0.2292                 0.2405                 0.4857
 IR Inten    --      0.0034                 0.0021                 1.0868

                     10                     11                     12
                      A                      A                      A
 Frequencies --    571.3873               715.7854               747.7407
 Red. masses --      3.5885                 4.2455                 2.9527
 Frc consts  --      0.6903                 1.2816                 0.9727
 IR Inten    --      0.3443                 0.4488                 1.9741

                     13                     14                     15
                      A                      A                      A
 Frequencies --    754.9286               775.7919               819.7380
 Red. masses --      3.1825                 2.3780                 1.4085
 Frc consts  --      1.0686                 0.8433                 0.5577
 IR Inten    --      0.0000                 0.9373                 0.0993

                     16                     17                     18
                      A                      A                      A
 Frequencies --    871.8461               888.3349               938.0780
 Red. masses --      1.7251                 2.6069                 3.5140
 Frc consts  --      0.7726                 1.2121                 1.8219
 IR Inten    --      0.0188                 0.1161                 0.7554

                     19                     20                     21
                      A                      A                      A
 Frequencies --    947.2218               953.2717               960.1654
 Red. masses --      1.4083                 2.7453                 2.2741
 Frc consts  --      0.7445                 1.4699                 1.2352
 IR Inten    --      0.0138                 0.9766                 0.0002

                     22                     23                     24
                      A                      A                      A
 Frequencies --    985.8562               986.7954              1005.4868
 Red. masses --      1.6923                 1.0630                 1.2772
 Frc consts  --      0.9690                 0.6099                 0.7608
 IR Inten    --      0.3302                 0.0000                 0.0000

                     25                     26                     27
                      A                      A                      A
 Frequencies --   1046.2239              1072.5550              1079.6361
 Red. masses --      1.9122                 1.8545                 1.0811
 Frc consts  --      1.2332                 1.2569                 0.7425
 IR Inten    --      5.8298                 0.0000                 1.8012

                     28                     29                     30
                      A                      A                      A
 Frequencies --   1086.8053              1141.2237              1172.6026
 Red. masses --      3.8476                 1.6237                 1.5067
 Frc consts  --      2.6776                 1.2460                 1.2206
 IR Inten    --      1.1130                 1.4287                 0.0000

                     31                     32                     33
                      A                      A                      A
 Frequencies --   1180.8375              1182.9106              1198.2589
 Red. masses --      1.3587                 1.6912                 2.0145
 Frc consts  --      1.1162                 1.3943                 1.7042
 IR Inten    --      8.1507                 0.1218                 3.1147

                     34                     35                     36
                      A                      A                      A
 Frequencies --   1229.2872              1252.5880              1253.4270
 Red. masses --      2.2068                 1.1360                 1.7547
 Frc consts  --      1.9648                 1.0501                 1.6243
 IR Inten    --      7.7373                 0.0001                 4.1497

                     37                     38                     39
                      A                      A                      A
 Frequencies --   1254.8326              1292.4388              1320.1770
 Red. masses --      1.8616                 1.7765                 2.7719
 Frc consts  --      1.7270                 1.7483                 2.8464
 IR Inten    --      0.1008                 0.0320                10.4471

                     40                     41                     42
                      A                      A                      A
 Frequencies --   1322.0371              1384.9917              1408.5388
 Red. masses --      1.5642                 1.6179                 1.2599
 Frc consts  --      1.6107                 1.8285                 1.4728
 IR Inten    --      4.0498                 0.2907                 6.5563

                     43                     44                     45
                      A                      A                      A
 Frequencies --   1427.1157              1482.7970              1488.1421
 Red. masses --      1.2045                 1.0440                 1.0801
 Frc consts  --      1.4454                 1.3524                 1.4093
 IR Inten    --      2.1600                 0.0000                 0.1203

                     46                     47                     48
                      A                      A                      A
 Frequencies --   1489.6431              1508.9079              1508.9400
 Red. masses --      1.0491                 1.1036                 1.0489
 Frc consts  --      1.3716                 1.4804                 1.4071
 IR Inten    --      4.8163                 0.1843                 8.4368

                     49                     50                     51
                      A                      A                      A
 Frequencies --   1511.0024              3024.7839              3030.9872
 Red. masses --      1.0743                 1.0407                 1.0410
 Frc consts  --      1.4451                 5.6098                 5.6345
 IR Inten    --      0.4139                12.1932                56.9513

                     52                     53                     54
                      A                      A                      A
 Frequencies --   3036.4270              3046.6827              3060.8876
 Red. masses --      1.0581                 1.0604                 1.0889
 Frc consts  --      5.7478                 5.7993                 6.0107
 IR Inten    --     35.1041                67.5916               123.4942

                     55                     56                     57
                      A                      A                      A
 Frequencies --   3066.0378              3068.0265              3075.5235
 Red. masses --      1.0881                 1.1059                 1.1002
 Frc consts  --      6.0265                 6.1331                 6.1314
 IR Inten    --      0.4208                 0.0013                 0.0002

                     58                     59                     60
                      A                      A                      A
 Frequencies --   3081.7659              3088.3315              3118.6889
 Red. masses --      1.0995                 1.1054                 1.0927
 Frc consts  --      6.1525                 6.2118                 6.2617
 IR Inten    --     48.7593                52.8076                 6.0747

                     61                     62                     63
                      A                      A                      A
 Frequencies --   3122.8492              3139.9274              3141.9977
 Red. masses --      1.0949                 1.0886                 1.0899
 Frc consts  --      6.2908                 6.3234                 6.3395
 IR Inten    --     25.0402               106.0252                 0.8592

 - Thermochemistry -
 -------------------
 Temperature   298.150 Kelvin.  Pressure   1.00000 Atm.
 Atom     1 has atomic number  6 and mass  12.00000

 Molecular mass:   122.10955 amu.
 Principal axes and moments of inertia in atomic units:
                           1         2         3
     Eigenvalues --   510.355241294.949901550.00267
           X            1.00000  -0.00000  -0.00000
           Y            0.00000   1.00000  -0.00001
           Z            0.00000   0.00001   1.00000
 This molecule is an asymmetric top.
 Rotational symmetry number  1.
 Warning -- assumption of classical behavior for rotation
           may cause significant error
 Rotational temperatures (Kelvin)      0.16971     0.06689     0.05588
 Rotational constants (GHZ):           3.53625     1.39368     1.16435
 Zero-point vibrational energy     544276.5 (Joules/Mol)
                                  130.08521 (Kcal/Mol)
 Warning -- explicit consideration of  10 degrees of freedom as
           vibrations may cause significant error
 Vibrational temperatures:    201.59   263.73   282.74   379.38   391.84
          (Kelvin)            393.49   572.58   640.87   722.04   822.10
                             1029.86  1075.83  1086.17  1116.19  1179.42
                             1254.39  1278.12  1349.69  1362.84  1371.55
                             1381.46  1418.43  1419.78  1446.67  1505.28
                             1543.17  1553.36  1563.67  1641.97  1687.11
                             1698.96  1701.94  1724.03  1768.67  1802.19
                             1803.40  1805.42  1859.53  1899.44  1902.12
                             1992.69  2026.57  2053.30  2133.41  2141.10
                             2143.26  2170.98  2171.03  2174.00  4351.99
                             4360.91  4368.74  4383.50  4403.93  4411.34
                             4414.21  4424.99  4433.97  4443.42  4487.10
                             4493.08  4517.66  4520.63

 Zero-point correction=                           0.207304 (Hartree/Particle)
 Thermal correction to Energy=                    0.215512
 Thermal correction to Enthalpy=                  0.216456
 Thermal correction to Gibbs Free Energy=         0.175201
 Sum of electronic and zero-point Energies=           -351.127577
 Sum of electronic and thermal Energies=              -351.119369
 Sum of electronic and thermal Enthalpies=            -351.118425
 Sum of electronic and thermal Free Energies=         -351.159680

                     E (Thermal)             CV                S
                      KCal/Mol        Cal/Mol-Kelvin    Cal/Mol-Kelvin
 Total                  135.236             33.715             86.829
 Electronic               0.000              0.000              0.000
 Translational            0.889              2.981             40.313
 Rotational               0.889              2.981             28.418
 Vibrational            133.458             27.754             18.098
 Vibration     1          0.615              1.913              2.802
 Vibration     2          0.631              1.863              2.295
 Vibration     3          0.636              1.845              2.165
 Vibration     4          0.670              1.739              1.637
 Vibration     5          0.675              1.724              1.581
 Vibration     6          0.676              1.722              1.574
 Vibration     7          0.764              1.474              0.970
 Vibration     8          0.805              1.371              0.810
 Vibration     9          0.857              1.246              0.654
 Vibration    10          0.928              1.093              0.502

 Optimization completed.
    -- Stationary point found.
 Normal termination of Gaussian 16 at Sun May 28 12:30:23 2023.
