 Gaussian 16, Revision A.03,
 Gaussian 16:  ES64L-G16RevA.03 25-Dec-2016

 -----------------------------
 # opt freq b3lyp/6-31g(2df,p)
 -----------------------------

 -------------------
 Title Card Required
 -------------------
 Symbolic Z-matrix:
 Charge =  0 Multiplicity = 1

 SCF Done:  E(RB3LYP) =  -351.320514844     A.U. after   12 cycles
 SCF Done:  E(RB3LYP) =  -351.336485159     A.U. after   10 cycles
 SCF Done:  E(RB3LYP) =  -351.338292848     A.U. after   10 cycles
 SCF Done:  E(RB3LYP) =  -351.338472404     A.U. after    9 cycles
 SCF Done:  E(RB3LYP) =  -351.338490243     A.U. after    8 cycles
 SCF Done:  E(RB3LYP) =  -351.338493121     A.U. after    7 cycles
 SCF Done:  E(RB3LYP) =  -351.338493535     A.U. after    6 cycles
 SCF Done:  E(RB3LYP) =  -351.338493572     A.U. after    5 cycles
 Optimization completed.
    -- Stationary point found.
 Normal termination of Gaussian 16 at Sun May 28 14:57:14 2023.

 ----------------------------------------------------------------------
 #N Geom=AllCheck Guess=TCheck SCRF=Check GenChk RB3LYP/6-31G(2df,p) Fr
 eq
 ----------------------------------------------------------------------

 Structure from the checkpoint file:  "CC1qCrCC2C3CC2C31.chk"
 -------------------
 Title Card Required
 -------------------
 Charge =  0 Multiplicity = 1

                         Standard orientation:
 ---------------------------------------------------------------------
 Center     Atomic      Atomic             Coordinates (Angstroms)
 Number     Number       Type             X           Y           Z
 ---------------------------------------------------------------------
      1          6           0       -1.925785    1.256801   -0.355868
      2          6           0       -1.096104    0.000013   -0.058228
      3          6           0       -1.925830   -1.256699   -0.356115
      4          6           0       -0.513691   -0.000177    1.396516
      5          6           0        0.983208   -0.000158    1.097064
      6          6           0        1.262938   -0.939181   -0.122516
      7          6           0        2.407556    0.000061   -0.566950
      8          6           0        1.262950    0.939199   -0.122245
      9          6           0        0.233725    0.000113   -0.832292
     10          1           0       -2.833913    1.282860    0.257006
     11          1           0       -2.235391    1.286603   -1.407102
     12          1           0       -1.358838    2.170342   -0.149441
     13          1           0       -2.833733   -1.283028    0.257076
     14          1           0       -1.358754   -2.170285   -0.150246
     15          1           0       -2.235813   -1.286092   -1.407247
     16          1           0       -0.822424   -0.882778    1.967405
     17          1           0       -0.822321    0.882360    1.967577
     18          1           0        1.687923   -0.000278    1.931992
     19          1           0        1.260206   -2.031206   -0.118954
     20          1           0        2.661004    0.000199   -1.631291
     21          1           0        3.311113   -0.000036    0.050350
     22          1           0        1.260319    2.031223   -0.118397
     23          1           0        0.186828    0.000272   -1.924925
 ---------------------------------------------------------------------

 SCF Done:  E(RB3LYP) =  -351.338493572     A.U. after    1 cycles

 The electronic state is 1-A.
 Alpha  occ. eigenvalues --  -10.18962 -10.18959 -10.18533 -10.18492 -10.18167
 Alpha  occ. eigenvalues --  -10.17813 -10.16916 -10.16688 -10.16688  -0.91781
 Alpha  occ. eigenvalues --   -0.79701  -0.71357  -0.67967  -0.65782  -0.61785
 Alpha  occ. eigenvalues --   -0.61083  -0.53301  -0.51490  -0.49010  -0.46154
 Alpha  occ. eigenvalues --   -0.43449  -0.41965  -0.41404  -0.39180  -0.38768
 Alpha  occ. eigenvalues --   -0.36664  -0.33879  -0.32560  -0.31574  -0.31059
 Alpha  occ. eigenvalues --   -0.29990  -0.28968  -0.28800  -0.28603
 Alpha virt. eigenvalues --    0.08676   0.11775   0.12079   0.12960   0.13455
 Alpha virt. eigenvalues --    0.14285   0.14804   0.15909   0.16582   0.16888
 Alpha virt. eigenvalues --    0.17334   0.17899   0.18444   0.18766   0.20546

 Mulliken charges:
               1
     1  C   -0.438634
     2  C    0.309502
     3  C   -0.438639
     4  C   -0.297347
     5  C    0.008843
     6  C   -0.065468
     7  C   -0.245313
     8  C   -0.065463
     9  C   -0.004887
    10  H    0.108822
    11  H    0.106951
    12  H    0.110493
    13  H    0.108828
    14  H    0.110494
    15  H    0.106950
    16  H    0.091013
    17  H    0.091012
    18  H    0.055576
    19  H    0.062735
    20  H    0.085369
    21  H    0.085505
    22  H    0.062734
    23  H    0.050925
 Sum of Mulliken charges =  -0.00000

 Dipole moment (field-independent basis, Debye):
    X=             -0.0996    Y=              0.0000    Z=              0.0476  Tot=              0.1104
 Quadrupole moment (field-independent basis, Debye-Ang):
   XX=            -57.3492   YY=            -56.7173   ZZ=            -56.1988
   XY=              0.0001   XZ=              0.1647   YZ=             -0.0001

  Exact polarizability: 100.351   0.000  82.420  -0.603  -0.000  83.993
 Approx polarizability: 131.858   0.001 127.150  -0.190  -0.000 129.538

                      1                      2                      3
                      A                      A                      A
 Frequencies --    135.4078               222.5216               230.4267
 Red. masses --      2.5706                 1.9319                 1.1945
 Frc consts  --      0.0278                 0.0564                 0.0374
 IR Inten    --      0.0000                 0.0317                 0.0158

                      4                      5                      6
                      A                      A                      A
 Frequencies --    253.6278               314.6025               340.4279
 Red. masses --      1.0932                 2.1317                 2.3200
 Frc consts  --      0.0414                 0.1243                 0.1584
 IR Inten    --      0.0398                 0.0867                 0.0440

                      7                      8                      9
                      A                      A                      A
 Frequencies --    387.3545               457.8969               470.8743
 Red. masses --      1.8368                 2.0720                 2.9521
 Frc consts  --      0.1624                 0.2560                 0.3856
 IR Inten    --      0.0969                 0.1119                 0.8012

                     10                     11                     12
                      A                      A                      A
 Frequencies --    575.9962               672.4628               767.3188
 Red. masses --      3.4311                 4.0202                 3.0668
 Frc consts  --      0.6707                 1.0711                 1.0639
 IR Inten    --      0.1073                 0.3789                 0.0483

                     13                     14                     15
                      A                      A                      A
 Frequencies --    812.3229               817.2852               869.0717
 Red. masses --      3.1612                 2.3930                 2.3914
 Frc consts  --      1.2290                 0.9418                 1.0642
 IR Inten    --      0.3096                 0.1163                 0.1081

                     16                     17                     18
                      A                      A                      A
 Frequencies --    879.8494               915.3802               926.7119
 Red. masses --      2.1794                 2.3969                 1.8442
 Frc consts  --      0.9940                 1.1833                 0.9331
 IR Inten    --      1.3390                 0.1472                 0.1834

                     19                     20                     21
                      A                      A                      A
 Frequencies --    934.1750               959.4112               964.9077
 Red. masses --      1.6553                 1.2986                 2.8235
 Frc consts  --      0.8511                 0.7043                 1.5488
 IR Inten    --      0.5987                 0.0067                 2.0351

                     22                     23                     24
                      A                      A                      A
 Frequencies --    977.4328              1002.5298              1002.5746
 Red. masses --      2.0127                 1.7743                 1.0603
 Frc consts  --      1.1330                 1.0507                 0.6279
 IR Inten    --      0.3429                 2.4766                 0.0031

                     25                     26                     27
                      A                      A                      A
 Frequencies --   1029.0292              1047.0191              1061.8399
 Red. masses --      1.2950                 1.0971                 1.4011
 Frc consts  --      0.8079                 0.7086                 0.9308
 IR Inten    --      0.6135                 0.7099                 0.3790

                     28                     29                     30
                      A                      A                      A
 Frequencies --   1109.5146              1127.2311              1136.3594
 Red. masses --      3.2396                 1.4136                 1.4698
 Frc consts  --      2.3497                 1.0583                 1.1183
 IR Inten    --      0.7308                 4.0192                 0.1328

                     31                     32                     33
                      A                      A                      A
 Frequencies --   1178.6574              1201.9198              1203.6110
 Red. masses --      1.5376                 1.5087                 1.9823
 Frc consts  --      1.2586                 1.2841                 1.6920
 IR Inten    --      0.0965                 0.3876                 5.6662

                     34                     35                     36
                      A                      A                      A
 Frequencies --   1220.8690              1237.0443              1238.8107
 Red. masses --      2.4477                 1.6834                 1.7773
 Frc consts  --      2.1495                 1.5178                 1.6070
 IR Inten    --      0.6111                 1.7593                 3.8633

                     37                     38                     39
                      A                      A                      A
 Frequencies --   1267.2425              1283.7937              1287.8156
 Red. masses --      1.7867                 1.8871                 1.5753
 Frc consts  --      1.6905                 1.8325                 1.5393
 IR Inten    --      0.1070                12.1655                 2.4644

                     40                     41                     42
                      A                      A                      A
 Frequencies --   1312.4543              1370.5728              1399.3795
 Red. masses --      2.3821                 1.7455                 1.2477
 Frc consts  --      2.4175                 1.9319                 1.4395
 IR Inten    --      7.4678                 2.7729                 6.2699

                     43                     44                     45
                      A                      A                      A
 Frequencies --   1421.4699              1485.0262              1489.0779
 Red. masses --      1.2294                 1.0454                 1.0512
 Frc consts  --      1.4636                 1.3583                 1.3733
 IR Inten    --      1.7012                 0.0177                 2.9919

                     46                     47                     48
                      A                      A                      A
 Frequencies --   1496.1792              1504.6335              1509.1178
 Red. masses --      1.0890                 1.0601                 1.0602
 Frc consts  --      1.4363                 1.4141                 1.4227
 IR Inten    --      3.1995                 1.6506                 3.6138

                     49                     50                     51
                      A                      A                      A
 Frequencies --   1518.0284              3019.4529              3023.6930
 Red. masses --      1.1319                 1.0350                 1.0369
 Frc consts  --      1.5368                 5.5598                 5.5852
 IR Inten    --      0.0866                22.9754                27.5383

                     52                     53                     54
                      A                      A                      A
 Frequencies --   3034.9001              3040.0487              3072.1359
 Red. masses --      1.0580                 1.0539                 1.1054
 Frc consts  --      5.7413                 5.7388                 6.1468
 IR Inten    --     42.4813                67.1935                17.2820

                     55                     56                     57
                      A                      A                      A
 Frequencies --   3072.5341              3081.5757              3082.1040
 Red. masses --      1.0854                 1.0900                 1.0869
 Frc consts  --      6.0374                 6.0983                 6.0832
 IR Inten    --     18.1444                87.8950                49.0187

                     58                     59                     60
                      A                      A                      A
 Frequencies --   3083.5900              3088.1755              3095.5982
 Red. masses --      1.1015                 1.1002                 1.0965
 Frc consts  --      6.1710                 6.1821                 6.1910
 IR Inten    --      2.9861                65.3918                 0.1734

                     61                     62                     63
                      A                      A                      A
 Frequencies --   3095.9893              3098.4831              3099.2820
 Red. masses --      1.1003                 1.0996                 1.1090
 Frc consts  --      6.2136                 6.2197                 6.2764
 IR Inten    --     52.3298                37.8747                68.5529

 - Thermochemistry -
 -------------------
 Temperature   298.150 Kelvin.  Pressure   1.00000 Atm.
 Atom     1 has atomic number  6 and mass  12.00000

 Molecular mass:   122.10955 amu.
 Principal axes and moments of inertia in atomic units:
                           1         2         3
     Eigenvalues --   574.030711277.812261311.64397
           X            1.00000   0.00000   0.00216
           Y           -0.00000   1.00000   0.00001
           Z           -0.00216  -0.00001   1.00000
 This molecule is an asymmetric top.
 Rotational symmetry number  1.
 Warning -- assumption of classical behavior for rotation
           may cause significant error
 Rotational temperatures (Kelvin)      0.15089     0.06778     0.06603
 Rotational constants (GHZ):           3.14398     1.41237     1.37594
 Zero-point vibrational energy     544389.6 (Joules/Mol)
                                  130.11223 (Kcal/Mol)
 Warning -- explicit consideration of  10 degrees of freedom as
           vibrations may cause significant error
 Vibrational temperatures:    194.82   320.16   331.53   364.91   452.64
          (Kelvin)            489.80   557.32   658.81   677.48   828.73
                              967.52  1104.00  1168.75  1175.89  1250.40
                             1265.91  1317.03  1333.33  1344.07  1380.38
                             1388.29  1406.31  1442.42  1442.48  1480.54
                             1506.43  1527.75  1596.34  1621.83  1634.97
                             1695.83  1729.29  1731.73  1756.56  1779.83
                             1782.37  1823.28  1847.09  1852.88  1888.33
                             1971.95  2013.40  2045.18  2136.62  2142.45
                             2152.67  2164.83  2171.28  2184.10  4344.32
                             4350.42  4366.54  4373.95  4420.12  4420.69
                             4433.70  4434.46  4436.60  4443.20  4453.88
                             4454.44  4458.03  4459.18

 Zero-point correction=                           0.207347 (Hartree/Particle)
 Thermal correction to Energy=                    0.215325
 Thermal correction to Enthalpy=                  0.216270
 Thermal correction to Gibbs Free Energy=         0.175573
 Sum of electronic and zero-point Energies=           -351.131147
 Sum of electronic and thermal Energies=              -351.123168
 Sum of electronic and thermal Enthalpies=            -351.122224
 Sum of electronic and thermal Free Energies=         -351.162921

                     E (Thermal)             CV                S
                      KCal/Mol        Cal/Mol-Kelvin    Cal/Mol-Kelvin
 Total                  135.119             33.361             85.654
 Electronic               0.000              0.000              0.000
 Translational            0.889              2.981             40.313
 Rotational               0.889              2.981             28.355
 Vibrational            133.341             27.399             16.985
 Vibration     1          0.613              1.918              2.868
 Vibration     2          0.648              1.807              1.938
 Vibration     3          0.652              1.795              1.876
 Vibration     4          0.665              1.757              1.705
 Vibration     5          0.702              1.646              1.338
 Vibration     6          0.720              1.595              1.210
 Vibration     7          0.756              1.497              1.010
 Vibration     8          0.816              1.343              0.772
 Vibration     9          0.828              1.315              0.735
 Vibration    10          0.932              1.083              0.493

 Optimization completed.
    -- Stationary point found.
 Normal termination of Gaussian 16 at Sun May 28 15:48:18 2023.
