 Gaussian 16, Revision A.03,
 Gaussian 16:  ES64L-G16RevA.03 25-Dec-2016

 -----------------------------
 # opt freq b3lyp/6-31g(2df,p)
 -----------------------------

 -------------------
 Title Card Required
 -------------------
 Symbolic Z-matrix:
 Charge =  0 Multiplicity = 1

 SCF Done:  E(RB3LYP) =  -617.544218749     A.U. after   13 cycles
 SCF Done:  E(RB3LYP) =  -617.562992544     A.U. after   12 cycles
 SCF Done:  E(RB3LYP) =  -617.569277737     A.U. after   12 cycles
 SCF Done:  E(RB3LYP) =  -617.571392048     A.U. after   12 cycles
 SCF Done:  E(RB3LYP) =  -617.570935981     A.U. after   12 cycles
 SCF Done:  E(RB3LYP) =  -617.572337309     A.U. after   12 cycles
 SCF Done:  E(RB3LYP) =  -617.572531862     A.U. after   11 cycles
 SCF Done:  E(RB3LYP) =  -617.572593362     A.U. after   10 cycles
 SCF Done:  E(RB3LYP) =  -617.572631708     A.U. after   10 cycles
 SCF Done:  E(RB3LYP) =  -617.572662191     A.U. after   10 cycles
 SCF Done:  E(RB3LYP) =  -617.572704679     A.U. after    9 cycles
 SCF Done:  E(RB3LYP) =  -617.572712888     A.U. after    8 cycles
 SCF Done:  E(RB3LYP) =  -617.572714916     A.U. after    8 cycles
 SCF Done:  E(RB3LYP) =  -617.572716237     A.U. after    9 cycles
 SCF Done:  E(RB3LYP) =  -617.572716628     A.U. after   10 cycles
 SCF Done:  E(RB3LYP) =  -617.572716277     A.U. after    9 cycles
 SCF Done:  E(RB3LYP) =  -617.572716074     A.U. after    7 cycles
 SCF Done:  E(RB3LYP) =  -617.572716642     A.U. after    9 cycles
 SCF Done:  E(RB3LYP) =  -617.572716101     A.U. after    8 cycles
 Optimization completed.
    -- Stationary point found.
 Normal termination of Gaussian 16 at Tue May 23 10:43:46 2023.

 ----------------------------------------------------------------------
 #N Geom=AllCheck Guess=TCheck SCRF=Check GenChk RB3LYP/6-31G(2df,p) Fr
 eq
 ----------------------------------------------------------------------

 Structure from the checkpoint file:  "CC1qCrOCCCCCqCdOrC1O.chk"
 -------------------
 Title Card Required
 -------------------
 Charge =  0 Multiplicity = 1

                         Standard orientation:
 ---------------------------------------------------------------------
 Center     Atomic      Atomic             Coordinates (Angstroms)
 Number     Number       Type             X           Y           Z
 ---------------------------------------------------------------------
      1          6           0       -1.468442    2.447495   -0.525877
      2          6           0       -1.069519    1.036667   -0.055680
      3          6           0       -1.699375    0.827288    1.340864
      4          8           0       -1.661788    0.204691   -1.054393
      5          6           0       -1.581991   -1.210885   -1.195563
      6          6           0       -1.473247   -2.132111    0.033679
      7          6           0       -0.054659   -2.522425    0.484219
      8          6           0        0.899886   -1.411915    0.947080
      9          6           0        1.225594   -0.363573   -0.137145
     10          6           0        2.718431   -0.028128   -0.144388
     11          8           0        3.318426    0.322208   -1.125616
     12          6           0        0.493879    0.999147   -0.047369
     13          8           0        1.000378    1.760879    1.051772
     14          1           0       -2.550022    2.583915   -0.442512
     15          1           0       -1.186620    2.580498   -1.573313
     16          1           0       -0.962615    3.203160    0.079628
     17          1           0       -2.782584    0.741529    1.220325
     18          1           0       -1.504506    1.697328    1.974203
     19          1           0       -1.351264   -0.059174    1.870449
     20          1           0       -0.772438   -1.467487   -1.895971
     21          1           0       -2.516734   -1.452627   -1.713353
     22          1           0       -1.970987   -3.066714   -0.254561
     23          1           0       -2.066739   -1.735194    0.860712
     24          1           0        0.428287   -3.050174   -0.349776
     25          1           0       -0.143733   -3.260023    1.290975
     26          1           0        1.834696   -1.898729    1.256290
     27          1           0        0.523826   -0.934187    1.859048
     28          1           0        1.027703   -0.776525   -1.130045
     29          1           0        3.233605   -0.136849    0.837061
     30          1           0        0.822521    1.555198   -0.931148
     31          1           0        0.738137    1.324471    1.868962
 ---------------------------------------------------------------------

 SCF Done:  E(RB3LYP) =  -617.572716101     A.U. after    1 cycles

 The electronic state is 1-A.
 Alpha  occ. eigenvalues --  -19.14813 -19.13729 -19.13520 -10.26799 -10.24698
 Alpha  occ. eigenvalues --  -10.24000 -10.23281 -10.19893 -10.19722 -10.19510
 Alpha  occ. eigenvalues --  -10.19138 -10.18171 -10.16800  -1.04609  -1.03180
 Alpha  occ. eigenvalues --   -1.01956  -0.82275  -0.80443  -0.76361  -0.71702
 Alpha  occ. eigenvalues --   -0.69681  -0.66456  -0.63233  -0.59332  -0.57358
 Alpha  occ. eigenvalues --   -0.55491  -0.51059  -0.48513  -0.48026  -0.47699
 Alpha  occ. eigenvalues --   -0.46186  -0.44555  -0.43614  -0.43305  -0.42714
 Alpha  occ. eigenvalues --   -0.41286  -0.39948  -0.39383  -0.38471  -0.38189
 Alpha  occ. eigenvalues --   -0.36745  -0.35918  -0.35474  -0.34862  -0.34169
 Alpha  occ. eigenvalues --   -0.32851  -0.32327  -0.30159  -0.27342  -0.25449
 Alpha  occ. eigenvalues --   -0.24043
 Alpha virt. eigenvalues --   -0.02015   0.05578   0.07779   0.09285   0.09996
 Alpha virt. eigenvalues --    0.11065   0.11907   0.12422   0.13249   0.13980
 Alpha virt. eigenvalues --    0.14723   0.15001   0.16047   0.16082   0.17900

 Mulliken charges:
               1
     1  C   -0.398183
     2  C    0.351154
     3  C   -0.466186
     4  O   -0.316850
     5  C   -0.052069
     6  C   -0.227974
     7  C   -0.199583
     8  C   -0.241925
     9  C   -0.086026
    10  C    0.152738
    11  O   -0.260241
    12  C    0.064594
    13  O   -0.441343
    14  H    0.111270
    15  H    0.122116
    16  H    0.129456
    17  H    0.129036
    18  H    0.123900
    19  H    0.115681
    20  H    0.096115
    21  H    0.104766
    22  H    0.104586
    23  H    0.111981
    24  H    0.105087
    25  H    0.099355
    26  H    0.102554
    27  H    0.087592
    28  H    0.105410
    29  H    0.074873
    30  H    0.111992
    31  H    0.286126
 Sum of Mulliken charges =  -0.00000

 Dipole moment (field-independent basis, Debye):
    X=             -2.2610    Y=             -2.4698    Z=              2.5619  Tot=              4.2161
 Quadrupole moment (field-independent basis, Debye-Ang):
   XX=            -89.6165   YY=            -78.9621   ZZ=            -79.1521
   XY=             -2.9712   XZ=              3.9615   YZ=              1.1214

  Exact polarizability: 120.650   0.359 118.868   0.185  -1.440 105.173
 Approx polarizability: 164.989   3.519 161.864  -3.923  -1.713 170.657

                      1                      2                      3
                      A                      A                      A
 Frequencies --     45.2775                58.2617               112.3014
 Red. masses --      4.9041                 6.0670                 3.0032
 Frc consts  --      0.0059                 0.0121                 0.0223
 IR Inten    --      2.8973                 3.2035                 2.4945

                      4                      5                      6
                      A                      A                      A
 Frequencies --    125.5779               168.9383               210.1156
 Red. masses --      3.8111                 2.5552                 2.0168
 Frc consts  --      0.0354                 0.0430                 0.0525
 IR Inten    --      3.6161                 0.8226                 2.9937

                      7                      8                      9
                      A                      A                      A
 Frequencies --    222.5922               244.5573               260.3301
 Red. masses --      2.4346                 2.0328                 1.2347
 Frc consts  --      0.0711                 0.0716                 0.0493
 IR Inten    --      0.9347                 1.8791                 0.7931

                     10                     11                     12
                      A                      A                      A
 Frequencies --    270.7881               291.2102               301.6457
 Red. masses --      4.1618                 2.8555                 1.6713
 Frc consts  --      0.1798                 0.1427                 0.0896
 IR Inten    --      9.9035                 0.8328                13.4007

                     13                     14                     15
                      A                      A                      A
 Frequencies --    316.6799               333.8736               353.8199
 Red. masses --      2.2461                 2.0045                 1.2122
 Frc consts  --      0.1327                 0.1316                 0.0894
 IR Inten    --      8.4290                16.2372                57.7407

                     16                     17                     18
                      A                      A                      A
 Frequencies --    367.2640               390.7869               442.1916
 Red. masses --      2.6024                 2.8018                 3.2728
 Frc consts  --      0.2068                 0.2521                 0.3770
 IR Inten    --      3.5562                 9.8821                 0.6939

                     19                     20                     21
                      A                      A                      A
 Frequencies --    475.0084               503.8326               559.6735
 Red. masses --      1.9705                 3.2126                 3.1152
 Frc consts  --      0.2620                 0.4805                 0.5749
 IR Inten    --      0.3669                10.8040                 7.9990

                     22                     23                     24
                      A                      A                      A
 Frequencies --    585.9179               657.4713               713.5172
 Red. masses --      2.8788                 3.2513                 3.2575
 Frc consts  --      0.5823                 0.8281                 0.9771
 IR Inten    --      2.7611                 1.8596                 1.8519

                     25                     26                     27
                      A                      A                      A
 Frequencies --    767.7920               813.7127               841.4104
 Red. masses --      2.5271                 2.7858                 1.6723
 Frc consts  --      0.8777                 1.0868                 0.6976
 IR Inten    --      2.7551                11.7706                 8.7397

                     28                     29                     30
                      A                      A                      A
 Frequencies --    872.8977               897.8379               925.0887
 Red. masses --      1.6404                 2.5298                 1.5421
 Frc consts  --      0.7364                 1.2015                 0.7775
 IR Inten    --      3.2963                 5.8302                 1.9518

                     31                     32                     33
                      A                      A                      A
 Frequencies --    962.9402               969.6223               990.0681
 Red. masses --      2.2498                 2.4226                 2.1682
 Frc consts  --      1.2291                 1.3419                 1.2522
 IR Inten    --      1.7225                 8.2621                48.1552

                     34                     35                     36
                      A                      A                      A
 Frequencies --   1007.2517              1012.9214              1025.3604
 Red. masses --      1.8385                 1.5816                 2.0181
 Frc consts  --      1.0990                 0.9561                 1.2501
 IR Inten    --      1.1484                 7.8770                 5.9488

                     37                     38                     39
                      A                      A                      A
 Frequencies --   1070.7499              1100.0534              1109.7647
 Red. masses --      3.0810                 2.1912                 2.2537
 Frc consts  --      2.0812                 1.5622                 1.6353
 IR Inten    --     42.4534                70.0251                21.7464

                     40                     41                     42
                      A                      A                      A
 Frequencies --   1120.3881              1129.5876              1166.1518
 Red. masses --      2.6315                 2.7776                 1.8522
 Frc consts  --      1.9462                 2.0881                 1.4840
 IR Inten    --     36.3635                39.4478                11.4513

                     43                     44                     45
                      A                      A                      A
 Frequencies --   1183.0478              1202.1875              1230.8876
 Red. masses --      1.5700                 2.5413                 1.9869
 Frc consts  --      1.2947                 2.1640                 1.7736
 IR Inten    --     24.9908               104.5884                12.2630

                     46                     47                     48
                      A                      A                      A
 Frequencies --   1251.6702              1266.0167              1280.3401
 Red. masses --      1.6591                 1.4118                 1.2890
 Frc consts  --      1.5314                 1.3332                 1.2449
 IR Inten    --      5.2219                 5.0257                 8.5170

                     49                     50                     51
                      A                      A                      A
 Frequencies --   1294.6121              1330.4227              1340.3171
 Red. masses --      1.3263                 1.2561                 1.1803
 Frc consts  --      1.3097                 1.3099                 1.2493
 IR Inten    --     11.3637                 7.4715                 7.7072

                     52                     53                     54
                      A                      A                      A
 Frequencies --   1365.3526              1383.7627              1386.6195
 Red. masses --      1.2526                 1.3729                 1.3091
 Frc consts  --      1.3758                 1.5489                 1.4830
 IR Inten    --      4.1148                 6.4441                11.9158

                     55                     56                     57
                      A                      A                      A
 Frequencies --   1396.5307              1401.6897              1412.4637
 Red. masses --      1.3917                 1.2774                 1.2854
 Frc consts  --      1.5991                 1.4787                 1.5110
 IR Inten    --      2.7588                15.6091                 8.8389

                     58                     59                     60
                      A                      A                      A
 Frequencies --   1422.0713              1424.8542              1433.6859
 Red. masses --      1.1927                 1.1939                 1.2318
 Frc consts  --      1.4211                 1.4281                 1.4918
 IR Inten    --     20.7792                 8.8003                 6.0649

                     61                     62                     63
                      A                      A                      A
 Frequencies --   1475.1848              1482.3801              1486.9950
 Red. masses --      1.0741                 1.0620                 1.0735
 Frc consts  --      1.3772                 1.3750                 1.3985
 IR Inten    --      4.3449                 0.7163                 4.8630

                     64                     65                     66
                      A                      A                      A
 Frequencies --   1491.9877              1497.2885              1511.5044
 Red. masses --      1.0674                 1.0673                 1.0692
 Frc consts  --      1.3999                 1.4098                 1.4393
 IR Inten    --      5.0680                 4.3433                 3.8445

                     67                     68                     69
                      A                      A                      A
 Frequencies --   1518.4817              1522.8193              1832.8925
 Red. masses --      1.0795                 1.0573                10.6872
 Frc consts  --      1.4665                 1.4445                21.1538
 IR Inten    --      3.2618                 0.6149               178.9249

                     70                     71                     72
                      A                      A                      A
 Frequencies --   2868.5526              2981.5912              3007.5763
 Red. masses --      1.0832                 1.0712                 1.0662
 Frc consts  --      5.2514                 5.6109                 5.6822
 IR Inten    --    101.5724                50.1898                11.6417

                     73                     74                     75
                      A                      A                      A
 Frequencies --   3016.2096              3028.8594              3045.2775
 Red. masses --      1.0655                 1.0753                 1.0828
 Frc consts  --      5.7113                 5.8119                 5.9162
 IR Inten    --     28.0827                10.9754                50.8184

                     76                     77                     78
                      A                      A                      A
 Frequencies --   3047.1478              3053.2545              3054.5837
 Red. masses --      1.0424                 1.0872                 1.0481
 Frc consts  --      5.7028                 5.9715                 5.7618
 IR Inten    --      1.4211                61.2586                 9.0291

                     79                     80                     81
                      A                      A                      A
 Frequencies --   3057.8708              3061.0739              3079.8885
 Red. masses --      1.0911                 1.0830                 1.0831
 Frc consts  --      6.0112                 5.9789                 6.0534
 IR Inten    --     41.4039                10.4013                20.8541

                     82                     83                     84
                      A                      A                      A
 Frequencies --   3104.3207              3117.5653              3123.5310
 Red. masses --      1.0910                 1.1008                 1.1021
 Frc consts  --      6.1946                 6.3036                 6.3353
 IR Inten    --     36.5213                 7.3007                26.5073

                     85                     86                     87
                      A                      A                      A
 Frequencies --   3136.7310              3149.8314              3813.7506
 Red. masses --      1.1024                 1.0964                 1.0656
 Frc consts  --      6.3908                 6.4091                 9.1317
 IR Inten    --     15.1819                22.4274                12.5066

 - Thermochemistry -
 -------------------
 Temperature   298.150 Kelvin.  Pressure   1.00000 Atm.
 Atom     1 has atomic number  6 and mass  12.00000

 Molecular mass:   186.12559 amu.
 Principal axes and moments of inertia in atomic units:
                           1         2         3
     Eigenvalues --  1957.235072438.050353366.35892
           X            0.99885  -0.04726   0.00864
           Y            0.04732   0.99885  -0.00714
           Z           -0.00829   0.00754   0.99994
 This molecule is an asymmetric top.
 Rotational symmetry number  1.
 Warning -- assumption of classical behavior for rotation
           may cause significant error
 Rotational temperatures (Kelvin)      0.04425     0.03553     0.02573
 Rotational constants (GHZ):           0.92209     0.74024     0.53611
 Zero-point vibrational energy     713984.7 (Joules/Mol)
                                  170.64643 (Kcal/Mol)
 Warning -- explicit consideration of  22 degrees of freedom as
           vibrations may cause significant error
 Vibrational temperatures:     65.14    83.83   161.58   180.68   243.06
          (Kelvin)            302.31   320.26   351.86   374.56   389.60
                              418.99   434.00   455.63   480.37   509.07
                              528.41   562.26   636.22   683.43   724.90
                              805.25   843.01   945.95  1026.59  1104.68
                             1170.75  1210.60  1255.91  1291.79  1331.00
                             1385.46  1395.07  1424.49  1449.21  1457.37
                             1475.26  1540.57  1582.73  1596.70  1611.99
                             1625.22  1677.83  1702.14  1729.68  1770.97
                             1800.87  1821.52  1842.12  1862.66  1914.18
                             1928.42  1964.44  1990.93  1995.04  2009.30
                             2016.72  2032.22  2046.04  2050.05  2062.75
                             2122.46  2132.81  2139.45  2146.64  2154.26
                             2174.72  2184.76  2191.00  2637.12  4127.21
                             4289.84  4327.23  4339.65  4357.85  4381.48
                             4384.17  4392.95  4394.86  4399.59  4404.20
                             4431.27  4466.43  4485.48  4494.06  4513.06
                             4531.90  5487.14

 Zero-point correction=                           0.271942 (Hartree/Particle)
 Thermal correction to Energy=                    0.285901
 Thermal correction to Enthalpy=                  0.286845
 Thermal correction to Gibbs Free Energy=         0.232218
 Sum of electronic and zero-point Energies=           -617.300774
 Sum of electronic and thermal Energies=              -617.286815
 Sum of electronic and thermal Enthalpies=            -617.285871
 Sum of electronic and thermal Free Energies=         -617.340498

                     E (Thermal)             CV                S
                      KCal/Mol        Cal/Mol-Kelvin    Cal/Mol-Kelvin
 Total                  179.405             53.991            114.972
 Electronic               0.000              0.000              0.000
 Translational            0.889              2.981             41.570
 Rotational               0.889              2.981             31.152
 Vibrational            177.628             48.029             42.249
 Vibration     1          0.595              1.979              5.014
 Vibration     2          0.596              1.974              4.515
 Vibration     3          0.607              1.939              3.229
 Vibration     4          0.611              1.927              3.013
 Vibration     5          0.625              1.881              2.447
 Vibration     6          0.642              1.825              2.043
 Vibration     7          0.648              1.807              1.938
 Vibration     8          0.660              1.772              1.769
 Vibration     9          0.668              1.745              1.660
 Vibration    10          0.674              1.727              1.591
 Vibration    11          0.687              1.690              1.467
 Vibration    12          0.694              1.671              1.408
 Vibration    13          0.704              1.642              1.327
 Vibration    14          0.715              1.608              1.241
 Vibration    15          0.730              1.567              1.149
 Vibration    16          0.740              1.540              1.091
 Vibration    17          0.758              1.490              0.997
 Vibration    18          0.802              1.378              0.820
 Vibration    19          0.832              1.305              0.724
 Vibration    20          0.859              1.242              0.649
 Vibration    21          0.915              1.119              0.524
 Vibration    22          0.943              1.062              0.475

 Optimization completed.
    -- Stationary point found.
 Normal termination of Gaussian 16 at Tue May 23 12:44:11 2023.
