 Gaussian 16, Revision A.03,
 Gaussian 16:  ES64L-G16RevA.03 25-Dec-2016

 -----------------------------
 # opt freq b3lyp/6-31g(2df,p)
 -----------------------------

 -------------------
 Title Card Required
 -------------------
 Symbolic Z-matrix:
 Charge =  0 Multiplicity = 1

 SCF Done:  E(RB3LYP) =  -657.650929833     A.U. after   12 cycles
 SCF Done:  E(RB3LYP) =  -657.659874866     A.U. after   10 cycles
 SCF Done:  E(RB3LYP) =  -657.664339680     A.U. after   10 cycles
 SCF Done:  E(RB3LYP) =  -657.667069034     A.U. after   10 cycles
 SCF Done:  E(RB3LYP) =  -657.668848024     A.U. after   10 cycles
 SCF Done:  E(RB3LYP) =  -657.669267172     A.U. after   12 cycles
 SCF Done:  E(RB3LYP) =  -657.670002774     A.U. after   10 cycles
 SCF Done:  E(RB3LYP) =  -657.670126051     A.U. after   10 cycles
 SCF Done:  E(RB3LYP) =  -657.670200284     A.U. after   10 cycles
 SCF Done:  E(RB3LYP) =  -657.670237935     A.U. after   10 cycles
 SCF Done:  E(RB3LYP) =  -657.674544938     A.U. after   10 cycles
 SCF Done:  E(RB3LYP) =  -657.674860077     A.U. after   11 cycles
 SCF Done:  E(RB3LYP) =  -657.675733578     A.U. after   10 cycles
 SCF Done:  E(RB3LYP) =  -657.675852638     A.U. after   10 cycles
 SCF Done:  E(RB3LYP) =  -657.675903946     A.U. after    9 cycles
 SCF Done:  E(RB3LYP) =  -657.675920837     A.U. after    9 cycles
 SCF Done:  E(RB3LYP) =  -657.675923190     A.U. after    7 cycles
 SCF Done:  E(RB3LYP) =  -657.675923802     A.U. after    6 cycles
 SCF Done:  E(RB3LYP) =  -657.675923958     A.U. after    6 cycles
 Optimization completed.
    -- Stationary point found.
 Normal termination of Gaussian 16 at Sun May 28 16:40:14 2023.

 ----------------------------------------------------------------------
 #N Geom=AllCheck Guess=TCheck SCRF=Check GenChk RB3LYP/6-31G(2df,p) Fr
 eq
 ----------------------------------------------------------------------

 Structure from the checkpoint file:  "CC1qCrCCCCC1CCCNNCO.chk"
 -------------------
 Title Card Required
 -------------------
 Charge =  0 Multiplicity = 1

                         Standard orientation:
 ---------------------------------------------------------------------
 Center     Atomic      Atomic             Coordinates (Angstroms)
 Number     Number       Type             X           Y           Z
 ---------------------------------------------------------------------
      1          6           0       -3.756530    1.413212   -0.909689
      2          6           0       -2.653698    0.888458    0.035844
      3          6           0       -1.874396    2.119602    0.533897
      4          6           0       -3.291354    0.178332    1.256939
      5          6           0       -4.007815   -1.136207    0.915105
      6          6           0       -3.083498   -2.092043    0.149965
      7          6           0       -2.491094   -1.408064   -1.089899
      8          6           0       -1.726552   -0.110124   -0.738800
      9          6           0       -0.391912   -0.446926   -0.014604
     10          6           0        0.821740    0.329186   -0.544116
     11          6           0        2.118587   -0.026207    0.182261
     12          7           0        3.249746    0.707114   -0.387615
     13          7           0        4.478604    0.539896    0.307580
     14          6           0        5.248353   -0.589855   -0.201320
     15          8           0        6.530481   -0.575191    0.373487
     16          1           0       -4.397222    2.131749   -0.386386
     17          1           0       -4.403154    0.623787   -1.298440
     18          1           0       -3.314329    1.930039   -1.768795
     19          1           0       -2.550934    2.811751    1.047889
     20          1           0       -1.417844    2.666322   -0.298789
     21          1           0       -1.083276    1.855321    1.241453
     22          1           0       -3.987210    0.869848    1.748540
     23          1           0       -2.506420   -0.032117    1.995871
     24          1           0       -4.900105   -0.931107    0.310095
     25          1           0       -4.367660   -1.608732    1.836330
     26          1           0       -3.627554   -2.996954   -0.143198
     27          1           0       -2.272599   -2.421836    0.813366
     28          1           0       -3.299234   -1.187318   -1.796902
     29          1           0       -1.812028   -2.091741   -1.613061
     30          1           0       -1.461029    0.376145   -1.687628
     31          1           0       -0.182332   -1.517440   -0.132524
     32          1           0       -0.481160   -0.288252    1.066210
     33          1           0        0.645703    1.408816   -0.455281
     34          1           0        0.951983    0.126165   -1.614062
     35          1           0        2.318757   -1.099917    0.078906
     36          1           0        2.003761    0.169672    1.266886
     37          1           0        3.042458    1.700853   -0.387042
     38          1           0        4.322351    0.413982    1.310423
     39          1           0        5.256211   -0.488810   -1.295528
     40          1           0        4.832774   -1.577833    0.050265
     41          1           0        6.876796    0.313879    0.230257
 ---------------------------------------------------------------------

 SCF Done:  E(RB3LYP) =  -657.675923958     A.U. after    1 cycles

 The electronic state is 1-A.
 Alpha  occ. eigenvalues --  -19.13031 -14.33740 -14.33555 -10.24084 -10.20526
 Alpha  occ. eigenvalues --  -10.19106 -10.18131 -10.18126 -10.17823 -10.17472
 Alpha  occ. eigenvalues --  -10.17451 -10.17347 -10.17342 -10.16979 -10.16859
 Alpha  occ. eigenvalues --   -1.02248  -0.95829  -0.84281  -0.80959  -0.77153
 Alpha  occ. eigenvalues --   -0.76729  -0.72797  -0.68514  -0.67794  -0.65003
 Alpha  occ. eigenvalues --   -0.62698  -0.60017  -0.58998  -0.57537  -0.52852
 Alpha  occ. eigenvalues --   -0.51268  -0.48952  -0.47913  -0.47055  -0.45949
 Alpha  occ. eigenvalues --   -0.44712  -0.44435  -0.43233  -0.42384  -0.41757
 Alpha  occ. eigenvalues --   -0.40926  -0.40607  -0.39275  -0.38493  -0.37273
 Alpha  occ. eigenvalues --   -0.36686  -0.36333  -0.35108  -0.34703  -0.34218
 Alpha  occ. eigenvalues --   -0.33859  -0.32977  -0.32423  -0.32111  -0.29659
 Alpha  occ. eigenvalues --   -0.28917  -0.28467  -0.27419  -0.23827  -0.23034
 Alpha virt. eigenvalues --    0.07056   0.08045   0.09420   0.09519   0.10145
 Alpha virt. eigenvalues --    0.10857   0.11701   0.12222   0.12815   0.13293
 Alpha virt. eigenvalues --    0.14089   0.14411   0.15152   0.16051   0.16253

 Mulliken charges:
               1
     1  C   -0.421101
     2  C    0.272417
     3  C   -0.426501
     4  C   -0.199762
     5  C   -0.207135
     6  C   -0.181060
     7  C   -0.232531
     8  C    0.018911
     9  C   -0.214273
    10  C   -0.205799
    11  C   -0.126859
    12  N   -0.280203
    13  N   -0.300335
    14  C    0.015974
    15  O   -0.411897
    16  H    0.106576
    17  H    0.114151
    18  H    0.108112
    19  H    0.106048
    20  H    0.107428
    21  H    0.107397
    22  H    0.084710
    23  H    0.088384
    24  H    0.095051
    25  H    0.088263
    26  H    0.087559
    27  H    0.093531
    28  H    0.092313
    29  H    0.087190
    30  H    0.058919
    31  H    0.092840
    32  H    0.096003
    33  H    0.095125
    34  H    0.109703
    35  H    0.107871
    36  H    0.073103
    37  H    0.225830
    38  H    0.204529
    39  H    0.099150
    40  H    0.091004
    41  H    0.279361
 Sum of Mulliken charges =  -0.00000

 Dipole moment (field-independent basis, Debye):
    X=             -1.9762    Y=              0.8723    Z=              0.3569  Tot=              2.1894
 Quadrupole moment (field-independent basis, Debye-Ang):
   XX=           -109.4136   YY=            -95.5516   ZZ=            -96.3533
   XY=              6.4312   XZ=             -0.3042   YZ=              0.8732

  Exact polarizability: 179.713   0.048 140.429   0.107   0.267 127.152
 Approx polarizability: 214.386  -2.290 204.296   2.694  -1.562 201.047

                      1                      2                      3
                      A                      A                      A
 Frequencies --     27.5982                36.1169                48.7922
 Red. masses --      4.1200                 3.8266                 2.6008
 Frc consts  --      0.0018                 0.0029                 0.0036
 IR Inten    --      0.5601                 0.7868                 0.7460

                      4                      5                      6
                      A                      A                      A
 Frequencies --     73.3109                80.4153               119.2040
 Red. masses --      3.1716                 3.0943                 1.9992
 Frc consts  --      0.0100                 0.0118                 0.0167
 IR Inten    --      2.5113                 0.0915                 1.0178

                      7                      8                      9
                      A                      A                      A
 Frequencies --    143.2163               150.8978               163.0306
 Red. masses --      2.5987                 3.0262                 2.7660
 Frc consts  --      0.0314                 0.0406                 0.0433
 IR Inten    --      0.5720                 0.5586                 0.1424

                     10                     11                     12
                      A                      A                      A
 Frequencies --    207.3978               224.8707               258.5605
 Red. masses --      1.5121                 1.8506                 2.1526
 Frc consts  --      0.0383                 0.0551                 0.0848
 IR Inten    --      0.6883                 3.8057                 0.0954

                     13                     14                     15
                      A                      A                      A
 Frequencies --    278.5843               297.2020               317.6262
 Red. masses --      1.4120                 1.6771                 2.2170
 Frc consts  --      0.0646                 0.0873                 0.1318
 IR Inten    --      0.1392                 0.1683                 7.9843

                     16                     17                     18
                      A                      A                      A
 Frequencies --    334.0392               347.4533               372.1770
 Red. masses --      2.3782                 2.3957                 2.4722
 Frc consts  --      0.1563                 0.1704                 0.2018
 IR Inten    --      3.0913                 0.4419                 2.2903

                     19                     20                     21
                      A                      A                      A
 Frequencies --    380.5944               397.1762               444.8030
 Red. masses --      2.2626                 1.9460                 1.7305
 Frc consts  --      0.1931                 0.1809                 0.2017
 IR Inten    --     15.0612                24.5039                78.1590

                     22                     23                     24
                      A                      A                      A
 Frequencies --    451.5705               467.9839               498.9984
 Red. masses --      2.1747                 2.3521                 2.7703
 Frc consts  --      0.2613                 0.3035                 0.4064
 IR Inten    --      0.0087                 1.2258                 5.6004

                     25                     26                     27
                      A                      A                      A
 Frequencies --    519.5613               573.8850               612.8802
 Red. masses --      2.3556                 3.0682                 2.8163
 Frc consts  --      0.3746                 0.5954                 0.6233
 IR Inten    --      2.1738                 6.5713                 2.1690

                     28                     29                     30
                      A                      A                      A
 Frequencies --    705.6555               750.2144               785.2785
 Red. masses --      2.3286                 1.1930                 1.6255
 Frc consts  --      0.6832                 0.3956                 0.5906
 IR Inten    --      1.4074                 1.8143                61.1880

                     31                     32                     33
                      A                      A                      A
 Frequencies --    808.4564               836.7284               857.4703
 Red. masses --      1.4963                 2.5545                 1.9745
 Frc consts  --      0.5762                 1.0537                 0.8554
 IR Inten    --      2.0527                 0.7003                 8.3114

                     34                     35                     36
                      A                      A                      A
 Frequencies --    870.1378               889.8634               893.9509
 Red. masses --      1.5380                 1.5000                 1.5595
 Frc consts  --      0.6861                 0.6998                 0.7343
 IR Inten    --     20.0540                34.2017                32.4916

                     37                     38                     39
                      A                      A                      A
 Frequencies --    918.0203               942.6383               963.9767
 Red. masses --      2.2189                 1.5431                 1.6982
 Frc consts  --      1.1018                 0.8079                 0.9298
 IR Inten    --      0.6196                 0.7639                 4.7352

                     40                     41                     42
                      A                      A                      A
 Frequencies --    975.1942               985.9777              1000.1516
 Red. masses --      1.8316                 1.7153                 1.8790
 Frc consts  --      1.0263                 0.9825                 1.1074
 IR Inten    --      0.9935                 3.5699                 3.3229

                     43                     44                     45
                      A                      A                      A
 Frequencies --   1025.9349              1030.5967              1050.6908
 Red. masses --      1.4044                 2.0556                 2.4435
 Frc consts  --      0.8709                 1.2864                 1.5893
 IR Inten    --      0.3184                 1.9742                 1.4733

                     46                     47                     48
                      A                      A                      A
 Frequencies --   1061.7498              1066.2737              1089.9192
 Red. masses --      2.3191                 1.7160                 1.9020
 Frc consts  --      1.5403                 1.1495                 1.3313
 IR Inten    --      0.6670                 0.6060                 0.9447

                     49                     50                     51
                      A                      A                      A
 Frequencies --   1096.0812              1100.0522              1117.8441
 Red. masses --      4.8030                 2.1473                 1.4101
 Frc consts  --      3.3998                 1.5310                 1.0382
 IR Inten    --    187.3962                 4.3422                 0.7004

                     52                     53                     54
                      A                      A                      A
 Frequencies --   1141.5971              1151.7018              1167.3921
 Red. masses --      3.1102                 1.6368                 1.8278
 Frc consts  --      2.3882                 1.2792                 1.4676
 IR Inten    --      5.9693                 8.0297                 2.6417

                     55                     56                     57
                      A                      A                      A
 Frequencies --   1178.7761              1196.7977              1223.4424
 Red. masses --      1.6419                 2.0751                 1.9820
 Frc consts  --      1.3442                 1.7512                 1.7479
 IR Inten    --      1.6062                 4.8897                12.0592

                     58                     59                     60
                      A                      A                      A
 Frequencies --   1234.4911              1245.4969              1267.0754
 Red. masses --      1.6619                 1.2650                 1.8403
 Frc consts  --      1.4922                 1.1562                 1.7407
 IR Inten    --      2.3439                 1.8873                 2.2028

                     61                     62                     63
                      A                      A                      A
 Frequencies --   1277.6514              1289.4669              1303.4264
 Red. masses --      1.4288                 1.3446                 1.3451
 Frc consts  --      1.3742                 1.3172                 1.3464
 IR Inten    --      1.7173                 0.4649                 2.4526

                     64                     65                     66
                      A                      A                      A
 Frequencies --   1305.4160              1321.7971              1331.9902
 Red. masses --      1.2493                 1.1215                 1.3151
 Frc consts  --      1.2543                 1.1545                 1.3747
 IR Inten    --      0.3657                 0.9255                 2.7702

                     67                     68                     69
                      A                      A                      A
 Frequencies --   1355.4230              1366.6299              1373.4116
 Red. masses --      1.3543                 1.3876                 1.2849
 Frc consts  --      1.4659                 1.5269                 1.4280
 IR Inten    --      0.3747                 3.0260                 6.4025

                     70                     71                     72
                      A                      A                      A
 Frequencies --   1376.2592              1380.8253              1389.2128
 Red. masses --      1.4114                 1.4420                 1.4474
 Frc consts  --      1.5750                 1.6199                 1.6458
 IR Inten    --      0.1619                 1.1688                 1.0614

                     73                     74                     75
                      A                      A                      A
 Frequencies --   1395.3470              1398.9488              1403.9390
 Red. masses --      1.3421                 1.2687                 1.4711
 Frc consts  --      1.5396                 1.4629                 1.7083
 IR Inten    --     12.9050                 3.2114                 7.5096

                     76                     77                     78
                      A                      A                      A
 Frequencies --   1424.4913              1431.4574              1477.9064
 Red. masses --      1.2340                 1.1976                 1.0665
 Frc consts  --      1.4754                 1.4458                 1.3725
 IR Inten    --      7.2705                67.6910                 0.4839

                     79                     80                     81
                      A                      A                      A
 Frequencies --   1478.5737              1484.9562              1485.7407
 Red. masses --      1.0716                 1.0816                 1.1403
 Frc consts  --      1.3803                 1.4053                 1.4831
 IR Inten    --      0.8143                 3.8123                12.1687

                     82                     83                     84
                      A                      A                      A
 Frequencies --   1489.5310              1493.7987              1499.5795
 Red. masses --      1.0763                 1.0723                 1.0864
 Frc consts  --      1.4069                 1.4098                 1.4394
 IR Inten    --      5.7474                 3.9585                 1.2535

                     85                     86                     87
                      A                      A                      A
 Frequencies --   1500.9139              1503.7898              1510.2061
 Red. masses --      1.0703                 1.0872                 1.1286
 Frc consts  --      1.4206                 1.4485                 1.5166
 IR Inten    --      5.7649                 6.2881                 2.7056

                     88                     89                     90
                      A                      A                      A
 Frequencies --   1514.5083              1520.5607              1525.8636
 Red. masses --      1.1034                 1.0639                 1.1137
 Frc consts  --      1.4912                 1.4493                 1.5278
 IR Inten    --      8.6762                 5.7470                14.7305

                     91                     92                     93
                      A                      A                      A
 Frequencies --   1539.0801              2905.4980              2980.9443
 Red. masses --      1.0925                 1.0726                 1.0588
 Frc consts  --      1.5247                 5.3348                 5.5434
 IR Inten    --      3.0426                61.8298                53.9849

                     94                     95                     96
                      A                      A                      A
 Frequencies --   2997.1320              3009.9762              3015.5336
 Red. masses --      1.0814                 1.0607                 1.0650
 Frc consts  --      5.7234                 5.6619                 5.7061
 IR Inten    --     15.2118                19.3343                 9.9135

                     97                     98                     99
                      A                      A                      A
 Frequencies --   3019.0781              3021.8632              3024.4201
 Red. masses --      1.0593                 1.0624                 1.0418
 Frc consts  --      5.6887                 5.7160                 5.6146
 IR Inten    --      8.3070                 9.1256                32.1276

                    100                    101                    102
                      A                      A                      A
 Frequencies --   3025.0271              3027.5023              3028.9871
 Red. masses --      1.1022                 1.0575                 1.0616
 Frc consts  --      5.9423                 5.7109                 5.7387
 IR Inten    --     45.6563                29.9718                25.2543

                    103                    104                    105
                      A                      A                      A
 Frequencies --   3033.7744              3039.6526              3046.5106
 Red. masses --      1.0479                 1.0849                 1.0953
 Frc consts  --      5.6825                 5.9061                 5.9892
 IR Inten    --     26.2817                31.7681                45.0515

                    106                    107                    108
                      A                      A                      A
 Frequencies --   3051.4523              3057.0018              3060.5065
 Red. masses --      1.0949                 1.0944                 1.1018
 Frc consts  --      6.0067                 6.0260                 6.0803
 IR Inten    --     15.1614                44.2128                20.9532

                    109                    110                    111
                      A                      A                      A
 Frequencies --   3069.5622              3075.1820              3084.6654
 Red. masses --      1.1028                 1.1036                 1.1011
 Frc consts  --      6.1221                 6.1487                 6.1731
 IR Inten    --     93.7533                77.0786                 3.3113

                    112                    113                    114
                      A                      A                      A
 Frequencies --   3091.2339              3103.4133              3120.1020
 Red. masses --      1.1003                 1.0998                 1.0966
 Frc consts  --      6.1949                 6.2406                 6.2900
 IR Inten    --     62.9289                38.0816                33.0436

                    115                    116                    117
                      A                      A                      A
 Frequencies --   3394.7959              3501.2731              3787.3912
 Red. masses --      1.0732                 1.0749                 1.0649
 Frc consts  --      7.2871                 7.7636                 9.0003
 IR Inten    --     12.2358                 1.7989                17.9849

 - Thermochemistry -
 -------------------
 Temperature   298.150 Kelvin.  Pressure   1.00000 Atm.
 Atom     1 has atomic number  6 and mass  12.00000

 Molecular mass:   214.20451 amu.
 Principal axes and moments of inertia in atomic units:
                           1         2         3
     Eigenvalues --  1352.084439843.86817**********
           X            1.00000  -0.00071  -0.00076
           Y            0.00071   0.99999   0.00403
           Z            0.00076  -0.00403   0.99999
 This molecule is an asymmetric top.
 Rotational symmetry number  1.
 Warning -- assumption of classical behavior for rotation
           may cause significant error
 Rotational temperatures (Kelvin)      0.06406     0.00880     0.00832
 Rotational constants (GHZ):           1.33478     0.18334     0.17343
 Zero-point vibrational energy     993981.6 (Joules/Mol)
                                  237.56732 (Kcal/Mol)
 Warning -- explicit consideration of  27 degrees of freedom as
           vibrations may cause significant error
 Vibrational temperatures:     39.71    51.96    70.20   105.48   115.70
          (Kelvin)            171.51   206.06   217.11   234.56   298.40
                              323.54   372.01   400.82   427.61   456.99
                              480.61   499.91   535.48   547.59   571.45
                              639.97   649.71   673.32   717.95   747.53
                              825.69   881.80  1015.28  1079.39  1129.84
                             1163.19  1203.87  1233.71  1251.93  1280.31
                             1286.20  1320.83  1356.25  1386.95  1403.09
                             1418.60  1439.00  1476.09  1482.80  1511.71
                             1527.62  1534.13  1568.15  1577.02  1582.73
                             1608.33  1642.50  1657.04  1679.62  1696.00
                             1721.92  1760.26  1776.16  1791.99  1823.04
                             1838.26  1855.26  1875.34  1878.20  1901.77
                             1916.44  1950.15  1966.28  1976.03  1980.13
                             1986.70  1998.77  2007.59  2012.78  2019.96
                             2049.53  2059.55  2126.38  2127.34  2136.52
                             2137.65  2143.10  2149.24  2157.56  2159.48
                             2163.62  2172.85  2179.04  2187.75  2195.38
                             2214.39  4180.36  4288.91  4312.20  4330.68
                             4338.68  4343.78  4347.79  4351.47  4352.34
                             4355.90  4358.04  4364.92  4373.38  4383.25
                             4390.36  4398.34  4403.39  4416.42  4424.50
                             4438.15  4447.60  4465.12  4489.13  4884.35
                             5037.55  5449.21

 Zero-point correction=                           0.378588 (Hartree/Particle)
 Thermal correction to Energy=                    0.395809
 Thermal correction to Enthalpy=                  0.396753
 Thermal correction to Gibbs Free Energy=         0.332824
 Sum of electronic and zero-point Energies=           -657.297336
 Sum of electronic and thermal Energies=              -657.280115
 Sum of electronic and thermal Enthalpies=            -657.279171
 Sum of electronic and thermal Free Energies=         -657.343100

                     E (Thermal)             CV                S
                      KCal/Mol        Cal/Mol-Kelvin    Cal/Mol-Kelvin
 Total                  248.374             66.029            134.549
 Electronic               0.000              0.000              0.000
 Translational            0.889              2.981             41.989
 Rotational               0.889              2.981             33.293
 Vibrational            246.596             60.067             59.268
 Vibration     1          0.593              1.984              5.995
 Vibration     2          0.594              1.982              5.461
 Vibration     3          0.595              1.978              4.866
 Vibration     4          0.599              1.967              4.062
 Vibration     5          0.600              1.962              3.881
 Vibration     6          0.609              1.933              3.113
 Vibration     7          0.616              1.910              2.760
 Vibration     8          0.618              1.902              2.661
 Vibration     9          0.623              1.888              2.514
 Vibration    10          0.641              1.829              2.066
 Vibration    11          0.650              1.803              1.920
 Vibration    12          0.667              1.748              1.671
 Vibration    13          0.679              1.713              1.542
 Vibration    14          0.691              1.679              1.433
 Vibration    15          0.704              1.640              1.322
 Vibration    16          0.716              1.608              1.240
 Vibration    17          0.725              1.580              1.178
 Vibration    18          0.744              1.529              1.071
 Vibration    19          0.750              1.512              1.037
 Vibration    20          0.764              1.476              0.973
 Vibration    21          0.804              1.372              0.812
 Vibration    22          0.810              1.357              0.791
 Vibration    23          0.825              1.321              0.743
 Vibration    24          0.854              1.252              0.661
 Vibration    25          0.875              1.207              0.611
 Vibration    26          0.930              1.088              0.497
 Vibration    27          0.972              1.005              0.428

                           ! Non-Optimized Parameters !
 Normal termination of Gaussian 16 at Sun May 28 20:03:01 2023.
