 Gaussian 16, Revision A.03,
 Gaussian 16:  ES64L-G16RevA.03 25-Dec-2016

 -----------------------------
 # opt freq b3lyp/6-31g(2df,p)
 -----------------------------

 -------------------
 Title Card Required
 -------------------
 Symbolic Z-matrix:
 Charge =  0 Multiplicity = 1

 SCF Done:  E(RB3LYP) =  -313.264226492     A.U. after   12 cycles
 SCF Done:  E(RB3LYP) =  -313.270337840     A.U. after   10 cycles
 SCF Done:  E(RB3LYP) =  -313.271150274     A.U. after   10 cycles
 SCF Done:  E(RB3LYP) =  -313.271213462     A.U. after    9 cycles
 SCF Done:  E(RB3LYP) =  -313.271231288     A.U. after    8 cycles
 SCF Done:  E(RB3LYP) =  -313.271244520     A.U. after    7 cycles
 SCF Done:  E(RB3LYP) =  -313.271244917     A.U. after    6 cycles
 SCF Done:  E(RB3LYP) =  -313.271244981     A.U. after    5 cycles
 Optimization completed.
    -- Stationary point found.
 Normal termination of Gaussian 16 at Sun May 28 12:24:34 2023.

 ----------------------------------------------------------------------
 #N Geom=AllCheck Guess=TCheck SCRF=Check GenChk RB3LYP/6-31G(2df,p) Fr
 eq
 ----------------------------------------------------------------------

 Structure from the checkpoint file:  "CC1qCrCC2CC1C2.chk"
 -------------------
 Title Card Required
 -------------------
 Charge =  0 Multiplicity = 1

                         Standard orientation:
 ---------------------------------------------------------------------
 Center     Atomic      Atomic             Coordinates (Angstroms)
 Number     Number       Type             X           Y           Z
 ---------------------------------------------------------------------
      1          6           0       -1.690755    1.242818   -0.125599
      2          6           0       -0.797421   -0.000006    0.006007
      3          6           0       -1.690851   -1.242750   -0.125687
      4          6           0        0.061945   -0.000105    1.327745
      5          6           0        1.483990   -0.000020    0.728448
      6          6           0        1.362672   -1.057249   -0.404467
      7          6           0        0.386795    0.000018   -1.004990
      8          6           0        1.362638    1.057290   -0.404392
      9          1           0       -2.461737    1.247186    0.653285
     10          1           0       -2.203509    1.254126   -1.094708
     11          1           0       -1.130085    2.176512   -0.035182
     12          1           0       -2.461287   -1.247548    0.653735
     13          1           0       -1.130113   -2.176495   -0.036210
     14          1           0       -2.204293   -1.253532   -1.094439
     15          1           0       -0.127615   -0.884259    1.944978
     16          1           0       -0.127688    0.883904    1.945171
     17          1           0        2.320106   -0.000036    1.429326
     18          1           0        0.984777   -2.051087   -0.153223
     19          1           0        2.281194   -1.149874   -0.989074
     20          1           0        0.120304    0.000049   -2.063978
     21          1           0        0.984699    2.051094   -0.153092
     22          1           0        2.281164    1.149981   -0.988978
 ---------------------------------------------------------------------

 SCF Done:  E(RB3LYP) =  -313.271244981     A.U. after    1 cycles

 The electronic state is 1-A.
 Alpha  occ. eigenvalues --  -10.18767 -10.18351 -10.18185 -10.17438 -10.17438
 Alpha  occ. eigenvalues --  -10.17054 -10.16554 -10.16554  -0.88248  -0.77015
 Alpha  occ. eigenvalues --   -0.69338  -0.68138  -0.64444  -0.62930  -0.53953
 Alpha  occ. eigenvalues --   -0.51144  -0.48833  -0.46789  -0.43943  -0.41431
 Alpha  occ. eigenvalues --   -0.40003  -0.38981  -0.36990  -0.35534  -0.34424
 Alpha  occ. eigenvalues --   -0.33863  -0.31748  -0.30016  -0.29896  -0.29298
 Alpha  occ. eigenvalues --   -0.28781
 Alpha virt. eigenvalues --    0.08556   0.11220   0.12218   0.12984   0.13712
 Alpha virt. eigenvalues --    0.15365   0.15609   0.16745   0.16866   0.16985
 Alpha virt. eigenvalues --    0.17681   0.18734   0.20263   0.20680   0.21653

 Mulliken charges:
               1
     1  C   -0.445818
     2  C    0.354887
     3  C   -0.445830
     4  C   -0.257213
     5  C   -0.005386
     6  C   -0.232882
     7  C   -0.028904
     8  C   -0.232883
     9  H    0.109231
    10  H    0.107002
    11  H    0.110933
    12  H    0.109237
    13  H    0.110932
    14  H    0.106997
    15  H    0.089433
    16  H    0.089431
    17  H    0.053162
    18  H    0.086682
    19  H    0.092159
    20  H    0.049987
    21  H    0.086684
    22  H    0.092159
 Sum of Mulliken charges =  -0.00000

 Dipole moment (field-independent basis, Debye):
    X=              0.0645    Y=              0.0000    Z=             -0.0186  Tot=              0.0671
 Quadrupole moment (field-independent basis, Debye-Ang):
   XX=            -51.6054   YY=            -51.8470   ZZ=            -51.3877
   XY=             -0.0001   XZ=             -0.2998   YZ=              0.0000

  Exact polarizability:  87.780   0.000  79.042  -0.599  -0.000  75.810
 Approx polarizability: 118.137   0.000 116.472  -0.406   0.000 115.285

                      1                      2                      3
                      A                      A                      A
 Frequencies --    177.6206               222.2275               239.0309
 Red. masses --      1.2641                 1.8344                 1.0450
 Frc consts  --      0.0235                 0.0534                 0.0352
 IR Inten    --      0.0028                 0.0126                 0.0391

                      4                      5                      6
                      A                      A                      A
 Frequencies --    254.6023               370.4292               373.0343
 Red. masses --      2.2477                 2.1928                 2.3710
 Frc consts  --      0.0858                 0.1773                 0.1944
 IR Inten    --      0.0309                 0.0534                 0.0363

                      7                      8                      9
                      A                      A                      A
 Frequencies --    436.7609               474.4309               518.1871
 Red. masses --      1.7493                 2.6217                 1.8989
 Frc consts  --      0.1966                 0.3477                 0.3004
 IR Inten    --      0.0210                 0.5427                 0.0107

                     10                     11                     12
                      A                      A                      A
 Frequencies --    570.4181               737.2791               806.1578
 Red. masses --      3.1279                 2.9858                 3.1783
 Frc consts  --      0.5996                 0.9562                 1.2170
 IR Inten    --      0.0134                 0.1945                 0.8465

                     13                     14                     15
                      A                      A                      A
 Frequencies --    841.2576               852.6041               857.3558
 Red. masses --      2.2900                 2.1285                 2.4425
 Frc consts  --      0.9549                 0.9116                 1.0578
 IR Inten    --      0.0935                 0.4851                 1.4355

                     16                     17                     18
                      A                      A                      A
 Frequencies --    913.2234               918.3900               948.6045
 Red. masses --      1.6210                 2.2331                 2.3029
 Frc consts  --      0.7965                 1.1097                 1.2209
 IR Inten    --      0.0250                 0.6144                 2.1990

                     19                     20                     21
                      A                      A                      A
 Frequencies --    952.5293               973.0622               985.9029
 Red. masses --      1.3531                 1.7785                 1.3277
 Frc consts  --      0.7233                 0.9921                 0.7603
 IR Inten    --      0.1812                 0.0856                 0.0330

                     22                     23                     24
                      A                      A                      A
 Frequencies --   1028.1392              1036.1677              1054.6075
 Red. masses --      1.1643                 2.3599                 1.3863
 Frc consts  --      0.7251                 1.4928                 0.9084
 IR Inten    --      0.6574                 0.3487                 0.3499

                     25                     26                     27
                      A                      A                      A
 Frequencies --   1072.9606              1083.5057              1091.5397
 Red. masses --      1.7122                 1.1427                 1.1511
 Frc consts  --      1.1614                 0.7904                 0.8081
 IR Inten    --      1.1170                 0.1981                 2.5911

                     28                     29                     30
                      A                      A                      A
 Frequencies --   1169.3285              1213.3373              1217.8849
 Red. masses --      1.4582                 2.4881                 1.8757
 Frc consts  --      1.1748                 2.1582                 1.6392
 IR Inten    --      1.2439                 0.6683                 7.6175

                     31                     32                     33
                      A                      A                      A
 Frequencies --   1226.8241              1241.5689              1244.9210
 Red. masses --      1.3827                 2.1350                 1.6028
 Frc consts  --      1.2262                 1.9391                 1.4636
 IR Inten    --      0.0280                 0.5070                 0.8828

                     34                     35                     36
                      A                      A                      A
 Frequencies --   1276.9490              1291.1210              1308.6691
 Red. masses --      1.6841                 1.7791                 1.7517
 Frc consts  --      1.6180                 1.7474                 1.7675
 IR Inten    --      3.9772                 1.9924                 1.8313

                     37                     38                     39
                      A                      A                      A
 Frequencies --   1341.5043              1400.8755              1423.1115
 Red. masses --      1.7443                 1.2467                 1.2224
 Frc consts  --      1.8495                 1.4415                 1.4586
 IR Inten    --      2.7410                 4.9668                 2.2685

                     40                     41                     42
                      A                      A                      A
 Frequencies --   1479.9316              1485.5818              1494.5294
 Red. masses --      1.0697                 1.0452                 1.0850
 Frc consts  --      1.3804                 1.3591                 1.4279
 IR Inten    --      0.4810                 0.0906                 2.7245

                     43                     44                     45
                      A                      A                      A
 Frequencies --   1500.6899              1502.7533              1511.1859
 Red. masses --      1.0738                 1.0671                 1.0566
 Frc consts  --      1.4248                 1.4198                 1.4217
 IR Inten    --      4.6336                 0.1745                 4.6177

                     46                     47                     48
                      A                      A                      A
 Frequencies --   1532.6890              3022.6440              3027.9896
 Red. masses --      1.1136                 1.0374                 1.0385
 Frc consts  --      1.5413                 5.5844                 5.6101
 IR Inten    --      2.3857                15.1655                36.7588

                     49                     50                     51
                      A                      A                      A
 Frequencies --   3040.1089              3058.1871              3061.7643
 Red. masses --      1.0581                 1.0563                 1.0584
 Frc consts  --      5.7620                 5.8207                 5.8456
 IR Inten    --     40.2315                58.3956                 5.2849

                     52                     53                     54
                      A                      A                      A
 Frequencies --   3078.7725              3083.8663              3086.6166
 Red. masses --      1.1034                 1.1041                 1.0990
 Frc consts  --      6.1622                 6.1866                 6.1689
 IR Inten    --      8.7761                13.5843                23.7870

                     55                     56                     57
                      A                      A                      A
 Frequencies --   3091.6528              3101.4445              3105.4502
 Red. masses --      1.0888                 1.0913                 1.1038
 Frc consts  --      6.1317                 6.1847                 6.2716
 IR Inten    --    103.4535                24.8425                 3.4201

                     58                     59                     60
                      A                      A                      A
 Frequencies --   3110.3273              3117.6715              3119.5436
 Red. masses --      1.0994                 1.1036                 1.1040
 Frc consts  --      6.2667                 6.3202                 6.3300
 IR Inten    --     83.9703                59.6223                21.3984

 - Thermochemistry -
 -------------------
 Temperature   298.150 Kelvin.  Pressure   1.00000 Atm.
 Atom     1 has atomic number  6 and mass  12.00000

 Molecular mass:   110.10955 amu.
 Principal axes and moments of inertia in atomic units:
                           1         2         3
     Eigenvalues --   555.98054 909.609501014.06142
           X            0.99999   0.00000  -0.00429
           Y           -0.00000   1.00000   0.00000
           Z            0.00429  -0.00000   0.99999
 This molecule is an asymmetric top.
 Rotational symmetry number  1.
 Warning -- assumption of classical behavior for rotation
           may cause significant error
 Rotational temperatures (Kelvin)      0.15579     0.09522     0.08541
 Rotational constants (GHZ):           3.24605     1.98408     1.77972
 Zero-point vibrational energy     530899.9 (Joules/Mol)
                                  126.88811 (Kcal/Mol)
 Warning -- explicit consideration of  10 degrees of freedom as
           vibrations may cause significant error
 Vibrational temperatures:    255.56   319.74   343.91   366.32   532.97
          (Kelvin)            536.71   628.40   682.60   745.56   820.70
                             1060.78  1159.88  1210.38  1226.71  1233.54
                             1313.92  1321.36  1364.83  1370.48  1400.02
                             1418.49  1479.26  1490.81  1517.34  1543.75
                             1558.92  1570.48  1682.40  1745.72  1752.26
                             1765.13  1786.34  1791.16  1837.24  1857.64
                             1882.88  1930.13  2015.55  2047.54  2129.29
                             2137.42  2150.29  2159.16  2162.13  2174.26
                             2205.20  4348.91  4356.60  4374.04  4400.05
                             4405.20  4429.67  4437.00  4440.95  4448.20
                             4462.29  4468.05  4475.07  4485.63  4488.33

 Zero-point correction=                           0.202209 (Hartree/Particle)
 Thermal correction to Energy=                    0.209732
 Thermal correction to Enthalpy=                  0.210676
 Thermal correction to Gibbs Free Energy=         0.171274
 Sum of electronic and zero-point Energies=           -313.069036
 Sum of electronic and thermal Energies=              -313.061513
 Sum of electronic and thermal Enthalpies=            -313.060569
 Sum of electronic and thermal Free Energies=         -313.099971

                     E (Thermal)             CV                S
                      KCal/Mol        Cal/Mol-Kelvin    Cal/Mol-Kelvin
 Total                  131.609             31.345             82.929
 Electronic               0.000              0.000              0.000
 Translational            0.889              2.981             40.005
 Rotational               0.889              2.981             27.730
 Vibrational            129.831             25.384             15.194
 Vibration     1          0.628              1.870              2.353
 Vibration     2          0.648              1.807              1.941
 Vibration     3          0.657              1.781              1.810
 Vibration     4          0.665              1.755              1.698
 Vibration     5          0.742              1.533              1.078
 Vibration     6          0.744              1.527              1.067
 Vibration     7          0.797              1.390              0.837
 Vibration     8          0.831              1.307              0.725
 Vibration     9          0.873              1.210              0.614
 Vibration    10          0.927              1.095              0.503

 Optimization completed.
    -- Stationary point found.
 Normal termination of Gaussian 16 at Sun May 28 13:01:06 2023.
