 Gaussian 16, Revision A.03,
 Gaussian 16:  ES64L-G16RevA.03 25-Dec-2016

 -----------------------------
 # opt freq b3lyp/6-31g(2df,p)
 -----------------------------

 -------------------
 Title Card Required
 -------------------
 Symbolic Z-matrix:
 Charge =  0 Multiplicity = 1

 SCF Done:  E(RB3LYP) =  -494.282265084     A.U. after   12 cycles
 SCF Done:  E(RB3LYP) =  -494.285412569     A.U. after   10 cycles
 SCF Done:  E(RB3LYP) =  -494.286035518     A.U. after   10 cycles
 SCF Done:  E(RB3LYP) =  -494.286487097     A.U. after   10 cycles
 SCF Done:  E(RB3LYP) =  -494.286616995     A.U. after    9 cycles
 SCF Done:  E(RB3LYP) =  -494.286662282     A.U. after    9 cycles
 SCF Done:  E(RB3LYP) =  -494.286668801     A.U. after    7 cycles
 SCF Done:  E(RB3LYP) =  -494.286670067     A.U. after    7 cycles
 SCF Done:  E(RB3LYP) =  -494.286670221     A.U. after    6 cycles
 Optimization completed.
    -- Stationary point found.
 Normal termination of Gaussian 16 at Sat May 27 23:16:55 2023.

 ----------------------------------------------------------------------
 #N Geom=AllCheck Guess=TCheck SCRF=Check GenChk RB3LYP/6-31G(2df,p) Fr
 eq
 ----------------------------------------------------------------------

 Structure from the checkpoint file:  "CC1qCqFrqFrFrCC1.chk"
 -------------------
 Title Card Required
 -------------------
 Charge =  0 Multiplicity = 1

                         Standard orientation:
 ---------------------------------------------------------------------
 Center     Atomic      Atomic             Coordinates (Angstroms)
 Number     Number       Type             X           Y           Z
 ---------------------------------------------------------------------
      1          6           0       -1.040403    1.679493   -0.000014
      2          6           0       -0.690686    0.204444   -0.000051
      3          6           0        0.790862   -0.061225   -0.000021
      4          9           0        1.388267    0.474719   -1.079643
      5          9           0        1.388065    0.474085    1.080056
      6          9           0        1.077253   -1.375027   -0.000395
      7          6           0       -1.555436   -0.776362    0.753657
      8          6           0       -1.555561   -0.776351   -0.753620
      9          1           0       -0.637185    2.178371    0.886323
     10          1           0       -2.125608    1.810281   -0.000208
     11          1           0       -0.636857    2.178533   -0.886102
     12          1           0       -2.416020   -0.370984    1.273743
     13          1           0       -1.071328   -1.604683    1.256479
     14          1           0       -2.416237   -0.370829   -1.273448
     15          1           0       -1.071691   -1.604683   -1.256647
 ---------------------------------------------------------------------

 SCF Done:  E(RB3LYP) =  -494.286670221     A.U. after    1 cycles

 The electronic state is 1-A.
 Alpha  occ. eigenvalues --  -24.71631 -24.71029 -24.71028 -10.41131 -10.21815
 Alpha  occ. eigenvalues --  -10.19968 -10.19942 -10.19035  -1.29894  -1.21178
 Alpha  occ. eigenvalues --   -1.20747  -0.88520  -0.73747  -0.70057  -0.61832
 Alpha  occ. eigenvalues --   -0.61169  -0.57677  -0.57182  -0.53062  -0.48316
 Alpha  occ. eigenvalues --   -0.45723  -0.44945  -0.43623  -0.42735  -0.41978
 Alpha  occ. eigenvalues --   -0.40547  -0.39548  -0.39402  -0.37394  -0.35870
 Alpha  occ. eigenvalues --   -0.30891  -0.29873
 Alpha virt. eigenvalues --    0.09159   0.11030   0.11109   0.12547   0.13825
 Alpha virt. eigenvalues --    0.14243   0.15819   0.19201   0.20979   0.21503
 Alpha virt. eigenvalues --    0.22623   0.23753   0.26045   0.26974   0.29753

 Mulliken charges:
               1
     1  C   -0.478875
     2  C    0.192268
     3  C    0.251523
     4  F   -0.083874
     5  F   -0.083899
     6  F   -0.086425
     7  C   -0.302884
     8  C   -0.302903
     9  H    0.135069
    10  H    0.120522
    11  H    0.135074
    12  H    0.119211
    13  H    0.132994
    14  H    0.119207
    15  H    0.132993
 Sum of Mulliken charges =   0.00000

 Dipole moment (field-independent basis, Debye):
    X=             -2.1064    Y=              0.2763    Z=             -0.0001  Tot=              2.1245
 Quadrupole moment (field-independent basis, Debye-Ang):
   XX=            -45.3107   YY=            -44.8342   ZZ=            -45.6187
   XY=             -0.8101   XZ=             -0.0002   YZ=              0.0000

  Exact polarizability:  54.530   1.379  55.576   0.000   0.000  50.875
 Approx polarizability:  73.959   2.693  76.573   0.000   0.000  76.247

                      1                      2                      3
                      A                      A                      A
 Frequencies --     67.7182               201.9803               222.9596
 Red. masses --      4.9640                 1.0948                 3.7740
 Frc consts  --      0.0134                 0.0263                 0.1105
 IR Inten    --      0.0395                 0.0304                 0.0367

                      4                      5                      6
                      A                      A                      A
 Frequencies --    233.2453               303.5248               326.8389
 Red. masses --      4.5572                 3.1995                 1.9588
 Frc consts  --      0.1461                 0.1737                 0.1233
 IR Inten    --      0.8518                 1.6707                 0.5989

                      7                      8                      9
                      A                      A                      A
 Frequencies --    394.5315               452.2160               512.4758
 Red. masses --      7.1902                 5.6351                 4.1039
 Frc consts  --      0.6594                 0.6790                 0.6350
 IR Inten    --      3.7961                 0.3677                10.6032

                     10                     11                     12
                      A                      A                      A
 Frequencies --    578.1167               591.2767               739.4737
 Red. masses --     10.3113                 7.4651                 8.4404
 Frc consts  --      2.0305                 1.5377                 2.7193
 IR Inten    --      1.1322                 0.1373                 1.7898

                     13                     14                     15
                      A                      A                      A
 Frequencies --    787.6551               873.1139               889.1906
 Red. masses --      1.0300                 2.5967                 2.1959
 Frc consts  --      0.3765                 1.1663                 1.0230
 IR Inten    --      0.2167                 3.2825                 1.0024

                     16                     17                     18
                      A                      A                      A
 Frequencies --    954.7296               962.9090              1043.7407
 Red. masses --      1.4588                 1.6048                 1.4517
 Frc consts  --      0.7834                 0.8767                 0.9318
 IR Inten    --      9.1007                 5.7309                 0.0106

                     19                     20                     21
                      A                      A                      A
 Frequencies --   1073.8380              1092.2660              1135.5619
 Red. masses --      1.7599                 1.3858                 1.7317
 Frc consts  --      1.1957                 0.9741                 1.3157
 IR Inten    --      6.5816                 1.5430                 9.5048

                     22                     23                     24
                      A                      A                      A
 Frequencies --   1173.4921              1177.7451              1187.9491
 Red. masses --      3.4222                 3.3459                10.9950
 Frc consts  --      2.7766                 2.7345                 9.1420
 IR Inten    --    142.0936               171.2087               190.2084

                     25                     26                     27
                      A                      A                      A
 Frequencies --   1200.5288              1336.7239              1394.3184
 Red. masses --      1.7552                 2.9122                 3.3471
 Frc consts  --      1.4905                 3.0659                 3.8339
 IR Inten    --     58.6099                 8.0201                75.6617

                     28                     29                     30
                      A                      A                      A
 Frequencies --   1417.7952              1463.8348              1487.6620
 Red. masses --      1.3416                 1.0842                 1.0457
 Frc consts  --      1.5889                 1.3688                 1.3635
 IR Inten    --     23.0512                 3.7145                 1.2260

                     31                     32                     33
                      A                      A                      A
 Frequencies --   1500.9714              1512.3597              3042.7161
 Red. masses --      1.2180                 1.2241                 1.0347
 Frc consts  --      1.6168                 1.6496                 5.6441
 IR Inten    --     10.7827                10.8953                19.6633

                     34                     35                     36
                      A                      A                      A
 Frequencies --   3112.1746              3119.6249              3143.0387
 Red. masses --      1.1017                 1.1018                 1.0511
 Frc consts  --      6.2872                 6.3175                 6.1177
 IR Inten    --     13.8781                15.0273                11.7753

                     37                     38                     39
                      A                      A                      A
 Frequencies --   3146.0783              3226.5484              3239.3192
 Red. masses --      1.0591                 1.1178                 1.1157
 Frc consts  --      6.1762                 6.8560                 6.8980
 IR Inten    --      6.8563                 0.0163                 7.6152

 - Thermochemistry -
 -------------------
 Temperature   298.150 Kelvin.  Pressure   1.00000 Atm.
 Atom     1 has atomic number  6 and mass  12.00000

 Molecular mass:   124.04999 amu.
 Principal axes and moments of inertia in atomic units:
                           1         2         3
     Eigenvalues --   634.07597 940.608511103.49286
           X            0.99984  -0.01767   0.00000
           Y            0.01767   0.99984  -0.00000
           Z           -0.00000   0.00000   1.00000
 This molecule is an asymmetric top.
 Rotational symmetry number  1.
 Warning -- assumption of classical behavior for rotation
           may cause significant error
 Rotational temperatures (Kelvin)      0.13660     0.09208     0.07849
 Rotational constants (GHZ):           2.84625     1.91870     1.63548
 Zero-point vibrational energy     300981.9 (Joules/Mol)
                                   71.93640 (Kcal/Mol)
 Warning -- explicit consideration of  11 degrees of freedom as
           vibrations may cause significant error
 Vibrational temperatures:     97.43   290.60   320.79   335.59   436.70
          (Kelvin)            470.25   567.64   650.64   737.34   831.78
                              850.72  1063.94  1133.26  1256.22  1279.35
                             1373.64  1385.41  1501.71  1545.01  1571.53
                             1633.82  1688.39  1694.51  1709.19  1727.29
                             1923.25  2006.11  2039.89  2106.13  2140.41
                             2159.56  2175.95  4377.79  4477.73  4488.44
                             4522.13  4526.50  4642.28  4660.66

 Zero-point correction=                           0.114638 (Hartree/Particle)
 Thermal correction to Energy=                    0.122399
 Thermal correction to Enthalpy=                  0.123343
 Thermal correction to Gibbs Free Energy=         0.082463
 Sum of electronic and zero-point Energies=           -494.172032
 Sum of electronic and thermal Energies=              -494.164271
 Sum of electronic and thermal Enthalpies=            -494.163327
 Sum of electronic and thermal Free Energies=         -494.204207

                     E (Thermal)             CV                S
                      KCal/Mol        Cal/Mol-Kelvin    Cal/Mol-Kelvin
 Total                   76.807             28.853             86.039
 Electronic               0.000              0.000              0.000
 Translational            0.889              2.981             40.360
 Rotational               0.889              2.981             27.978
 Vibrational             75.029             22.891             17.701
 Vibration     1          0.598              1.970              4.219
 Vibration     2          0.639              1.837              2.115
 Vibration     3          0.649              1.806              1.935
 Vibration     4          0.654              1.790              1.854
 Vibration     5          0.695              1.667              1.397
 Vibration     6          0.710              1.622              1.276
 Vibration     7          0.761              1.482              0.983
 Vibration     8          0.811              1.356              0.789
 Vibration     9          0.868              1.222              0.628
 Vibration    10          0.935              1.079              0.489
 Vibration    11          0.949              1.050              0.465

 Optimization completed.
    -- Stationary point found.
 Normal termination of Gaussian 16 at Sat May 27 23:34:31 2023.
