 Gaussian 16, Revision A.03,
 Gaussian 16:  ES64L-G16RevA.03 25-Dec-2016

 -----------------------------
 # opt freq b3lyp/6-31g(2df,p)
 -----------------------------

 -------------------
 Title Card Required
 -------------------
 Symbolic Z-matrix:
 Charge =  0 Multiplicity = 1

 SCF Done:  E(RB3LYP) =  -1073.28207034     A.U. after   14 cycles
 SCF Done:  E(RB3LYP) =  -1073.31788789     A.U. after   13 cycles
 SCF Done:  E(RB3LYP) =  -1073.33418220     A.U. after   13 cycles
 SCF Done:  E(RB3LYP) =  -1073.33696977     A.U. after   11 cycles
 SCF Done:  E(RB3LYP) =  -1073.33924328     A.U. after   12 cycles
 SCF Done:  E(RB3LYP) =  -1073.33975690     A.U. after   12 cycles
 SCF Done:  E(RB3LYP) =  -1073.34184631     A.U. after   11 cycles
 SCF Done:  E(RB3LYP) =  -1073.34299828     A.U. after   11 cycles
 SCF Done:  E(RB3LYP) =  -1073.34395650     A.U. after   12 cycles
 SCF Done:  E(RB3LYP) =  -1073.34434887     A.U. after   11 cycles
 SCF Done:  E(RB3LYP) =  -1073.34507932     A.U. after   12 cycles
 SCF Done:  E(RB3LYP) =  -1073.34511431     A.U. after   12 cycles
 SCF Done:  E(RB3LYP) =  -1073.34515653     A.U. after   10 cycles
 SCF Done:  E(RB3LYP) =  -1073.34519417     A.U. after   10 cycles
 SCF Done:  E(RB3LYP) =  -1073.34519680     A.U. after    8 cycles
 SCF Done:  E(RB3LYP) =  -1073.34519742     A.U. after    8 cycles
 SCF Done:  E(RB3LYP) =  -1073.34519742     A.U. after    7 cycles
 SCF Done:  E(RB3LYP) =  -1073.34519721     A.U. after    7 cycles
 SCF Done:  E(RB3LYP) =  -1073.34519730     A.U. after    7 cycles
 Optimization completed.
    -- Stationary point found.
 Normal termination of Gaussian 16 at Mon May 29 08:05:58 2023.

 ----------------------------------------------------------------------
 #N Geom=AllCheck Guess=TCheck SCRF=Check GenChk RB3LYP/6-31G(2df,p) Fr
 eq
 ----------------------------------------------------------------------

 Structure from the checkpoint file:  "CC1qCrCC2qCCCCCqdOrC2OrCSN1.chk"
 -------------------
 Title Card Required
 -------------------
 Charge =  0 Multiplicity = 1

                         Standard orientation:
 ---------------------------------------------------------------------
 Center     Atomic      Atomic             Coordinates (Angstroms)
 Number     Number       Type             X           Y           Z
 ---------------------------------------------------------------------
      1          6           0       -3.371651    0.056313    1.570372
      2          6           0       -2.474643    0.330890    0.352435
      3          6           0       -3.227075    1.240899   -0.629828
      4          6           0       -1.149758    1.010118    0.848939
      5          6           0        0.208070    0.655579    0.143623
      6          6           0        1.073476    1.947183    0.238999
      7          6           0        2.477395    1.973908   -0.382022
      8          6           0        3.500155    1.002801    0.220184
      9          6           0        3.318649   -0.455119   -0.210738
     10          6           0        2.078376   -1.195064    0.253120
     11          8           0        2.003270   -2.399619    0.113342
     12          6           0        0.913500   -0.485417    0.966489
     13          8           0        0.030511   -1.486051    1.416134
     14          6           0        0.002591    0.308408   -1.347186
     15         16           0       -1.280651   -0.970594   -1.700088
     16          7           0       -2.228007   -0.984011   -0.272985
     17          1           0       -3.560189    0.980536    2.126839
     18          1           0       -2.890672   -0.654380    2.250414
     19          1           0       -4.330201   -0.363489    1.253204
     20          1           0       -3.533866    2.162462   -0.125165
     21          1           0       -4.121008    0.732562   -1.001452
     22          1           0       -2.617383    1.514348   -1.494215
     23          1           0       -1.027560    0.796431    1.914987
     24          1           0       -1.290079    2.094051    0.777102
     25          1           0        1.154174    2.214762    1.301970
     26          1           0        0.494501    2.752330   -0.226734
     27          1           0        2.857280    2.995185   -0.261459
     28          1           0        2.417397    1.807523   -1.465332
     29          1           0        3.490613    1.079460    1.315223
     30          1           0        4.504011    1.311173   -0.091913
     31          1           0        4.164350   -1.068356    0.120125
     32          1           0        3.329560   -0.522739   -1.307401
     33          1           0        1.348233    0.009605    1.851524
     34          1           0        0.409147   -2.315263    1.066171
     35          1           0       -0.280404    1.225780   -1.874856
     36          1           0        0.926652   -0.049668   -1.808983
     37          1           0       -1.722842   -1.542364    0.410146
 ---------------------------------------------------------------------

 SCF Done:  E(RB3LYP) =  -1073.34519730     A.U. after    1 cycles

 The electronic state is 1-A.
 Alpha  occ. eigenvalues --  -88.87215 -19.15305 -19.14246 -14.31900 -10.28559
 Alpha  occ. eigenvalues --  -10.24876 -10.21886 -10.21872 -10.20804 -10.20672
 Alpha  occ. eigenvalues --  -10.20254 -10.19704 -10.19560 -10.18154 -10.16797
 Alpha  occ. eigenvalues --  -10.16584  -7.93153  -5.89759  -5.89311  -5.88611
 Alpha  occ. eigenvalues --   -1.07274  -1.02039  -0.90785  -0.84492  -0.80257
 Alpha  occ. eigenvalues --   -0.78061  -0.75587  -0.71925  -0.69237  -0.68133
 Alpha  occ. eigenvalues --   -0.66627  -0.62695  -0.61240  -0.57368  -0.55164
 Alpha  occ. eigenvalues --   -0.52638  -0.50520  -0.49952  -0.48863  -0.47196
 Alpha  occ. eigenvalues --   -0.46683  -0.45323  -0.44294  -0.43991  -0.43251
 Alpha  occ. eigenvalues --   -0.42481  -0.40833  -0.39939  -0.39728  -0.39625
 Alpha  occ. eigenvalues --   -0.37545  -0.37117  -0.36766  -0.36292  -0.35626
 Alpha  occ. eigenvalues --   -0.35061  -0.34683  -0.34003  -0.33786  -0.32519
 Alpha  occ. eigenvalues --   -0.31568  -0.29768  -0.27855  -0.26923  -0.23801
 Alpha  occ. eigenvalues --   -0.20078
 Alpha virt. eigenvalues --   -0.03604   0.04064   0.05351   0.07972   0.08229
 Alpha virt. eigenvalues --    0.08755   0.09828   0.11375   0.12313   0.12793
 Alpha virt. eigenvalues --    0.13715   0.13937   0.14552   0.14932   0.15431

 Mulliken charges:
               1
     1  C   -0.419353
     2  C    0.266533
     3  C   -0.396932
     4  C   -0.269617
     5  C    0.202214
     6  C   -0.220317
     7  C   -0.220040
     8  C   -0.216462
     9  C   -0.289117
    10  C    0.367715
    11  O   -0.334531
    12  C    0.002204
    13  O   -0.443361
    14  C   -0.277562
    15  S   -0.129180
    16  N   -0.305948
    17  H    0.108849
    18  H    0.123082
    19  H    0.120647
    20  H    0.104109
    21  H    0.125136
    22  H    0.124017
    23  H    0.106829
    24  H    0.089977
    25  H    0.099562
    26  H    0.104877
    27  H    0.103664
    28  H    0.101031
    29  H    0.104252
    30  H    0.107424
    31  H    0.138540
    32  H    0.141917
    33  H    0.092283
    34  H    0.301880
    35  H    0.118382
    36  H    0.117263
    37  H    0.250034
 Sum of Mulliken charges =  -0.00000

 Dipole moment (field-independent basis, Debye):
    X=              3.1604    Y=              3.7748    Z=              1.2394  Tot=              5.0767
 Quadrupole moment (field-independent basis, Debye-Ang):
   XX=           -100.7904   YY=           -109.7146   ZZ=           -107.3980
   XY=              0.9799   XZ=             -3.5081   YZ=             -2.2027

  Exact polarizability: 177.770   3.259 146.353  -5.996   3.358 133.586
 Approx polarizability: 233.534   7.852 237.211 -10.378   5.483 219.319

                      1                      2                      3
                      A                      A                      A
 Frequencies --     39.9384                58.0790                76.1157
 Red. masses --      4.0816                 3.0589                 8.3290
 Frc consts  --      0.0038                 0.0061                 0.0284
 IR Inten    --      0.3589                 1.4661                 0.0139

                      4                      5                      6
                      A                      A                      A
 Frequencies --    128.8939               168.0174               193.8209
 Red. masses --      3.1292                 3.3751                 3.2901
 Frc consts  --      0.0306                 0.0561                 0.0728
 IR Inten    --      0.6890                 0.3028                 0.2902

                      7                      8                      9
                      A                      A                      A
 Frequencies --    196.6109               221.6299               240.5466
 Red. masses --      2.5890                 1.5544                 2.4881
 Frc consts  --      0.0590                 0.0450                 0.0848
 IR Inten    --      0.4429                 1.1990                 0.4885

                     10                     11                     12
                      A                      A                      A
 Frequencies --    260.3645               263.8250               286.4104
 Red. masses --      1.7647                 2.6280                 1.9500
 Frc consts  --      0.0705                 0.1078                 0.0942
 IR Inten    --      2.0620                 1.5405                 2.3912

                     13                     14                     15
                      A                      A                      A
 Frequencies --    308.4357               324.0942               342.4141
 Red. masses --      2.2210                 2.3081                 2.5144
 Frc consts  --      0.1245                 0.1428                 0.1737
 IR Inten    --      2.0175                 0.2330                 0.9204

                     16                     17                     18
                      A                      A                      A
 Frequencies --    365.9864               376.4526               398.8505
 Red. masses --      3.7684                 2.4985                 2.1332
 Frc consts  --      0.2974                 0.2086                 0.1999
 IR Inten    --      3.7044                 4.7615                 0.2414

                     19                     20                     21
                      A                      A                      A
 Frequencies --    410.9379               428.7085               454.2831
 Red. masses --      3.5193                 4.0754                 3.2606
 Frc consts  --      0.3502                 0.4413                 0.3965
 IR Inten    --      7.5352                 4.8276                 0.9661

                     22                     23                     24
                      A                      A                      A
 Frequencies --    486.6224               501.4053               518.6266
 Red. masses --      2.9001                 2.6162                 2.4383
 Frc consts  --      0.4046                 0.3875                 0.3864
 IR Inten    --      2.0331                 9.6925                 2.6761

                     25                     26                     27
                      A                      A                      A
 Frequencies --    529.7775               580.1554               601.3975
 Red. masses --      3.2561                 2.2573                 2.1422
 Frc consts  --      0.5384                 0.4476                 0.4565
 IR Inten    --     10.3928                19.9171                24.0834

                     28                     29                     30
                      A                      A                      A
 Frequencies --    624.5518               703.1171               731.1296
 Red. masses --      1.7303                 4.6635                 4.1133
 Frc consts  --      0.3976                 1.3584                 1.2955
 IR Inten    --     26.1383                46.2184                 2.6755

                     31                     32                     33
                      A                      A                      A
 Frequencies --    778.6032               790.3298               817.7208
 Red. masses --      3.0776                 3.3747                 1.9585
 Frc consts  --      1.0992                 1.2419                 0.7716
 IR Inten    --      2.2598                 6.3709                 8.1117

                     34                     35                     36
                      A                      A                      A
 Frequencies --    837.8531               843.5859               870.3114
 Red. masses --      2.5570                 2.6304                 1.7935
 Frc consts  --      1.0576                 1.1029                 0.8004
 IR Inten    --      5.7278                 6.6715                 4.4168

                     37                     38                     39
                      A                      A                      A
 Frequencies --    894.3723               906.2428               923.9938
 Red. masses --      1.7446                 2.2718                 2.1294
 Frc consts  --      0.8222                 1.0993                 1.0711
 IR Inten    --      0.3257                 5.1888                15.8315

                     40                     41                     42
                      A                      A                      A
 Frequencies --    938.4431               947.3456               953.1219
 Red. masses --      1.6946                 2.0637                 2.0474
 Frc consts  --      0.8793                 1.0912                 1.0958
 IR Inten    --      4.1936                 1.2211                36.5875

                     43                     44                     45
                      A                      A                      A
 Frequencies --    996.2200              1002.9441              1029.1913
 Red. masses --      2.3359                 1.6230                 1.5409
 Frc consts  --      1.3659                 0.9619                 0.9617
 IR Inten    --      1.8936                41.5958                 5.9567

                     46                     47                     48
                      A                      A                      A
 Frequencies --   1046.8060              1058.0965              1065.9246
 Red. masses --      1.8079                 2.7527                 2.0658
 Frc consts  --      1.1672                 1.8158                 1.3829
 IR Inten    --      6.5929                13.3798                 6.1674

                     49                     50                     51
                      A                      A                      A
 Frequencies --   1093.1595              1117.1862              1123.9007
 Red. masses --      1.7853                 3.3374                 2.6225
 Frc consts  --      1.2570                 2.4542                 1.9518
 IR Inten    --      0.2028                39.7469                29.5599

                     52                     53                     54
                      A                      A                      A
 Frequencies --   1164.5035              1187.6267              1201.7603
 Red. masses --      1.4858                 2.6180                 1.5167
 Frc consts  --      1.1871                 2.1756                 1.2906
 IR Inten    --      3.0340                28.4312                 3.4616

                     55                     56                     57
                      A                      A                      A
 Frequencies --   1213.7556              1216.4729              1228.1485
 Red. masses --      1.8392                 2.3232                 1.9505
 Frc consts  --      1.5964                 2.0256                 1.7334
 IR Inten    --     11.6827                19.9870                12.3300

                     58                     59                     60
                      A                      A                      A
 Frequencies --   1250.7703              1259.9954              1277.5097
 Red. masses --      1.4368                 1.4396                 1.2905
 Frc consts  --      1.3243                 1.3466                 1.2409
 IR Inten    --     14.7397                13.7320                20.2687

                     61                     62                     63
                      A                      A                      A
 Frequencies --   1294.1053              1304.5167              1352.4252
 Red. masses --      1.3666                 1.2463                 1.3234
 Frc consts  --      1.3485                 1.2496                 1.4261
 IR Inten    --     20.9942                17.1214                 1.5817

                     64                     65                     66
                      A                      A                      A
 Frequencies --   1353.6677              1362.7476              1375.2291
 Red. masses --      1.3154                 1.4176                 1.4017
 Frc consts  --      1.4202                 1.5511                 1.5619
 IR Inten    --      7.1614                 0.5344                 7.5211

                     67                     68                     69
                      A                      A                      A
 Frequencies --   1384.8023              1394.3703              1396.9534
 Red. masses --      1.3804                 1.2809                 1.3155
 Frc consts  --      1.5597                 1.4673                 1.5125
 IR Inten    --      7.1179                 4.5996                 9.4407

                     70                     71                     72
                      A                      A                      A
 Frequencies --   1399.7329              1415.8551              1441.4472
 Red. masses --      1.4079                 1.2253                 1.0915
 Frc consts  --      1.6252                 1.4472                 1.3362
 IR Inten    --      2.9090                 4.7040                 7.1987

                     73                     74                     75
                      A                      A                      A
 Frequencies --   1451.4285              1470.2409              1475.6043
 Red. masses --      1.2493                 1.0826                 1.0882
 Frc consts  --      1.5507                 1.3788                 1.3961
 IR Inten    --     70.5448                 8.2460                 5.6434

                     76                     77                     78
                      A                      A                      A
 Frequencies --   1477.4047              1480.0738              1490.2698
 Red. masses --      1.0824                 1.0565                 1.0883
 Frc consts  --      1.3920                 1.3636                 1.4241
 IR Inten    --      6.3643                 0.7309                 5.7590

                     79                     80                     81
                      A                      A                      A
 Frequencies --   1492.3483              1493.6772              1496.5518
 Red. masses --      1.0771                 1.0753                 1.0883
 Frc consts  --      1.4134                 1.4135                 1.4361
 IR Inten    --      6.2856                 1.8221                10.2262

                     82                     83                     84
                      A                      A                      A
 Frequencies --   1507.2775              1512.5756              1774.8831
 Red. masses --      1.0876                 1.1028                11.1754
 Frc consts  --      1.4558                 1.4866                20.7421
 IR Inten    --      5.1969                 2.2284               113.0161

                     85                     86                     87
                      A                      A                      A
 Frequencies --   2957.2690              3008.1010              3021.0698
 Red. masses --      1.0804                 1.0652                 1.0674
 Frc consts  --      5.5670                 5.6789                 5.7396
 IR Inten    --     26.7159                13.3764                 3.5057

                     88                     89                     90
                      A                      A                      A
 Frequencies --   3022.9760              3026.6130              3030.3779
 Red. masses --      1.0637                 1.0619                 1.0522
 Frc consts  --      5.7272                 5.7315                 5.6928
 IR Inten    --     11.5817                19.4352                 2.2984

                     91                     92                     93
                      A                      A                      A
 Frequencies --   3030.8519              3035.5148              3044.5316
 Red. masses --      1.0472                 1.0578                 1.0398
 Frc consts  --      5.6675                 5.7425                 5.6787
 IR Inten    --     37.0956                22.9419                22.3862

                     94                     95                     96
                      A                      A                      A
 Frequencies --   3059.2931              3062.3506              3068.4027
 Red. masses --      1.0936                 1.0997                 1.0976
 Frc consts  --      6.0303                 6.0761                 6.0884
 IR Inten    --     33.7269                33.6331                30.4232

                     97                     98                     99
                      A                      A                      A
 Frequencies --   3072.1348              3078.7466              3084.5273
 Red. masses --      1.0961                 1.1010                 1.1003
 Frc consts  --      6.0952                 6.1488                 6.1677
 IR Inten    --     18.4772                26.3212                20.7318

                    100                    101                    102
                      A                      A                      A
 Frequencies --   3100.7887              3112.6248              3117.1172
 Red. masses --      1.1014                 1.1010                 1.1014
 Frc consts  --      6.2392                 6.2849                 6.3054
 IR Inten    --     19.3348                17.4202                25.5100

                    103                    104                    105
                      A                      A                      A
 Frequencies --   3124.6222              3497.5652              3580.2593
 Red. masses --      1.1010                 1.0729                 1.0639
 Frc consts  --      6.3331                 7.7328                 8.0349
 IR Inten    --     28.5663                70.2276               122.0278

 - Thermochemistry -
 -------------------
 Temperature   298.150 Kelvin.  Pressure   1.00000 Atm.
 Atom     1 has atomic number  6 and mass  12.00000

 Molecular mass:   243.12930 amu.
 Principal axes and moments of inertia in atomic units:
                           1         2         3
     Eigenvalues --  2261.816404906.164035416.58934
           X            0.99984   0.00404  -0.01745
           Y           -0.00456   0.99954  -0.02989
           Z            0.01732   0.02996   0.99940
 This molecule is an asymmetric top.
 Rotational symmetry number  1.
 Warning -- assumption of classical behavior for rotation
           may cause significant error
 Rotational temperatures (Kelvin)      0.03829     0.01765     0.01599
 Rotational constants (GHZ):           0.79792     0.36785     0.33319
 Zero-point vibrational energy     846902.4 (Joules/Mol)
                                  202.41452 (Kcal/Mol)
 Warning -- explicit consideration of  27 degrees of freedom as
           vibrations may cause significant error
 Vibrational temperatures:     57.46    83.56   109.51   185.45   241.74
          (Kelvin)            278.87   282.88   318.88   346.09   374.61
                              379.59   412.08   443.77   466.30   492.66
                              526.57   541.63   573.86   591.25   616.82
                              653.61   700.14   721.41   746.19   762.23
                              834.71   865.28   898.59  1011.63  1051.93
                             1120.24  1137.11  1176.52  1205.48  1213.73
                             1252.18  1286.80  1303.88  1329.42  1350.21
                             1363.02  1371.33  1433.34  1443.01  1480.78
                             1506.12  1522.36  1533.63  1572.81  1607.38
                             1617.04  1675.46  1708.73  1729.07  1746.32
                             1750.23  1767.03  1799.58  1812.85  1838.05
                             1861.93  1876.91  1945.84  1947.63  1960.69
                             1978.65  1992.42  2006.19  2009.90  2013.90
                             2037.10  2073.92  2088.28  2115.35  2123.07
                             2125.66  2129.50  2144.17  2147.16  2149.07
                             2153.20  2168.64  2176.26  2553.66  4254.85
                             4327.99  4346.65  4349.39  4354.62  4360.04
                             4360.72  4367.43  4380.40  4401.64  4406.04
                             4414.75  4420.12  4429.63  4437.95  4461.34
                             4478.37  4484.84  4495.63  5032.22  5151.19

 Zero-point correction=                           0.322568 (Hartree/Particle)
 Thermal correction to Energy=                    0.338544
 Thermal correction to Enthalpy=                  0.339488
 Thermal correction to Gibbs Free Energy=         0.280466
 Sum of electronic and zero-point Energies=          -1073.022629
 Sum of electronic and thermal Energies=             -1073.006653
 Sum of electronic and thermal Enthalpies=           -1073.005709
 Sum of electronic and thermal Free Energies=        -1073.064731

                     E (Thermal)             CV                S
                      KCal/Mol        Cal/Mol-Kelvin    Cal/Mol-Kelvin
 Total                  212.440             64.738            124.223
 Electronic               0.000              0.000              0.000
 Translational            0.889              2.981             42.366
 Rotational               0.889              2.981             32.463
 Vibrational            210.662             58.776             49.393
 Vibration     1          0.594              1.981              5.262
 Vibration     2          0.596              1.974              4.521
 Vibration     3          0.599              1.965              3.989
 Vibration     4          0.611              1.924              2.962
 Vibration     5          0.625              1.882              2.458
 Vibration     6          0.635              1.848              2.191
 Vibration     7          0.636              1.845              2.165
 Vibration     8          0.648              1.808              1.946
 Vibration     9          0.658              1.778              1.799
 Vibration    10          0.668              1.745              1.659
 Vibration    11          0.670              1.739              1.636
 Vibration    12          0.684              1.699              1.495
 Vibration    13          0.698              1.658              1.371
 Vibration    14          0.709              1.627              1.289
 Vibration    15          0.722              1.591              1.201
 Vibration    16          0.739              1.542              1.097
 Vibration    17          0.747              1.520              1.053
 Vibration    18          0.765              1.473              0.967
 Vibration    19          0.775              1.446              0.923
 Vibration    20          0.790              1.408              0.863
 Vibration    21          0.813              1.351              0.783
 Vibration    22          0.843              1.280              0.692
 Vibration    23          0.857              1.247              0.655
 Vibration    24          0.874              1.209              0.613
 Vibration    25          0.885              1.184              0.588
 Vibration    26          0.937              1.074              0.485
 Vibration    27          0.960              1.029              0.447

 Optimization completed.
    -- Stationary point found.
 Normal termination of Gaussian 16 at Mon May 29 12:38:32 2023.
