 Gaussian 16, Revision A.03,
 Gaussian 16:  ES64L-G16RevA.03 25-Dec-2016

 -----------------------------
 # opt freq b3lyp/6-31g(2df,p)
 -----------------------------

 -------------------
 Title Card Required
 -------------------
 Symbolic Z-matrix:
 Charge =  0 Multiplicity = 1

 SCF Done:  E(RB3LYP) =  -1505.40950305     A.U. after   16 cycles
 SCF Done:  E(RB3LYP) =  -1505.41848439     A.U. after   13 cycles
 SCF Done:  E(RB3LYP) =  -1505.41806054     A.U. after   14 cycles
 SCF Done:  E(RB3LYP) =  -1505.42052167     A.U. after   13 cycles
 SCF Done:  E(RB3LYP) =  -1505.41857984     A.U. after   14 cycles
 SCF Done:  E(RB3LYP) =  -1505.42231799     A.U. after   13 cycles
 SCF Done:  E(RB3LYP) =  -1505.42423857     A.U. after   15 cycles
 SCF Done:  E(RB3LYP) =  -1505.42738600     A.U. after   12 cycles
 SCF Done:  E(RB3LYP) =  -1505.42928655     A.U. after   13 cycles
 SCF Done:  E(RB3LYP) =  -1505.42964888     A.U. after   12 cycles
 SCF Done:  E(RB3LYP) =  -1505.42966807     A.U. after   13 cycles
 SCF Done:  E(RB3LYP) =  -1505.42973804     A.U. after   11 cycles
 SCF Done:  E(RB3LYP) =  -1505.42974102     A.U. after   10 cycles
 SCF Done:  E(RB3LYP) =  -1505.42974162     A.U. after    9 cycles
 SCF Done:  E(RB3LYP) =  -1505.42974186     A.U. after    8 cycles
 SCF Done:  E(RB3LYP) =  -1505.42974199     A.U. after    7 cycles
 Optimization completed.
    -- Stationary point found.
 Normal termination of Gaussian 16 at Sat May 27 18:06:21 2023.

 ----------------------------------------------------------------------
 #N Geom=AllCheck Guess=TCheck SCRF=Check GenChk RB3LYP/6-31G(2df,p) Fr
 eq
 ----------------------------------------------------------------------

 Structure from the checkpoint file:  "CC1qCrCdCqCdSrCqSrdCS1.chk"
 -------------------
 Title Card Required
 -------------------
 Charge =  0 Multiplicity = 1

                         Standard orientation:
 ---------------------------------------------------------------------
 Center     Atomic      Atomic             Coordinates (Angstroms)
 Number     Number       Type             X           Y           Z
 ---------------------------------------------------------------------
      1          6           0       -3.191000   -1.445785   -0.114165
      2          6           0       -2.042772   -0.497556    0.256772
      3          6           0       -2.280669    0.124854    1.644680
      4          6           0       -0.716478   -1.204682    0.209841
      5          6           0        0.501341   -0.605026    0.102910
      6          6           0        1.627875   -1.528032    0.049618
      7         16           0        3.198275   -1.286198   -0.333227
      8          6           0        0.586421    0.856311   -0.095969
      9         16           0        1.917368    1.851199    0.545946
     10          6           0       -0.433165    1.523378   -0.678001
     11         16           0       -1.990346    0.818695   -1.051007
     12          1           0       -3.265263   -2.244297    0.631993
     13          1           0       -3.033056   -1.902182   -1.094786
     14          1           0       -4.145536   -0.912402   -0.130108
     15          1           0       -2.286228   -0.660908    2.408985
     16          1           0       -3.247082    0.637126    1.664320
     17          1           0       -1.497988    0.842110    1.898411
     18          1           0       -0.750740   -2.290948    0.273284
     19          1           0        1.325463   -2.554584    0.269446
     20          1           0        2.925066    1.031580    0.163328
     21          1           0       -0.338709    2.574602   -0.926362
 ---------------------------------------------------------------------

 SCF Done:  E(RB3LYP) =  -1505.42974199     A.U. after    1 cycles

 The electronic state is 1-A.
 Alpha  occ. eigenvalues --  -88.89748 -88.87280 -88.86466 -10.26165 -10.25479
 Alpha  occ. eigenvalues --  -10.23345 -10.23313 -10.23097 -10.22491 -10.20350
 Alpha  occ. eigenvalues --  -10.19749  -7.95981  -7.93827  -7.93020  -5.92426
 Alpha  occ. eigenvalues --   -5.92085  -5.91605  -5.90271  -5.89911  -5.89399
 Alpha  occ. eigenvalues --   -5.89321  -5.89287  -5.88545  -0.89198  -0.83563
 Alpha  occ. eigenvalues --   -0.81221  -0.76074  -0.75027  -0.71218  -0.67705
 Alpha  occ. eigenvalues --   -0.64462  -0.61346  -0.56345  -0.50562  -0.49239
 Alpha  occ. eigenvalues --   -0.48404  -0.46014  -0.44938  -0.43119  -0.42064
 Alpha  occ. eigenvalues --   -0.40934  -0.40144  -0.38266  -0.37197  -0.37098
 Alpha  occ. eigenvalues --   -0.36373  -0.34204  -0.33599  -0.30938  -0.26680
 Alpha  occ. eigenvalues --   -0.26194  -0.22828  -0.21156
 Alpha virt. eigenvalues --   -0.10274  -0.03989   0.01401   0.03151   0.05742
 Alpha virt. eigenvalues --    0.06771   0.08455   0.08915   0.09252   0.10867
 Alpha virt. eigenvalues --    0.12872   0.13772   0.14054   0.14663   0.16048

 Mulliken charges:
               1
     1  C   -0.431682
     2  C    0.152737
     3  C   -0.407302
     4  C   -0.123960
     5  C    0.221773
     6  C   -0.049048
     7  S   -0.272962
     8  C    0.091632
     9  S   -0.283269
    10  C   -0.174874
    11  S   -0.104609
    12  H    0.126227
    13  H    0.139642
    14  H    0.138234
    15  H    0.122327
    16  H    0.132106
    17  H    0.147314
    18  H    0.112288
    19  H    0.129780
    20  H    0.186452
    21  H    0.147195
 Sum of Mulliken charges =  -0.00000

 Dipole moment (field-independent basis, Debye):
    X=             -3.6233    Y=             -1.7465    Z=              0.9876  Tot=              4.1417
 Quadrupole moment (field-independent basis, Debye-Ang):
   XX=            -90.3746   YY=            -85.8970   ZZ=            -89.6180
   XY=              4.6083   XZ=             -2.1880   YZ=             -2.2106

  Exact polarizability: 213.405  -0.369 134.039   0.656  -3.917  97.954
 Approx polarizability: 381.976   3.396 219.288   3.681 -15.214 172.532

                      1                      2                      3
                      A                      A                      A
 Frequencies --     56.6108                72.1106               176.8171
 Red. masses --      8.7103                 3.9374                 3.4361
 Frc consts  --      0.0164                 0.0121                 0.0633
 IR Inten    --      1.1784                 0.2644                 0.4325

                      4                      5                      6
                      A                      A                      A
 Frequencies --    180.6891               204.7980               223.8188
 Red. masses --      6.7014                 5.5049                 2.8678
 Frc consts  --      0.1289                 0.1360                 0.0846
 IR Inten    --      4.4812                 2.0387                 0.2782

                      7                      8                      9
                      A                      A                      A
 Frequencies --    235.1877               260.6699               274.6996
 Red. masses --      1.1684                 2.1098                 3.8612
 Frc consts  --      0.0381                 0.0845                 0.1717
 IR Inten    --      0.1361                 0.4981                 2.3084

                     10                     11                     12
                      A                      A                      A
 Frequencies --    283.4154               312.6956               332.1399
 Red. masses --      1.4489                 2.9669                 1.9453
 Frc consts  --      0.0686                 0.1709                 0.1264
 IR Inten    --      0.1027                 1.6799                 5.5304

                     13                     14                     15
                      A                      A                      A
 Frequencies --    366.5732               380.9868               419.5615
 Red. masses --      2.6341                 2.1489                 3.8070
 Frc consts  --      0.2085                 0.1838                 0.3948
 IR Inten    --     16.9839                16.0183                 3.2913

                     16                     17                     18
                      A                      A                      A
 Frequencies --    442.9201               477.8814               577.8389
 Red. masses --      4.3519                 3.6167                 5.7002
 Frc consts  --      0.5030                 0.4866                 1.1214
 IR Inten    --      1.7903                 2.7066                 2.1256

                     19                     20                     21
                      A                      A                      A
 Frequencies --    624.9080               692.3801               694.2016
 Red. masses --      3.8318                 5.1169                 5.1699
 Frc consts  --      0.8816                 1.4453                 1.4679
 IR Inten    --      0.5633                 1.4607                14.0914

                     22                     23                     24
                      A                      A                      A
 Frequencies --    804.6525               827.6166               835.3074
 Red. masses --      4.4322                 1.4800                 1.4224
 Frc consts  --      1.6908                 0.5973                 0.5847
 IR Inten    --     25.9823                13.4522                 4.1551

                     25                     26                     27
                      A                      A                      A
 Frequencies --    866.7544               915.0487               942.6547
 Red. masses --      2.5947                 1.8033                 1.4447
 Frc consts  --      1.1485                 0.8896                 0.7564
 IR Inten    --      3.1616                15.9601                 5.5246

                     28                     29                     30
                      A                      A                      A
 Frequencies --    949.0146               967.8234               995.3107
 Red. masses --      1.4944                 2.0387                 3.4930
 Frc consts  --      0.7930                 1.1251                 2.0388
 IR Inten    --      2.0545                21.4809                19.0467

                     31                     32                     33
                      A                      A                      A
 Frequencies --   1026.7910              1095.4581              1154.4705
 Red. masses --      1.3048                 2.4688                 2.1943
 Frc consts  --      0.8105                 1.7455                 1.7231
 IR Inten    --      3.0348                29.3960                10.2170

                     34                     35                     36
                      A                      A                      A
 Frequencies --   1172.4199              1246.7464              1248.2222
 Red. masses --      2.6724                 2.5762                 2.0016
 Frc consts  --      2.1643                 2.3594                 1.8374
 IR Inten    --     14.4073                 1.4368               105.6087

                     37                     38                     39
                      A                      A                      A
 Frequencies --   1280.6505              1363.0362              1395.7262
 Red. masses --      1.3133                 2.4312                 1.2060
 Frc consts  --      1.2691                 2.6612                 1.3842
 IR Inten    --      9.9201                84.1873                 5.9293

                     40                     41                     42
                      A                      A                      A
 Frequencies --   1412.1029              1426.5086              1475.9847
 Red. masses --      1.3155                 1.3554                 1.0499
 Frc consts  --      1.5455                 1.6250                 1.3476
 IR Inten    --     21.4374                 6.3343                 4.1460

                     43                     44                     45
                      A                      A                      A
 Frequencies --   1480.8219              1494.9881              1504.8400
 Red. masses --      1.0459                 1.0540                 1.0532
 Frc consts  --      1.3513                 1.3879                 1.4053
 IR Inten    --      0.7641                 1.4298                 5.9360

                     46                     47                     48
                      A                      A                      A
 Frequencies --   1566.9293              1607.6155              2557.6395
 Red. masses --      8.8829                 6.8567                 1.0376
 Frc consts  --     12.8501                10.4407                 3.9991
 IR Inten    --     32.1914                63.9497               124.7121

                     49                     50                     51
                      A                      A                      A
 Frequencies --   3032.4819              3038.2186              3084.6222
 Red. masses --      1.0371                 1.0360                 1.0859
 Frc consts  --      5.6189                 5.6343                 6.0876
 IR Inten    --     13.4093                24.6764                10.3632

                     52                     53                     54
                      A                      A                      A
 Frequencies --   3103.1123              3108.7854              3123.9691
 Red. masses --      1.0996                 1.1001                 1.1027
 Frc consts  --      6.2384                 6.2644                 6.3404
 IR Inten    --      3.8286                15.8271                11.9886

                     55                     56                     57
                      A                      A                      A
 Frequencies --   3136.9984              3139.5788              3193.9641
 Red. masses --      1.1005                 1.0885                 1.0904
 Frc consts  --      6.3806                 6.3215                 6.5536
 IR Inten    --      7.5403                10.0424                 2.8655

 - Thermochemistry -
 -------------------
 Temperature   298.150 Kelvin.  Pressure   1.00000 Atm.
 Atom     1 has atomic number  6 and mass  12.00000

 Molecular mass:   201.99447 amu.
 Principal axes and moments of inertia in atomic units:
                           1         2         3
     Eigenvalues --  1541.123123650.283424457.51695
           X            0.99955   0.02648  -0.01393
           Y           -0.02660   0.99961  -0.00886
           Z            0.01369   0.00923   0.99986
 This molecule is an asymmetric top.
 Rotational symmetry number  1.
 Warning -- assumption of classical behavior for rotation
           may cause significant error
 Rotational temperatures (Kelvin)      0.05620     0.02373     0.01943
 Rotational constants (GHZ):           1.17106     0.49441     0.40488
 Zero-point vibrational energy     411920.7 (Joules/Mol)
                                   98.45142 (Kcal/Mol)
 Warning -- explicit consideration of  18 degrees of freedom as
           vibrations may cause significant error
 Vibrational temperatures:     81.45   103.75   254.40   259.97   294.66
          (Kelvin)            322.03   338.38   375.05   395.23   407.77
                              449.90   477.88   527.42   548.16   603.66
                              637.26   687.56   831.38   899.10   996.18
                              998.80  1157.72  1190.76  1201.82  1247.07
                             1316.55  1356.27  1365.42  1392.48  1432.03
                             1477.32  1576.12  1661.03  1686.85  1793.79
                             1795.91  1842.57  1961.11  2008.14  2031.70
                             2052.43  2123.61  2130.57  2150.95  2165.13
                             2254.46  2313.00  3679.87  4363.07  4371.32
                             4438.08  4464.69  4472.85  4494.69  4513.44
                             4517.15  4595.40

 Zero-point correction=                           0.156892 (Hartree/Particle)
 Thermal correction to Energy=                    0.168979
 Thermal correction to Enthalpy=                  0.169923
 Thermal correction to Gibbs Free Energy=         0.118701
 Sum of electronic and zero-point Energies=          -1505.272850
 Sum of electronic and thermal Energies=             -1505.260763
 Sum of electronic and thermal Enthalpies=           -1505.259819
 Sum of electronic and thermal Free Energies=        -1505.311041

                     E (Thermal)             CV                S
                      KCal/Mol        Cal/Mol-Kelvin    Cal/Mol-Kelvin
 Total                  106.036             45.393            107.807
 Electronic               0.000              0.000              0.000
 Translational            0.889              2.981             41.814
 Rotational               0.889              2.981             31.595
 Vibrational            104.258             39.431             34.398
 Vibration     1          0.596              1.975              4.572
 Vibration     2          0.598              1.967              4.095
 Vibration     3          0.628              1.871              2.362
 Vibration     4          0.630              1.866              2.321
 Vibration     5          0.640              1.833              2.090
 Vibration     6          0.649              1.805              1.928
 Vibration     7          0.655              1.787              1.839
 Vibration     8          0.669              1.745              1.657
 Vibration     9          0.677              1.720              1.566
 Vibration    10          0.682              1.704              1.513
 Vibration    11          0.701              1.649              1.348
 Vibration    12          0.714              1.611              1.250
 Vibration    13          0.739              1.541              1.094
 Vibration    14          0.751              1.511              1.035
 Vibration    15          0.782              1.428              0.893
 Vibration    16          0.803              1.377              0.817
 Vibration    17          0.834              1.299              0.716
 Vibration    18          0.934              1.079              0.489

 Optimization completed.
    -- Stationary point found.
 Normal termination of Gaussian 16 at Sat May 27 18:57:37 2023.
