 Gaussian 16, Revision A.03,
 Gaussian 16:  ES64L-G16RevA.03 25-Dec-2016

 -----------------------------
 # opt freq b3lyp/6-31g(2df,p)
 -----------------------------

 -------------------
 Title Card Required
 -------------------
 Symbolic Z-matrix:
 Charge =  0 Multiplicity = 1

 SCF Done:  E(RB3LYP) =  -533.603862919     A.U. after   12 cycles
 SCF Done:  E(RB3LYP) =  -533.606069342     A.U. after   10 cycles
 SCF Done:  E(RB3LYP) =  -533.606360942     A.U. after   10 cycles
 SCF Done:  E(RB3LYP) =  -533.606409700     A.U. after    8 cycles
 SCF Done:  E(RB3LYP) =  -533.606415911     A.U. after    8 cycles
 SCF Done:  E(RB3LYP) =  -533.606417558     A.U. after    7 cycles
 SCF Done:  E(RB3LYP) =  -533.606417797     A.U. after    6 cycles
 Optimization completed.
    -- Stationary point found.
 Normal termination of Gaussian 16 at Sat May 27 22:24:58 2023.

 ----------------------------------------------------------------------
 #N Geom=AllCheck Guess=TCheck SCRF=Check GenChk RB3LYP/6-31G(2df,p) Fr
 eq
 ----------------------------------------------------------------------

 Structure from the checkpoint file:  "CC1qCqFrqFrFrCCC1.chk"
 -------------------
 Title Card Required
 -------------------
 Charge =  0 Multiplicity = 1

                         Standard orientation:
 ---------------------------------------------------------------------
 Center     Atomic      Atomic             Coordinates (Angstroms)
 Number     Number       Type             X           Y           Z
 ---------------------------------------------------------------------
      1          6           0        0.380402    1.873929   -0.000158
      2          6           0        0.385975    0.345313   -0.000054
      3          6           0       -1.035681   -0.181062   -0.000041
      4          9           0       -1.077343   -1.526354    0.000264
      5          9           0       -1.717870    0.231088    1.083728
      6          9           0       -1.717795    0.230616   -1.083869
      7          6           0        1.311614   -0.279927    1.090670
      8          6           0        2.390090   -0.522439    0.000058
      9          6           0        1.311626   -0.280209   -1.090606
     10          1           0       -0.127274    2.263222    0.887027
     11          1           0       -0.127614    2.263205   -0.887180
     12          1           0        1.405543    2.254971   -0.000434
     13          1           0        0.905467   -1.212795    1.486317
     14          1           0        1.573974    0.372772    1.926189
     15          1           0        2.877352   -1.499114    0.000179
     16          1           0        3.166033    0.246894   -0.000048
     17          1           0        0.905454   -1.213164   -1.486026
     18          1           0        1.573985    0.372223   -1.926347
 ---------------------------------------------------------------------

 SCF Done:  E(RB3LYP) =  -533.606417797     A.U. after    1 cycles

 The electronic state is 1-A.
 Alpha  occ. eigenvalues --  -24.71250 -24.71082 -24.71078 -10.40567 -10.21164
 Alpha  occ. eigenvalues --  -10.19019 -10.19016 -10.18965 -10.18598  -1.29720
 Alpha  occ. eigenvalues --   -1.20866  -1.20811  -0.86573  -0.75016  -0.69637
 Alpha  occ. eigenvalues --   -0.67178  -0.63370  -0.57925  -0.57306  -0.56803
 Alpha  occ. eigenvalues --   -0.52146  -0.47974  -0.45910  -0.44951  -0.43840
 Alpha  occ. eigenvalues --   -0.43123  -0.41938  -0.41164  -0.39651  -0.39486
 Alpha  occ. eigenvalues --   -0.38307  -0.37102  -0.34732  -0.32699  -0.31261
 Alpha  occ. eigenvalues --   -0.30978
 Alpha virt. eigenvalues --    0.08143   0.09870   0.11138   0.11421   0.13114
 Alpha virt. eigenvalues --    0.15248   0.15612   0.16505   0.19229   0.19392
 Alpha virt. eigenvalues --    0.20009   0.21147   0.21362   0.23194   0.25345

 Mulliken charges:
               1
     1  C   -0.468725
     2  C    0.187417
     3  C    0.253269
     4  F   -0.089117
     5  F   -0.088830
     6  F   -0.088676
     7  C   -0.267209
     8  C   -0.214912
     9  C   -0.267230
    10  H    0.131495
    11  H    0.131482
    12  H    0.120155
    13  H    0.118743
    14  H    0.104545
    15  H    0.106632
    16  H    0.107675
    17  H    0.118741
    18  H    0.104544
 Sum of Mulliken charges =  -0.00000

 Dipole moment (field-independent basis, Debye):
    X=              2.0244    Y=              0.6224    Z=             -0.0005  Tot=              2.1180
 Quadrupole moment (field-independent basis, Debye-Ang):
   XX=            -53.3752   YY=            -51.2874   ZZ=            -52.2309
   XY=             -0.0766   XZ=              0.0008   YZ=             -0.0002

  Exact polarizability:  66.571  -2.530  63.644  -0.000  -0.000  61.427
 Approx polarizability:  88.628  -1.757  90.034  -0.001   0.000  90.472

                      1                      2                      3
                      A                      A                      A
 Frequencies --     62.6582               108.7085               199.9025
 Red. masses --      5.8895                 2.2545                 3.9216
 Frc consts  --      0.0136                 0.0157                 0.0923
 IR Inten    --      0.0566                 0.2595                 0.4169

                      4                      5                      6
                      A                      A                      A
 Frequencies --    241.8568               242.6066               312.2331
 Red. masses --      3.7649                 1.0564                 2.3002
 Frc consts  --      0.1298                 0.0366                 0.1321
 IR Inten    --      0.5376                 0.0001                 0.4477

                      7                      8                      9
                      A                      A                      A
 Frequencies --    319.5699               371.0138               434.4964
 Red. masses --      2.7555                 6.3286                 5.0692
 Frc consts  --      0.1658                 0.5133                 0.5638
 IR Inten    --      3.3510                 2.3748                 1.4656

                     10                     11                     12
                      A                      A                      A
 Frequencies --    468.4308               575.7574               575.9902
 Red. masses --      3.9130                 9.5218                 9.7453
 Frc consts  --      0.5059                 1.8597                 1.9049
 IR Inten    --      3.3639                 0.0434                 0.7238

                     13                     14                     15
                      A                      A                      A
 Frequencies --    689.5422               734.6639               792.0986
 Red. masses --      1.8141                 3.6231                 1.2295
 Frc consts  --      0.5082                 1.1521                 0.4545
 IR Inten    --      8.6961                 2.6325                 0.2114

                     16                     17                     18
                      A                      A                      A
 Frequencies --    856.5366               893.9377               933.7101
 Red. masses --      2.4532                 2.2944                 1.8595
 Frc consts  --      1.0604                 1.0803                 0.9551
 IR Inten    --      1.4700                 0.8984                 0.2972

                     19                     20                     21
                      A                      A                      A
 Frequencies --    936.8652               946.8723               994.6947
 Red. masses --      1.9866                 2.5022                 2.0226
 Frc consts  --      1.0273                 1.3218                 1.1790
 IR Inten    --      0.5790                 2.6070                 0.4701

                     22                     23                     24
                      A                      A                      A
 Frequencies --   1063.0178              1145.5185              1168.3231
 Red. masses --      1.2430                 3.5446                 4.0494
 Frc consts  --      0.8275                 2.7404                 3.2566
 IR Inten    --      5.8153               132.5457               108.0605

                     25                     26                     27
                      A                      A                      A
 Frequencies --   1170.9427              1190.8919              1213.4429
 Red. masses --      2.6129                 2.9608                 2.8263
 Frc consts  --      2.1108                 2.4740                 2.4519
 IR Inten    --     82.3375                85.0254                68.4739

                     28                     29                     30
                      A                      A                      A
 Frequencies --   1224.1691              1265.4830              1269.3581
 Red. masses --      1.5757                 1.2215                 2.0122
 Frc consts  --      1.3913                 1.1526                 1.9102
 IR Inten    --     25.1222                 0.0958                41.7527

                     31                     32                     33
                      A                      A                      A
 Frequencies --   1277.9018              1297.4896              1365.2531
 Red. masses --      1.4313                 1.7143                 3.5719
 Frc consts  --      1.3772                 1.7004                 3.9226
 IR Inten    --      0.0479                11.4460                63.1880

                     34                     35                     36
                      A                      A                      A
 Frequencies --   1409.9983              1473.6611              1483.1263
 Red. masses --      1.2443                 1.0824                 1.0822
 Frc consts  --      1.4575                 1.3849                 1.4025
 IR Inten    --     12.1795                 4.3210                 0.4500

                     37                     38                     39
                      A                      A                      A
 Frequencies --   1492.3469              1504.1282              1506.8840
 Red. masses --      1.0506                 1.0709                 1.1278
 Frc consts  --      1.3785                 1.4275                 1.5088
 IR Inten    --      0.8826                14.0196                 0.7844

                     40                     41                     42
                      A                      A                      A
 Frequencies --   3042.3790              3066.8437              3068.8642
 Red. masses --      1.0345                 1.0583                 1.0577
 Frc consts  --      5.6415                 5.8647                 5.8693
 IR Inten    --     15.8569                23.6817                53.0398

                     43                     44                     45
                      A                      A                      A
 Frequencies --   3074.9963              3109.9613              3115.6674
 Red. masses --      1.0618                 1.1077                 1.1019
 Frc consts  --      5.9153                 6.3124                 6.3024
 IR Inten    --      8.3222                 6.3638                17.5969

                     46                     47                     48
                      A                      A                      A
 Frequencies --   3118.2175              3126.0964              3135.2272
 Red. masses --      1.1021                 1.1077                 1.1071
 Frc consts  --      6.3135                 6.3779                 6.4115
 IR Inten    --     12.6891                 4.8430                44.6297

 - Thermochemistry -
 -------------------
 Temperature   298.150 Kelvin.  Pressure   1.00000 Atm.
 Atom     1 has atomic number  6 and mass  12.00000

 Molecular mass:   138.06564 amu.
 Principal axes and moments of inertia in atomic units:
                           1         2         3
     Eigenvalues --   724.655511329.388121434.84362
           X            0.99991  -0.01306   0.00000
           Y            0.01306   0.99991  -0.00002
           Z           -0.00000   0.00002   1.00000
 This molecule is an asymmetric top.
 Rotational symmetry number  1.
 Warning -- assumption of classical behavior for rotation
           may cause significant error
 Rotational temperatures (Kelvin)      0.11952     0.06515     0.06036
 Rotational constants (GHZ):           2.49048     1.35757     1.25780
 Zero-point vibrational energy     377256.3 (Joules/Mol)
                                   90.16643 (Kcal/Mol)
 Warning -- explicit consideration of  12 degrees of freedom as
           vibrations may cause significant error
 Vibrational temperatures:     90.15   156.41   287.62   347.98   349.06
          (Kelvin)            449.23   459.79   533.81   625.14   673.97
                              828.39   828.72   992.10  1057.02  1139.65
                             1232.37  1286.18  1343.40  1347.94  1362.34
                             1431.14  1529.45  1648.15  1680.96  1684.73
                             1713.43  1745.87  1761.31  1820.75  1826.32
                             1838.62  1866.80  1964.29  2028.67  2120.27
                             2133.89  2147.15  2164.11  2168.07  4377.30
                             4412.50  4415.41  4424.23  4474.54  4482.75
                             4486.42  4497.76  4510.89

 Zero-point correction=                           0.143689 (Hartree/Particle)
 Thermal correction to Energy=                    0.152437
 Thermal correction to Enthalpy=                  0.153381
 Thermal correction to Gibbs Free Energy=         0.110052
 Sum of electronic and zero-point Energies=           -533.462728
 Sum of electronic and thermal Energies=              -533.453981
 Sum of electronic and thermal Enthalpies=            -533.453036
 Sum of electronic and thermal Free Energies=         -533.496366

                     E (Thermal)             CV                S
                      KCal/Mol        Cal/Mol-Kelvin    Cal/Mol-Kelvin
 Total                   95.656             32.895             91.195
 Electronic               0.000              0.000              0.000
 Translational            0.889              2.981             40.679
 Rotational               0.889              2.981             28.715
 Vibrational             93.878             26.934             21.801
 Vibration     1          0.597              1.972              4.372
 Vibration     2          0.606              1.942              3.292
 Vibration     3          0.638              1.840              2.134
 Vibration     4          0.658              1.776              1.789
 Vibration     5          0.659              1.775              1.784
 Vibration     6          0.701              1.650              1.350
 Vibration     7          0.706              1.636              1.312
 Vibration     8          0.743              1.532              1.076
 Vibration     9          0.795              1.395              0.844
 Vibration    10          0.826              1.320              0.742
 Vibration    11          0.932              1.084              0.493
 Vibration    12          0.932              1.083              0.493

 Optimization completed.
    -- Stationary point found.
 Normal termination of Gaussian 16 at Sat May 27 22:51:35 2023.
