 Gaussian 16, Revision A.03,
 Gaussian 16:  ES64L-G16RevA.03 25-Dec-2016

 -----------------------------
 # opt freq b3lyp/6-31g(2df,p)
 -----------------------------

 -------------------
 Title Card Required
 -------------------
 Symbolic Z-matrix:
 Charge =  0 Multiplicity = 1

 SCF Done:  E(RB3LYP) =  -350.869816148     A.U. after   17 cycles
 SCF Done:  E(RB3LYP) =  -350.940616035     A.U. after   14 cycles
 SCF Done:  E(RB3LYP) =  -351.019909720     A.U. after   14 cycles
 SCF Done:  E(RB3LYP) =  -351.085543559     A.U. after   14 cycles
 SCF Done:  E(RB3LYP) =  -351.086102381     A.U. after    8 cycles
 SCF Done:  E(RB3LYP) =  -351.117807512     A.U. after   13 cycles
 SCF Done:  E(RB3LYP) =  -351.142899359     A.U. after   12 cycles
 SCF Done:  E(RB3LYP) =  -351.158300507     A.U. after   12 cycles
 SCF Done:  E(RB3LYP) =  -351.176817765     A.U. after   11 cycles
 SCF Done:  E(RB3LYP) =  -351.205297881     A.U. after   12 cycles
 SCF Done:  E(RB3LYP) =  -351.296659828     A.U. after    9 cycles
 SCF Done:  E(RB3LYP) =  -351.296827569     A.U. after    9 cycles
 SCF Done:  E(RB3LYP) =  -351.296852395     A.U. after    8 cycles
 SCF Done:  E(RB3LYP) =  -351.296858019     A.U. after    8 cycles
 SCF Done:  E(RB3LYP) =  -351.296859625     A.U. after    7 cycles
 SCF Done:  E(RB3LYP) =  -351.296860079     A.U. after    6 cycles
 SCF Done:  E(RB3LYP) =  -351.296860559     A.U. after    6 cycles
 SCF Done:  E(RB3LYP) =  -351.296860641     A.U. after    5 cycles
 SCF Done:  E(RB3LYP) =  -351.296860671     A.U. after    5 cycles
 Optimization completed.
    -- Stationary point found.
 Normal termination of Gaussian 16 at Sun May 28 21:02:32 2023.

 ----------------------------------------------------------------------
 #N Geom=AllCheck Guess=TCheck SCRF=Check GenChk RB3LYP/6-31G(2df,p) Fr
 eq
 ----------------------------------------------------------------------

 Structure from the checkpoint file:  "CC1qCrC2C3CC2qCrC31.chk"
 -------------------
 Title Card Required
 -------------------
 Charge =  0 Multiplicity = 1

                         Standard orientation:
 ---------------------------------------------------------------------
 Center     Atomic      Atomic             Coordinates (Angstroms)
 Number     Number       Type             X           Y           Z
 ---------------------------------------------------------------------
      1          6           0        2.377643   -0.763372    0.000013
      2          6           0        1.133082    0.129061    0.000039
      3          6           0        1.571503    1.593021    0.000015
      4          6           0       -0.022340   -0.313445   -0.943759
      5          6           0       -0.421225   -1.501792   -0.000099
      6          6           0       -1.901962   -1.115640    0.000003
      7          6           0       -1.166602    0.241433    0.000051
      8          6           0       -1.875260    1.573309    0.000002
      9          6           0       -0.022398   -0.313508    0.943738
     10          1           0        2.997528   -0.562887   -0.881987
     11          1           0        2.134894   -1.828645   -0.000331
     12          1           0        2.997234   -0.563379    0.882334
     13          1           0        2.185970    1.809130   -0.882287
     14          1           0        2.187695    1.808657    0.881220
     15          1           0        0.738783    2.295717    0.001051
     16          1           0       -0.046793   -0.330524   -2.037070
     17          1           0        0.018334   -2.498311   -0.000086
     18          1           0       -2.477958   -1.359475    0.900080
     19          1           0       -2.478228   -1.359418   -0.899909
     20          1           0       -2.519900    1.655711    0.883071
     21          1           0       -2.520677    1.655155   -0.882552
     22          1           0       -1.204701    2.434704   -0.000598
     23          1           0       -0.046822   -0.330836    2.037049
 ---------------------------------------------------------------------

 SCF Done:  E(RB3LYP) =  -351.296860671     A.U. after    1 cycles

 The electronic state is 1-A.
 Alpha  occ. eigenvalues --  -10.19771 -10.18917 -10.18879 -10.18763 -10.18763
 Alpha  occ. eigenvalues --  -10.17279 -10.17101 -10.16514 -10.16463  -0.92964
 Alpha  occ. eigenvalues --   -0.77834  -0.72485  -0.68118  -0.67588  -0.62412
 Alpha  occ. eigenvalues --   -0.58786  -0.55152  -0.49192  -0.46046  -0.45533
 Alpha  occ. eigenvalues --   -0.44356  -0.42816  -0.40815  -0.39448  -0.38733
 Alpha  occ. eigenvalues --   -0.38493  -0.37313  -0.35084  -0.30282  -0.29396
 Alpha  occ. eigenvalues --   -0.28504  -0.28305  -0.27642  -0.27510
 Alpha virt. eigenvalues --    0.09583   0.10267   0.11761   0.12494   0.12804
 Alpha virt. eigenvalues --    0.13223   0.14587   0.15120   0.15432   0.16325
 Alpha virt. eigenvalues --    0.17478   0.18619   0.19120   0.19594   0.20016

 Mulliken charges:
               1
     1  C   -0.452097
     2  C    0.326858
     3  C   -0.468715
     4  C   -0.124550
     5  C   -0.046607
     6  C   -0.312865
     7  C    0.352075
     8  C   -0.527406
     9  C   -0.124560
    10  H    0.109306
    11  H    0.111031
    12  H    0.109309
    13  H    0.110510
    14  H    0.110500
    15  H    0.115238
    16  H    0.056236
    17  H    0.069491
    18  H    0.083859
    19  H    0.083860
    20  H    0.118666
    21  H    0.118664
    22  H    0.124964
    23  H    0.056235
 Sum of Mulliken charges =  -0.00000

 Dipole moment (field-independent basis, Debye):
    X=             -0.0562    Y=              0.1867    Z=             -0.0000  Tot=              0.1950
 Quadrupole moment (field-independent basis, Debye-Ang):
   XX=            -57.0505   YY=            -57.0153   ZZ=            -55.7699
   XY=             -0.4136   XZ=              0.0001   YZ=             -0.0002

  Exact polarizability: 103.450   1.046  89.056   0.000  -0.001  79.446
 Approx polarizability: 136.177   0.931 128.119   0.000  -0.000 129.124

                      1                      2                      3
                      A                      A                      A
 Frequencies --    111.0992               164.3739               173.9744
 Red. masses --      1.1429                 1.0952                 1.7211
 Frc consts  --      0.0083                 0.0174                 0.0307
 IR Inten    --      0.0054                 0.0490                 0.0073

                      4                      5                      6
                      A                      A                      A
 Frequencies --    214.7664               244.4528               307.1232
 Red. masses --      1.0867                 3.0612                 2.0579
 Frc consts  --      0.0295                 0.1078                 0.1144
 IR Inten    --      0.0761                 0.1083                 0.1774

                      7                      8                      9
                      A                      A                      A
 Frequencies --    309.8222               338.0349               376.2795
 Red. masses --      2.6105                 2.2664                 2.4250
 Frc consts  --      0.1476                 0.1526                 0.2023
 IR Inten    --      0.1407                 0.3354                 0.0862

                     10                     11                     12
                      A                      A                      A
 Frequencies --    461.4286               513.8994               604.0155
 Red. masses --      1.8533                 2.9907                 3.4532
 Frc consts  --      0.2325                 0.4654                 0.7423
 IR Inten    --      0.0322                 0.7948                 0.0199

                     13                     14                     15
                      A                      A                      A
 Frequencies --    656.2418               724.9075               810.7929
 Red. masses --      3.4355                 3.5340                 2.4712
 Frc consts  --      0.8717                 1.0941                 0.9571
 IR Inten    --      0.2151                 0.0490                 0.1064

                     16                     17                     18
                      A                      A                      A
 Frequencies --    825.5956               857.6983               859.3630
 Red. masses --      2.0553                 2.0422                 2.0664
 Frc consts  --      0.8254                 0.8851                 0.8991
 IR Inten    --      0.2164                 0.4615                 0.0004

                     19                     20                     21
                      A                      A                      A
 Frequencies --    890.7766               941.0121               957.6401
 Red. masses --      2.2337                 1.5365                 1.8145
 Frc consts  --      1.0443                 0.8016                 0.9804
 IR Inten    --      0.7029                 0.1682                 0.0838

                     22                     23                     24
                      A                      A                      A
 Frequencies --    962.3410               981.1259              1009.6366
 Red. masses --      1.7968                 1.1660                 1.2317
 Frc consts  --      0.9804                 0.6613                 0.7397
 IR Inten    --      0.3545                 1.3042                 0.8389

                     25                     26                     27
                      A                      A                      A
 Frequencies --   1018.5805              1045.8177              1063.0414
 Red. masses --      1.3267                 4.0567                 1.2571
 Frc consts  --      0.8110                 2.6141                 0.8370
 IR Inten    --      0.3880                 0.6877                 0.1824

                     28                     29                     30
                      A                      A                      A
 Frequencies --   1112.0862              1142.1893              1148.1577
 Red. masses --      1.6386                 1.9801                 1.8882
 Frc consts  --      1.1940                 1.5220                 1.4666
 IR Inten    --      7.9297                 0.0326                 0.9038

                     31                     32                     33
                      A                      A                      A
 Frequencies --   1156.5128              1170.8238              1176.1608
 Red. masses --      1.4441                 1.5399                 1.6536
 Frc consts  --      1.1380                 1.2438                 1.3478
 IR Inten    --      1.0308                 8.6835                 1.3732

                     34                     35                     36
                      A                      A                      A
 Frequencies --   1217.5369              1221.2852              1235.9934
 Red. masses --      2.4157                 2.4042                 2.6117
 Frc consts  --      2.1099                 2.1128                 2.3507
 IR Inten    --      2.3284                 2.0542                20.6888

                     37                     38                     39
                      A                      A                      A
 Frequencies --   1290.8156              1312.9272              1346.3853
 Red. masses --      2.0665                 3.7549                 2.6152
 Frc consts  --      2.0287                 3.8136                 2.7931
 IR Inten    --      3.4195                18.0176                 6.1583

                     40                     41                     42
                      A                      A                      A
 Frequencies --   1399.2769              1411.3723              1423.5575
 Red. masses --      1.3004                 1.2749                 1.2279
 Frc consts  --      1.5002                 1.4963                 1.4661
 IR Inten    --      2.4033                 6.9334                 1.5823

                     43                     44                     45
                      A                      A                      A
 Frequencies --   1477.1746              1482.5627              1488.3205
 Red. masses --      1.0447                 1.0501                 1.0451
 Frc consts  --      1.3431                 1.3599                 1.3639
 IR Inten    --      0.6382                 0.9559                 0.7302

                     46                     47                     48
                      A                      A                      A
 Frequencies --   1495.3409              1507.2587              1509.4726
 Red. masses --      1.0546                 1.0501                 1.0721
 Frc consts  --      1.3893                 1.4055                 1.4393
 IR Inten    --      4.9603                 9.8396                 0.3507

                     49                     50                     51
                      A                      A                      A
 Frequencies --   1512.6664              3021.7050              3022.6706
 Red. masses --      1.1654                 1.0533                 1.0397
 Frc consts  --      1.5712                 5.6663                 5.5970
 IR Inten    --      0.3182                56.8643                11.1174

                     52                     53                     54
                      A                      A                      A
 Frequencies --   3027.1639              3029.5545              3067.4731
 Red. masses --      1.0397                 1.0421                 1.0891
 Frc consts  --      5.6132                 5.6354                 6.0380
 IR Inten    --     80.5983                23.1829               113.5884

                     55                     56                     57
                      A                      A                      A
 Frequencies --   3072.8049              3074.9457              3076.0169
 Red. masses --      1.0878                 1.1003                 1.1086
 Frc consts  --      6.0516                 6.1295                 6.1802
 IR Inten    --      1.6613                 0.6128                25.3985

                     58                     59                     60
                      A                      A                      A
 Frequencies --   3080.6778              3081.8364              3110.1763
 Red. masses --      1.0998                 1.1002                 1.0965
 Frc consts  --      6.1496                 6.1566                 6.2490
 IR Inten    --     32.6488                50.0293                 9.8580

                     61                     62                     63
                      A                      A                      A
 Frequencies --   3118.7905              3122.3606              3152.2306
 Red. masses --      1.0974                 1.0933                 1.0910
 Frc consts  --      6.2890                 6.2798                 6.3870
 IR Inten    --     32.9397                64.6205                23.0349

 - Thermochemistry -
 -------------------
 Temperature   298.150 Kelvin.  Pressure   1.00000 Atm.
 Atom     1 has atomic number  6 and mass  12.00000

 Molecular mass:   122.10955 amu.
 Principal axes and moments of inertia in atomic units:
                           1         2         3
     Eigenvalues --   664.344031116.269631522.93033
           X            0.99985  -0.01711  -0.00000
           Y            0.01711   0.99985  -0.00001
           Z            0.00000   0.00001   1.00000
 This molecule is an asymmetric top.
 Rotational symmetry number  1.
 Warning -- assumption of classical behavior for rotation
           may cause significant error
 Rotational temperatures (Kelvin)      0.13038     0.07759     0.05687
 Rotational constants (GHZ):           2.71658     1.61676     1.18505
 Zero-point vibrational energy     536645.5 (Joules/Mol)
                                  128.26136 (Kcal/Mol)
 Warning -- explicit consideration of  12 degrees of freedom as
           vibrations may cause significant error
 Vibrational temperatures:    159.85   236.50   250.31   309.00   351.71
          (Kelvin)            441.88   445.77   486.36   541.38   663.89
                              739.39   869.04   944.19  1042.98  1166.55
                             1187.85  1234.04  1236.43  1281.63  1353.91
                             1377.83  1384.59  1411.62  1452.64  1465.51
                             1504.70  1529.48  1600.04  1643.36  1651.94
                             1663.96  1684.55  1692.23  1751.76  1757.16
                             1778.32  1857.20  1889.01  1937.15  2013.25
                             2030.65  2048.18  2125.32  2133.08  2141.36
                             2151.46  2168.61  2171.79  2176.39  4347.56
                             4348.95  4355.41  4358.85  4413.41  4421.08
                             4424.16  4425.70  4432.41  4434.08  4474.85
                             4487.24  4492.38  4535.36

 Zero-point correction=                           0.204397 (Hartree/Particle)
 Thermal correction to Energy=                    0.213471
 Thermal correction to Enthalpy=                  0.214415
 Thermal correction to Gibbs Free Energy=         0.171424
 Sum of electronic and zero-point Energies=           -351.092463
 Sum of electronic and thermal Energies=              -351.083390
 Sum of electronic and thermal Enthalpies=            -351.082445
 Sum of electronic and thermal Free Energies=         -351.125437

                     E (Thermal)             CV                S
                      KCal/Mol        Cal/Mol-Kelvin    Cal/Mol-Kelvin
 Total                  133.955             36.162             90.483
 Electronic               0.000              0.000              0.000
 Translational            0.889              2.981             40.313
 Rotational               0.889              2.981             28.514
 Vibrational            132.178             30.200             21.655
 Vibration     1          0.607              1.940              3.250
 Vibration     2          0.623              1.886              2.499
 Vibration     3          0.627              1.874              2.392
 Vibration     4          0.645              1.818              2.003
 Vibration     5          0.660              1.772              1.770
 Vibration     6          0.697              1.660              1.378
 Vibration     7          0.699              1.655              1.363
 Vibration     8          0.718              1.600              1.221
 Vibration     9          0.747              1.521              1.054
 Vibration    10          0.819              1.336              0.762
 Vibration    11          0.869              1.219              0.624
 Vibration    12          0.962              1.023              0.443

 Optimization completed.
    -- Stationary point found.
 Normal termination of Gaussian 16 at Sun May 28 21:43:46 2023.
