 Gaussian 16, Revision A.03,
 Gaussian 16:  ES64L-G16RevA.03 25-Dec-2016

 -----------------------------
 # opt freq b3lyp/6-31g(2df,p)
 -----------------------------

 -------------------
 Title Card Required
 -------------------
 Symbolic Z-matrix:
 Charge =  0 Multiplicity = 1

 SCF Done:  E(RB3LYP) =  -273.875927549     A.U. after   12 cycles
 SCF Done:  E(RB3LYP) =  -273.898022353     A.U. after   10 cycles
 SCF Done:  E(RB3LYP) =  -273.903077094     A.U. after   11 cycles
 SCF Done:  E(RB3LYP) =  -273.904164158     A.U. after   10 cycles
 SCF Done:  E(RB3LYP) =  -273.904416348     A.U. after   10 cycles
 SCF Done:  E(RB3LYP) =  -273.904702493     A.U. after    9 cycles
 SCF Done:  E(RB3LYP) =  -273.904718607     A.U. after    8 cycles
 SCF Done:  E(RB3LYP) =  -273.904723252     A.U. after    8 cycles
 SCF Done:  E(RB3LYP) =  -273.904727471     A.U. after    8 cycles
 SCF Done:  E(RB3LYP) =  -273.904729240     A.U. after    7 cycles
 SCF Done:  E(RB3LYP) =  -273.904729351     A.U. after    6 cycles
 Optimization completed.
    -- Stationary point found.
 Normal termination of Gaussian 16 at Sun May 28 10:03:32 2023.

 ----------------------------------------------------------------------
 #N Geom=AllCheck Guess=TCheck SCRF=Check GenChk RB3LYP/6-31G(2df,p) Fr
 eq
 ----------------------------------------------------------------------

 Structure from the checkpoint file:  "CC1qCrC2CC1C2.chk"
 -------------------
 Title Card Required
 -------------------
 Charge =  0 Multiplicity = 1

                         Standard orientation:
 ---------------------------------------------------------------------
 Center     Atomic      Atomic             Coordinates (Angstroms)
 Number     Number       Type             X           Y           Z
 ---------------------------------------------------------------------
      1          6           0       -1.502834    1.231363   -0.000002
      2          6           0       -0.587970    0.000010   -0.000070
      3          6           0       -1.502885   -1.231319   -0.000022
      4          6           0        0.680351   -0.000042   -0.940089
      5          6           0        1.326753   -1.061097    0.000080
      6          6           0        0.680240    0.000031    0.940067
      7          6           0        1.326803    1.061053   -0.000008
      8          1           0       -2.155939    1.214351   -0.880327
      9          1           0       -0.981190    2.188214   -0.000114
     10          1           0       -2.155636    1.214349    0.880552
     11          1           0       -2.156173   -1.214091   -0.880213
     12          1           0       -2.155512   -1.214504    0.880668
     13          1           0       -0.981299   -2.188202   -0.000469
     14          1           0        0.685703   -0.000085   -2.032676
     15          1           0        2.419475   -1.084289    0.000128
     16          1           0        0.926419   -2.073082    0.000107
     17          1           0        0.685365    0.000100    2.032659
     18          1           0        2.419528    1.084194    0.000044
     19          1           0        0.926508    2.073054   -0.000098
 ---------------------------------------------------------------------

 SCF Done:  E(RB3LYP) =  -273.904729351     A.U. after    1 cycles

 The electronic state is 1-A.
 Alpha  occ. eigenvalues --  -10.19577 -10.19326 -10.19324 -10.17849 -10.17849
 Alpha  occ. eigenvalues --  -10.16642 -10.16642  -0.90315  -0.75327  -0.68712
 Alpha  occ. eigenvalues --   -0.64113  -0.61695  -0.60477  -0.49474  -0.48764
 Alpha  occ. eigenvalues --   -0.46764  -0.42706  -0.42517  -0.38247  -0.37366
 Alpha  occ. eigenvalues --   -0.36139  -0.34144  -0.31548  -0.30650  -0.30369
 Alpha  occ. eigenvalues --   -0.29330  -0.28092
 Alpha virt. eigenvalues --    0.09392   0.11983   0.12362   0.13276   0.13976
 Alpha virt. eigenvalues --    0.14872   0.15279   0.15719   0.17531   0.18046
 Alpha virt. eigenvalues --    0.18802   0.19165   0.21685   0.21805   0.22065

 Mulliken charges:
               1
     1  C   -0.467715
     2  C    0.386464
     3  C   -0.467721
     4  C   -0.071978
     5  C   -0.229805
     6  C   -0.071937
     7  C   -0.229805
     8  H    0.112538
     9  H    0.113763
    10  H    0.112543
    11  H    0.112538
    12  H    0.112544
    13  H    0.113765
    14  H    0.060957
    15  H    0.086305
    16  H    0.090144
    17  H    0.060952
    18  H    0.086307
    19  H    0.090143
 Sum of Mulliken charges =   0.00000

 Dipole moment (field-independent basis, Debye):
    X=             -0.1121    Y=             -0.0000    Z=              0.0000  Tot=              0.1121
 Quadrupole moment (field-independent basis, Debye-Ang):
   XX=            -45.0415   YY=            -45.0572   ZZ=            -44.7763
   XY=              0.0001   XZ=             -0.0002   YZ=             -0.0000

  Exact polarizability:  79.449   0.000  71.547  -0.000  -0.000  63.487
 Approx polarizability: 107.321   0.000 102.484  -0.001   0.000  99.956

                      1                      2                      3
                      A                      A                      A
 Frequencies --    106.5528               197.8013               207.4282
 Red. masses --      1.0275                 1.0521                 2.3979
 Frc consts  --      0.0069                 0.0243                 0.0608
 IR Inten    --      0.0000                 0.0529                 0.0000

                      4                      5                      6
                      A                      A                      A
 Frequencies --    370.4101               395.5762               428.4251
 Red. masses --      2.1069                 2.9433                 2.3075
 Frc consts  --      0.1703                 0.2714                 0.2495
 IR Inten    --      0.2913                 0.0447                 0.1258

                      7                      8                      9
                      A                      A                      A
 Frequencies --    530.7822               585.9945               664.5476
 Red. masses --      2.6697                 2.2940                 2.5272
 Frc consts  --      0.4431                 0.4641                 0.6576
 IR Inten    --      0.8640                 0.7853                 0.5012

                     10                     11                     12
                      A                      A                      A
 Frequencies --    738.5341               795.7565               849.2089
 Red. masses --      2.6581                 2.8185                 2.2430
 Frc consts  --      0.8542                 1.0515                 0.9530
 IR Inten    --      0.4152                 0.0000                 0.7133

                     13                     14                     15
                      A                      A                      A
 Frequencies --    895.4851               897.4021               945.0859
 Red. masses --      2.9030                 1.9857                 1.4919
 Frc consts  --      1.3716                 0.9422                 0.7851
 IR Inten    --      0.0992                 0.3638                 0.0048

                     16                     17                     18
                      A                      A                      A
 Frequencies --    955.8098               999.9962              1005.7434
 Red. masses --      2.0168                 1.0718                 1.1701
 Frc consts  --      1.0856                 0.6315                 0.6973
 IR Inten    --      0.3746                 0.0000                 0.0000

                     19                     20                     21
                      A                      A                      A
 Frequencies --   1015.1454              1023.7524              1085.4430
 Red. masses --      1.2909                 1.0421                 2.0992
 Frc consts  --      0.7838                 0.6435                 1.4572
 IR Inten    --      0.7301                 2.3510                 2.3280

                     22                     23                     24
                      A                      A                      A
 Frequencies --   1097.8984              1110.6690              1152.1412
 Red. masses --      1.4144                 1.9487                 1.5811
 Frc consts  --      1.0045                 1.4163                 1.2366
 IR Inten    --      0.0000                 0.0254                 2.2746

                     25                     26                     27
                      A                      A                      A
 Frequencies --   1188.7706              1189.9410              1206.8336
 Red. masses --      1.5878                 1.3828                 2.9439
 Frc consts  --      1.3220                 1.1536                 2.5262
 IR Inten    --      0.1120                 0.0000                 5.8504

                     28                     29                     30
                      A                      A                      A
 Frequencies --   1221.5362              1242.1815              1252.8860
 Red. masses --      1.9046                 1.7059                 1.9483
 Frc consts  --      1.6744                 1.5508                 1.8019
 IR Inten    --      4.0860                11.5848                 3.4262

                     31                     32                     33
                      A                      A                      A
 Frequencies --   1304.1844              1405.0280              1424.5192
 Red. masses --      2.5489                 1.2537                 1.2118
 Frc consts  --      2.5544                 1.4582                 1.4488
 IR Inten    --      9.1540                 5.9780                 3.0933

                     34                     35                     36
                      A                      A                      A
 Frequencies --   1478.4514              1483.3092              1506.1622
 Red. masses --      1.0615                 1.0435                 1.0812
 Frc consts  --      1.3670                 1.3527                 1.4451
 IR Inten    --      3.1165                 0.0000                 0.4989

                     37                     38                     39
                      A                      A                      A
 Frequencies --   1511.0058              1524.7187              1558.1432
 Red. masses --      1.0484                 1.0802                 1.1138
 Frc consts  --      1.4103                 1.4796                 1.5932
 IR Inten    --      9.7507                 1.6414                 2.0606

                     40                     41                     42
                      A                      A                      A
 Frequencies --   3027.3168              3034.0944              3066.5391
 Red. masses --      1.0415                 1.0416                 1.0633
 Frc consts  --      5.6239                 5.6495                 5.8911
 IR Inten    --      9.1934                58.7411                29.6014

                     43                     44                     45
                      A                      A                      A
 Frequencies --   3066.7108              3077.1796              3078.0400
 Red. masses --      1.0646                 1.1001                 1.0893
 Frc consts  --      5.8991                 6.1376                 6.0808
 IR Inten    --     28.8272                 0.0000               122.7993

                     46                     47                     48
                      A                      A                      A
 Frequencies --   3083.9943              3090.1573              3128.3715
 Red. masses --      1.0993                 1.0883                 1.1005
 Frc consts  --      6.1603                 6.1232                 6.3456
 IR Inten    --     55.8229                23.0804                 0.5446

                     49                     50                     51
                      A                      A                      A
 Frequencies --   3131.8768              3152.6731              3153.4790
 Red. masses --      1.0999                 1.0952                 1.0957
 Frc consts  --      6.3565                 6.4134                 6.4197
 IR Inten    --     49.3973                89.9417                 3.7510

 - Thermochemistry -
 -------------------
 Temperature   298.150 Kelvin.  Pressure   1.00000 Atm.
 Atom     1 has atomic number  6 and mass  12.00000

 Molecular mass:    96.09390 amu.
 Principal axes and moments of inertia in atomic units:
                           1         2         3
     Eigenvalues --   438.17290 640.86724 845.75675
           X            1.00000   0.00000  -0.00000
           Y           -0.00000   1.00000  -0.00000
           Z            0.00000   0.00000   1.00000
 This molecule is an asymmetric top.
 Rotational symmetry number  1.
 Warning -- assumption of classical behavior for rotation
           may cause significant error
 Rotational temperatures (Kelvin)      0.19767     0.13515     0.10241
 Rotational constants (GHZ):           4.11879     2.81609     2.13388
 Zero-point vibrational energy     452449.8 (Joules/Mol)
                                  108.13809 (Kcal/Mol)
 Warning -- explicit consideration of   8 degrees of freedom as
           vibrations may cause significant error
 Vibrational temperatures:    153.31   284.59   298.44   532.94   569.15
          (Kelvin)            616.41   763.68   843.12   956.14  1062.59
                             1144.92  1221.82  1288.40  1291.16  1359.77
                             1375.20  1438.77  1447.04  1460.57  1472.95
                             1561.71  1579.63  1598.00  1657.67  1710.38
                             1712.06  1736.36  1757.52  1787.22  1802.62
                             1876.43  2021.52  2049.57  2127.16  2134.15
                             2167.03  2174.00  2193.73  2241.82  4355.63
                             4365.39  4412.07  4412.31  4427.38  4428.61
                             4437.18  4446.05  4501.03  4506.07  4535.99
                             4537.15

 Zero-point correction=                           0.172329 (Hartree/Particle)
 Thermal correction to Energy=                    0.179257
 Thermal correction to Enthalpy=                  0.180201
 Thermal correction to Gibbs Free Energy=         0.141924
 Sum of electronic and zero-point Energies=           -273.732400
 Sum of electronic and thermal Energies=              -273.725472
 Sum of electronic and thermal Enthalpies=            -273.724528
 Sum of electronic and thermal Free Energies=         -273.762805

                     E (Thermal)             CV                S
                      KCal/Mol        Cal/Mol-Kelvin    Cal/Mol-Kelvin
 Total                  112.486             27.505             80.562
 Electronic               0.000              0.000              0.000
 Translational            0.889              2.981             39.599
 Rotational               0.889              2.981             26.965
 Vibrational            110.708             21.543             13.997
 Vibration     1          0.605              1.944              3.331
 Vibration     2          0.637              1.843              2.153
 Vibration     3          0.641              1.829              2.066
 Vibration     4          0.742              1.533              1.078
 Vibration     5          0.762              1.480              0.979
 Vibration     6          0.790              1.408              0.864
 Vibration     7          0.886              1.182              0.585
 Vibration     8          0.943              1.062              0.474

 Optimization completed.
    -- Stationary point found.
 Normal termination of Gaussian 16 at Sun May 28 10:26:39 2023.
