 Gaussian 16, Revision A.03,
 Gaussian 16:  ES64L-G16RevA.03 25-Dec-2016

 -----------------------------
 # opt freq b3lyp/6-31g(2df,p)
 -----------------------------

 -------------------
 Title Card Required
 -------------------
 Symbolic Z-matrix:
 Charge =  0 Multiplicity = 1

 SCF Done:  E(RB3LYP) =  -275.206620399     A.U. after   12 cycles
 SCF Done:  E(RB3LYP) =  -275.208259830     A.U. after   10 cycles
 SCF Done:  E(RB3LYP) =  -275.208333378     A.U. after    8 cycles
 SCF Done:  E(RB3LYP) =  -275.208341836     A.U. after    7 cycles
 SCF Done:  E(RB3LYP) =  -275.208349319     A.U. after    8 cycles
 SCF Done:  E(RB3LYP) =  -275.208355937     A.U. after    8 cycles
 SCF Done:  E(RB3LYP) =  -275.208363305     A.U. after    8 cycles
 SCF Done:  E(RB3LYP) =  -275.208366635     A.U. after    8 cycles
 SCF Done:  E(RB3LYP) =  -275.208366884     A.U. after    6 cycles
 SCF Done:  E(RB3LYP) =  -275.208366912     A.U. after    5 cycles
 Optimization completed.
    -- Stationary point found.
 Normal termination of Gaussian 16 at Sun May 28 22:23:59 2023.

 ----------------------------------------------------------------------
 #N Geom=AllCheck Guess=TCheck SCRF=Check GenChk RB3LYP/6-31G(2df,p) Fr
 eq
 ----------------------------------------------------------------------

 Structure from the checkpoint file:  "CC1qCrCCCC1.chk"
 -------------------
 Title Card Required
 -------------------
 Charge =  0 Multiplicity = 1

                         Standard orientation:
 ---------------------------------------------------------------------
 Center     Atomic      Atomic             Coordinates (Angstroms)
 Number     Number       Type             X           Y           Z
 ---------------------------------------------------------------------
      1          6           0       -1.994027    0.000051   -0.776216
      2          6           0       -0.667246    0.000005   -0.009581
      3          6           0       -0.949203   -0.000082    1.504555
      4          6           0        0.235229   -1.196481   -0.395638
      5          6           0        1.672161   -0.779058   -0.007816
      6          6           0        1.672151    0.779070   -0.007700
      7          6           0        0.235241    1.196505   -0.395548
      8          1           0       -2.594864   -0.883427   -0.531573
      9          1           0       -1.825232    0.000100   -1.858795
     10          1           0       -2.594834    0.883527   -0.531492
     11          1           0       -1.527200   -0.884804    1.794100
     12          1           0       -1.527179    0.884611    1.794226
     13          1           0       -0.027898   -0.000139    2.095578
     14          1           0        0.171106   -1.353559   -1.479412
     15          1           0       -0.079641   -2.131161    0.080189
     16          1           0        2.410268   -1.191399   -0.701304
     17          1           0        1.933961   -1.162466    0.983017
     18          1           0        2.410302    1.191535   -0.701067
     19          1           0        1.933854    1.162328    0.983216
     20          1           0        0.171160    1.353628   -1.479320
     21          1           0       -0.079642    2.131169    0.080302
 ---------------------------------------------------------------------

 SCF Done:  E(RB3LYP) =  -275.208366912     A.U. after    1 cycles

 The electronic state is 1-A.
 Alpha  occ. eigenvalues --  -10.18392 -10.17128 -10.17110 -10.16819 -10.16818
 Alpha  occ. eigenvalues --  -10.16631 -10.16551  -0.83612  -0.74758  -0.69962
 Alpha  occ. eigenvalues --   -0.67775  -0.64105  -0.55859  -0.52279  -0.46636
 Alpha  occ. eigenvalues --   -0.45957  -0.43130  -0.42006  -0.39465  -0.38886
 Alpha  occ. eigenvalues --   -0.36850  -0.35515  -0.32815  -0.32723  -0.31165
 Alpha  occ. eigenvalues --   -0.30880  -0.30663  -0.29697
 Alpha virt. eigenvalues --    0.07191   0.10356   0.11543   0.13796   0.15003
 Alpha virt. eigenvalues --    0.15093   0.15726   0.16901   0.17948   0.18729
 Alpha virt. eigenvalues --    0.19579   0.19936   0.20728   0.21534   0.21866

 Mulliken charges:
               1
     1  C   -0.435448
     2  C    0.313038
     3  C   -0.414889
     4  C   -0.213703
     5  C   -0.207224
     6  C   -0.207228
     7  C   -0.213699
     8  H    0.107082
     9  H    0.105564
    10  H    0.107082
    11  H    0.107885
    12  H    0.107884
    13  H    0.111453
    14  H    0.087624
    15  H    0.086295
    16  H    0.094198
    17  H    0.097986
    18  H    0.094197
    19  H    0.097986
    20  H    0.087624
    21  H    0.086294
 Sum of Mulliken charges =  -0.00000

 Dipole moment (field-independent basis, Debye):
    X=              0.0501    Y=              0.0000    Z=              0.0004  Tot=              0.0501
 Quadrupole moment (field-independent basis, Debye-Ang):
   XX=            -46.9992   YY=            -46.5249   ZZ=            -46.1143
   XY=              0.0000   XZ=             -0.3131   YZ=             -0.0001

  Exact polarizability:  78.727  -0.000  70.846  -0.268   0.000  69.962
 Approx polarizability: 102.100   0.000 101.738  -0.668  -0.000 102.417

                      1                      2                      3
                      A                      A                      A
 Frequencies --     77.5574               175.5716               223.0663
 Red. masses --      1.5978                 2.2563                 1.0225
 Frc consts  --      0.0057                 0.0410                 0.0300
 IR Inten    --      0.0003                 0.0028                 0.0200

                      4                      5                      6
                      A                      A                      A
 Frequencies --    243.3047               293.8795               341.2860
 Red. masses --      1.2422                 1.6091                 2.2205
 Frc consts  --      0.0433                 0.0819                 0.1524
 IR Inten    --      0.0008                 0.0021                 0.0348

                      7                      8                      9
                      A                      A                      A
 Frequencies --    387.4687               404.4476               559.0873
 Red. masses --      2.1036                 1.9782                 3.0347
 Frc consts  --      0.1861                 0.1907                 0.5589
 IR Inten    --      0.0153                 0.0913                 0.5871

                     10                     11                     12
                      A                      A                      A
 Frequencies --    639.5716               713.5297               804.3009
 Red. masses --      2.7093                 1.6629                 1.6489
 Frc consts  --      0.6529                 0.4988                 0.6285
 IR Inten    --      0.1222                 1.0570                 0.0175

                     13                     14                     15
                      A                      A                      A
 Frequencies --    810.8797               889.8174               904.3117
 Red. masses --      1.8314                 2.7870                 1.8912
 Frc consts  --      0.7095                 1.3002                 0.9112
 IR Inten    --      0.3357                 0.1817                 0.0446

                     16                     17                     18
                      A                      A                      A
 Frequencies --    925.0007               949.8032               967.0211
 Red. masses --      2.0570                 1.3858                 1.8514
 Frc consts  --      1.0370                 0.7366                 1.0200
 IR Inten    --      0.6571                 0.2636                 0.3956

                     19                     20                     21
                      A                      A                      A
 Frequencies --    978.7248              1002.6011              1049.8333
 Red. masses --      1.4974                 1.5424                 2.3564
 Frc consts  --      0.8451                 0.9135                 1.5302
 IR Inten    --      0.4707                 1.1023                 0.0015

                     22                     23                     24
                      A                      A                      A
 Frequencies --   1078.8306              1079.0561              1182.7483
 Red. masses --      1.3327                 1.5443                 1.3941
 Frc consts  --      0.9139                 1.0594                 1.1490
 IR Inten    --      0.8095                 0.1538                 1.3145

                     25                     26                     27
                      A                      A                      A
 Frequencies --   1193.6711              1247.3543              1251.6340
 Red. masses --      1.8098                 1.4191                 1.8700
 Frc consts  --      1.5193                 1.3009                 1.7261
 IR Inten    --      1.6210                 1.0970                 3.8455

                     28                     29                     30
                      A                      A                      A
 Frequencies --   1268.8950              1282.3303              1313.6310
 Red. masses --      1.4234                 1.8422                 1.2991
 Frc consts  --      1.3503                 1.7848                 1.3208
 IR Inten    --      0.0199                 2.4187                 0.4023

                     31                     32                     33
                      A                      A                      A
 Frequencies --   1337.3518              1338.9482              1360.7573
 Red. masses --      1.3892                 1.4198                 1.5989
 Frc consts  --      1.4639                 1.4997                 1.7443
 IR Inten    --      0.8113                 0.5145                 0.0819

                     34                     35                     36
                      A                      A                      A
 Frequencies --   1400.5990              1421.8829              1482.4938
 Red. masses --      1.2630                 1.2280                 1.0644
 Frc consts  --      1.4598                 1.4627                 1.3783
 IR Inten    --      4.9512                 2.1664                 0.0978

                     37                     38                     39
                      A                      A                      A
 Frequencies --   1482.9114              1483.7752              1495.2210
 Red. masses --      1.0490                 1.0809                 1.0731
 Frc consts  --      1.3591                 1.4021                 1.4135
 IR Inten    --      0.0277                 0.3260                 3.6967

                     40                     41                     42
                      A                      A                      A
 Frequencies --   1501.6534              1507.0839              1509.9436
 Red. masses --      1.0668                 1.0655                 1.0596
 Frc consts  --      1.4174                 1.4259                 1.4234
 IR Inten    --      4.7048                 1.9947                 3.5015

                     43                     44                     45
                      A                      A                      A
 Frequencies --   1520.2906              3018.2525              3022.5769
 Red. masses --      1.1017                 1.0363                 1.0632
 Frc consts  --      1.5003                 5.5621                 5.7232
 IR Inten    --      1.1499                16.1591                27.2836

                     46                     47                     48
                      A                      A                      A
 Frequencies --   3024.1141              3031.5246              3044.9043
 Red. masses --      1.0437                 1.0534                 1.0642
 Frc consts  --      5.6239                 5.7039                 5.8135
 IR Inten    --     42.7789                35.1927                17.1754

                     49                     50                     51
                      A                      A                      A
 Frequencies --   3056.1037              3066.1929              3073.3541
 Red. masses --      1.0688                 1.0957                 1.0934
 Frc consts  --      5.8817                 6.0695                 6.0847
 IR Inten    --     32.8733                38.9147                11.0073

                     52                     53                     54
                      A                      A                      A
 Frequencies --   3081.2727              3084.0951              3089.1670
 Red. masses --      1.1049                 1.1014                 1.1013
 Frc consts  --      6.1804                 6.1725                 6.1923
 IR Inten    --      1.3440                 5.5158                19.9318

                     55                     56                     57
                      A                      A                      A
 Frequencies --   3091.2043              3097.7995              3103.0836
 Red. masses --      1.1007                 1.1012                 1.1035
 Frc consts  --      6.1970                 6.2264                 6.2603
 IR Inten    --     60.6774                70.4651                63.2828

 - Thermochemistry -
 -------------------
 Temperature   298.150 Kelvin.  Pressure   1.00000 Atm.
 Atom     1 has atomic number  6 and mass  12.00000

 Molecular mass:    98.10955 amu.
 Principal axes and moments of inertia in atomic units:
                           1         2         3
     Eigenvalues --   467.75827 834.62386 870.44745
           X            0.99999  -0.00000   0.00448
           Y            0.00000   1.00000  -0.00001
           Z           -0.00448   0.00001   0.99999
 This molecule is an asymmetric top.
 Rotational symmetry number  1.
 Warning -- assumption of classical behavior for rotation
           may cause significant error
 Rotational temperatures (Kelvin)      0.18517     0.10378     0.09951
 Rotational constants (GHZ):           3.85828     2.16234     2.07335
 Zero-point vibrational energy     514189.5 (Joules/Mol)
                                  122.89424 (Kcal/Mol)
 Warning -- explicit consideration of   9 degrees of freedom as
           vibrations may cause significant error
 Vibrational temperatures:    111.59   252.61   320.94   350.06   422.83
          (Kelvin)            491.03   557.48   581.91   804.40   920.20
                             1026.61  1157.21  1166.68  1280.25  1301.10
                             1330.87  1366.55  1391.33  1408.17  1442.52
                             1510.48  1552.20  1552.52  1701.71  1717.43
                             1794.66  1800.82  1825.66  1844.99  1890.02
                             1924.15  1926.45  1957.83  2015.15  2045.77
                             2132.98  2133.58  2134.82  2151.29  2160.54
                             2168.36  2172.47  2187.36  4342.59  4348.81
                             4351.03  4361.69  4380.94  4397.05  4411.57
                             4421.87  4433.26  4437.33  4444.62  4447.55
                             4457.04  4464.65

 Zero-point correction=                           0.195844 (Hartree/Particle)
 Thermal correction to Energy=                    0.203671
 Thermal correction to Enthalpy=                  0.204616
 Thermal correction to Gibbs Free Energy=         0.164365
 Sum of electronic and zero-point Energies=           -275.012522
 Sum of electronic and thermal Energies=              -275.004695
 Sum of electronic and thermal Enthalpies=            -275.003751
 Sum of electronic and thermal Free Energies=         -275.044002

                     E (Thermal)             CV                S
                      KCal/Mol        Cal/Mol-Kelvin    Cal/Mol-Kelvin
 Total                  127.806             30.216             84.716
 Electronic               0.000              0.000              0.000
 Translational            0.889              2.981             39.661
 Rotational               0.889              2.981             27.321
 Vibrational            126.028             24.254             17.733
 Vibration     1          0.599              1.964              3.952
 Vibration     2          0.628              1.872              2.375
 Vibration     3          0.649              1.806              1.934
 Vibration     4          0.659              1.774              1.779
 Vibration     5          0.689              1.685              1.452
 Vibration     6          0.721              1.593              1.206
 Vibration     7          0.756              1.497              1.010
 Vibration     8          0.770              1.461              0.946
 Vibration     9          0.915              1.120              0.526

 Optimization completed.
    -- Stationary point found.
 Normal termination of Gaussian 16 at Sun May 28 22:47:21 2023.
