 Gaussian 16, Revision A.03,
 Gaussian 16:  ES64L-G16RevA.03 25-Dec-2016

 -----------------------------
 # opt freq b3lyp/6-31g(2df,p)
 -----------------------------

 -------------------
 Title Card Required
 -------------------
 Symbolic Z-matrix:
 Charge =  0 Multiplicity = 1

 SCF Done:  E(RB3LYP) =  -311.674746703     A.U. after   14 cycles
 SCF Done:  E(RB3LYP) =  -311.735179767     A.U. after   12 cycles
 SCF Done:  E(RB3LYP) =  -311.806512746     A.U. after   12 cycles
 SCF Done:  E(RB3LYP) =  -311.814822706     A.U. after   11 cycles
 SCF Done:  E(RB3LYP) =  -311.815471875     A.U. after    7 cycles
 SCF Done:  E(RB3LYP) =  -311.828069076     A.U. after   11 cycles
 SCF Done:  E(RB3LYP) =  -311.831509571     A.U. after    9 cycles
 SCF Done:  E(RB3LYP) =  -311.834026774     A.U. after   11 cycles
 SCF Done:  E(RB3LYP) =  -311.833116390     A.U. after   11 cycles
 SCF Done:  E(RB3LYP) =  -311.859152094     A.U. after   11 cycles
 SCF Done:  E(RB3LYP) =  -311.972440258     A.U. after   10 cycles
 SCF Done:  E(RB3LYP) =  -311.974477332     A.U. after   10 cycles
 SCF Done:  E(RB3LYP) =  -311.975563813     A.U. after   10 cycles
 SCF Done:  E(RB3LYP) =  -311.976084369     A.U. after   10 cycles
 SCF Done:  E(RB3LYP) =  -311.976666833     A.U. after    9 cycles
 SCF Done:  E(RB3LYP) =  -311.976954783     A.U. after    9 cycles
 SCF Done:  E(RB3LYP) =  -311.977060240     A.U. after    9 cycles
 SCF Done:  E(RB3LYP) =  -311.977066179     A.U. after    7 cycles
 SCF Done:  E(RB3LYP) =  -311.977066877     A.U. after    6 cycles
 Optimization completed.
    -- Stationary point found.
 Normal termination of Gaussian 16 at Sun May 28 23:49:08 2023.

 ----------------------------------------------------------------------
 #N Geom=AllCheck Guess=TCheck SCRF=Check GenChk RB3LYP/6-31G(2df,p) Fr
 eq
 ----------------------------------------------------------------------

 Structure from the checkpoint file:  "CC1qCrC2C3CC2C31.chk"
 -------------------
 Title Card Required
 -------------------
 Charge =  0 Multiplicity = 1

                         Standard orientation:
 ---------------------------------------------------------------------
 Center     Atomic      Atomic             Coordinates (Angstroms)
 Number     Number       Type             X           Y           Z
 ---------------------------------------------------------------------
      1          6           0       -1.813413    1.256666   -0.000092
      2          6           0       -0.944670    0.000039    0.000018
      3          6           0       -1.813465   -1.256656    0.000099
      4          6           0        0.290574   -0.000081   -0.942770
      5          6           0        1.120067    0.943207    0.000060
      6          6           0        2.335977   -0.000041   -0.000059
      7          6           0        1.120010   -0.943145    0.000156
      8          6           0        0.290669   -0.000016    0.942722
      9          1           0       -2.463885    1.281256   -0.882476
     10          1           0       -1.218050    2.173791   -0.000335
     11          1           0       -2.463737    1.281543    0.882371
     12          1           0       -2.463461   -1.281651   -0.882610
     13          1           0       -2.464286   -1.281071    0.882216
     14          1           0       -1.218110   -2.173770    0.000661
     15          1           0        0.320892   -0.000183   -2.035461
     16          1           0        1.107353    2.033270    0.000203
     17          1           0        2.960471   -0.000010    0.899606
     18          1           0        2.960255   -0.000129   -0.899848
     19          1           0        1.107276   -2.033200   -0.000559
     20          1           0        0.320790    0.000309    2.035431
 ---------------------------------------------------------------------

 SCF Done:  E(RB3LYP) =  -311.977066877     A.U. after    1 cycles

 The electronic state is 1-A.
 Alpha  occ. eigenvalues --  -10.19208 -10.19204 -10.18975 -10.18972 -10.18909
 Alpha  occ. eigenvalues --  -10.17608 -10.16614 -10.16613  -0.93239  -0.77784
 Alpha  occ. eigenvalues --   -0.68253  -0.68193  -0.62554  -0.61877  -0.55452
 Alpha  occ. eigenvalues --   -0.49873  -0.48704  -0.45418  -0.44166  -0.41562
 Alpha  occ. eigenvalues --   -0.40294  -0.38680  -0.37566  -0.35277  -0.31451
 Alpha  occ. eigenvalues --   -0.29671  -0.29367  -0.28641  -0.28223  -0.28141
 Alpha virt. eigenvalues --    0.08915   0.11604   0.11731   0.12570   0.12952
 Alpha virt. eigenvalues --    0.13257   0.15195   0.16314   0.17851   0.18333
 Alpha virt. eigenvalues --    0.18584   0.19245   0.20052   0.20247   0.20586

 Mulliken charges:
               1
     1  C   -0.457150
     2  C    0.328112
     3  C   -0.457152
     4  C   -0.068511
     5  C   -0.047397
     6  C   -0.279823
     7  C   -0.047365
     8  C   -0.068509
     9  H    0.110132
    10  H    0.111656
    11  H    0.110130
    12  H    0.110129
    13  H    0.110127
    14  H    0.111660
    15  H    0.059133
    16  H    0.069266
    17  H    0.088589
    18  H    0.088609
    19  H    0.069249
    20  H    0.059113
 Sum of Mulliken charges =  -0.00000

 Dipole moment (field-independent basis, Debye):
    X=             -0.0931    Y=              0.0001    Z=             -0.0003  Tot=              0.0931
 Quadrupole moment (field-independent basis, Debye-Ang):
   XX=            -50.7520   YY=            -50.0533   ZZ=            -49.2592
   XY=             -0.0002   XZ=             -0.0006   YZ=              0.0017

  Exact polarizability:  91.724   0.001  74.435   0.001   0.004  71.003
 Approx polarizability: 119.386   0.003 112.159   0.006   0.007 113.667

                      1                      2                      3
                      A                      A                      A
 Frequencies --    195.7512               224.2402               237.7016
 Red. masses --      1.0361                 1.0982                 2.3046
 Frc consts  --      0.0234                 0.0325                 0.0767
 IR Inten    --      0.0000                 0.1062                 0.0000

                      4                      5                      6
                      A                      A                      A
 Frequencies --    243.4484               308.8791               359.0188
 Red. masses --      2.9943                 2.0109                 2.3445
 Frc consts  --      0.1046                 0.1130                 0.1780
 IR Inten    --      0.0472                 0.4385                 0.0121

                      7                      8                      9
                      A                      A                      A
 Frequencies --    455.5706               531.8976               605.6901
 Red. masses --      1.8698                 3.2123                 3.6233
 Frc consts  --      0.2286                 0.5355                 0.7832
 IR Inten    --      0.0395                 2.0226                 0.0005

                     10                     11                     12
                      A                      A                      A
 Frequencies --    744.6907               815.4919               825.6778
 Red. masses --      3.5325                 2.4814                 2.0044
 Frc consts  --      1.1542                 0.9723                 0.8051
 IR Inten    --      0.0000                 0.2773                 0.8336

                     13                     14                     15
                      A                      A                      A
 Frequencies --    851.0621               853.7903               886.7071
 Red. masses --      1.9894                 2.1219                 2.0878
 Frc consts  --      0.8490                 0.9113                 0.9672
 IR Inten    --      0.8057                 0.1650                 1.2733

                     16                     17                     18
                      A                      A                      A
 Frequencies --    919.7058               949.0714               959.6916
 Red. masses --      2.3573                 1.4326                 1.8737
 Frc consts  --      1.1748                 0.7603                 1.0168
 IR Inten    --      0.0205                 0.0006                 0.0005

                     19                     20                     21
                      A                      A                      A
 Frequencies --    961.2505              1004.2891              1008.3061
 Red. masses --      1.0700                 3.4006                 1.2363
 Frc consts  --      0.5825                 2.0208                 0.7406
 IR Inten    --      0.0000                 0.9882                 0.0000

                     22                     23                     24
                      A                      A                      A
 Frequencies --   1027.0044              1072.0895              1100.9376
 Red. masses --      1.2990                 1.2365                 3.0520
 Frc consts  --      0.8072                 0.8374                 2.1795
 IR Inten    --      0.0010                 0.0000                 2.5470

                     25                     26                     27
                      A                      A                      A
 Frequencies --   1143.4857              1154.7012              1154.8195
 Red. masses --      1.6416                 1.9162                 1.3911
 Frc consts  --      1.2647                 1.5053                 1.0930
 IR Inten    --      0.2267                 1.5143                 0.0337

                     28                     29                     30
                      A                      A                      A
 Frequencies --   1155.9528              1177.6525              1206.8569
 Red. masses --      1.5310                 1.5981                 1.8301
 Frc consts  --      1.2053                 1.3058                 1.5705
 IR Inten    --      0.8429                 2.7075                14.9488

                     31                     32                     33
                      A                      A                      A
 Frequencies --   1222.6717              1235.5665              1251.5007
 Red. masses --      2.2275                 2.3878                 1.9912
 Frc consts  --      1.9620                 2.1478                 1.8375
 IR Inten    --      5.4673                 2.8893                25.0868

                     34                     35                     36
                      A                      A                      A
 Frequencies --   1315.2094              1339.7535              1403.9765
 Red. masses --      1.9775                 2.7022                 1.2750
 Frc consts  --      2.0153                 2.8577                 1.4807
 IR Inten    --      0.0010                 3.0112                 9.1129

                     37                     38                     39
                      A                      A                      A
 Frequencies --   1421.6871              1481.6700              1488.7179
 Red. masses --      1.2222                 1.0451                 1.0484
 Frc consts  --      1.4555                 1.3517                 1.3690
 IR Inten    --      1.7310                 0.0000                 3.7919

                     40                     41                     42
                      A                      A                      A
 Frequencies --   1505.0974              1507.5738              1511.3015
 Red. masses --      1.0505                 1.0713                 1.1351
 Frc consts  --      1.4021                 1.4345                 1.5275
 IR Inten    --      8.0845                 0.0613                 0.0994

                     43                     44                     45
                      A                      A                      A
 Frequencies --   3021.1712              3026.2954              3031.7668
 Red. masses --      1.0373                 1.0377                 1.0542
 Frc consts  --      5.5785                 5.5996                 5.7093
 IR Inten    --     18.1055                48.4240                67.9315

                     46                     47                     48
                      A                      A                      A
 Frequencies --   3074.4001              3076.5156              3076.9003
 Red. masses --      1.0893                 1.0862                 1.1006
 Frc consts  --      6.0664                 6.0575                 6.1389
 IR Inten    --    112.7363                 0.6973                 0.0004

                     49                     50                     51
                      A                      A                      A
 Frequencies --   3081.7981              3087.2281              3100.3594
 Red. masses --      1.0998                 1.1094                 1.0936
 Frc consts  --      6.1545                 6.2297                 6.1937
 IR Inten    --     51.0133                40.0827                25.3163

                     52                     53                     54
                      A                      A                      A
 Frequencies --   3106.2021              3111.1965              3115.1247
 Red. masses --      1.0982                 1.0946                 1.0955
 Frc consts  --      6.2430                 6.2425                 6.2635
 IR Inten    --     18.6963               101.2607                11.6663

 - Thermochemistry -
 -------------------
 Temperature   298.150 Kelvin.  Pressure   1.00000 Atm.
 Atom     1 has atomic number  6 and mass  12.00000

 Molecular mass:   108.09390 amu.
 Principal axes and moments of inertia in atomic units:
                           1         2         3
     Eigenvalues --   422.02580 962.032121137.99647
           X            1.00000  -0.00000  -0.00000
           Y            0.00000   1.00000   0.00003
           Z            0.00000  -0.00003   1.00000
 This molecule is an asymmetric top.
 Rotational symmetry number  1.
 Rotational temperatures (Kelvin)      0.20523     0.09003     0.07611
 Rotational constants (GHZ):           4.27638     1.87597     1.58589
 Zero-point vibrational energy     464923.4 (Joules/Mol)
                                  111.11935 (Kcal/Mol)
 Warning -- explicit consideration of   9 degrees of freedom as
           vibrations may cause significant error
 Vibrational temperatures:    281.64   322.63   342.00   350.27   444.41
          (Kelvin)            516.55   655.46   765.28   871.45  1071.44
                             1173.31  1187.97  1224.49  1228.41  1275.77
                             1323.25  1365.50  1380.78  1383.03  1444.95
                             1450.73  1477.63  1542.50  1584.00  1645.22
                             1661.36  1661.53  1663.16  1694.38  1736.40
                             1759.15  1777.70  1800.63  1892.29  1927.61
                             2020.01  2045.49  2131.79  2141.93  2165.50
                             2169.06  2174.43  4346.79  4354.16  4362.04
                             4423.38  4426.42  4426.97  4434.02  4441.83
                             4460.73  4469.13  4476.32  4481.97

 Zero-point correction=                           0.177080 (Hartree/Particle)
 Thermal correction to Energy=                    0.184365
 Thermal correction to Enthalpy=                  0.185309
 Thermal correction to Gibbs Free Energy=         0.146306
 Sum of electronic and zero-point Energies=           -311.799987
 Sum of electronic and thermal Energies=              -311.792702
 Sum of electronic and thermal Enthalpies=            -311.791757
 Sum of electronic and thermal Free Energies=         -311.830761

                     E (Thermal)             CV                S
                      KCal/Mol        Cal/Mol-Kelvin    Cal/Mol-Kelvin
 Total                  115.691             29.765             82.089
 Electronic               0.000              0.000              0.000
 Translational            0.889              2.981             39.950
 Rotational               0.889              2.981             27.626
 Vibrational            113.914             23.803             14.513
 Vibration     1          0.636              1.846              2.173
 Vibration     2          0.649              1.804              1.925
 Vibration     3          0.656              1.783              1.820
 Vibration     4          0.659              1.774              1.778
 Vibration     5          0.698              1.657              1.368
 Vibration     6          0.734              1.557              1.126
 Vibration     7          0.814              1.349              0.779
 Vibration     8          0.887              1.179              0.583
 Vibration     9          0.964              1.020              0.440

 Optimization completed.
    -- Stationary point found.
 Normal termination of Gaussian 16 at Mon May 29 00:18:25 2023.
