 Gaussian 16, Revision A.03,
 Gaussian 16:  ES64L-G16RevA.03 25-Dec-2016

 -----------------------------
 # opt freq b3lyp/6-31g(2df,p)
 -----------------------------

 -------------------
 Title Card Required
 -------------------
 Symbolic Z-matrix:
 Charge =  0 Multiplicity = 1

 SCF Done:  E(RB3LYP) =  -352.455680225     A.U. after   12 cycles
 SCF Done:  E(RB3LYP) =  -352.488031439     A.U. after   10 cycles
 SCF Done:  E(RB3LYP) =  -352.505619641     A.U. after   11 cycles
 SCF Done:  E(RB3LYP) =  -352.508434912     A.U. after   10 cycles
 SCF Done:  E(RB3LYP) =  -352.512514000     A.U. after   10 cycles
 SCF Done:  E(RB3LYP) =  -352.511180872     A.U. after   10 cycles
 SCF Done:  E(RB3LYP) =  -352.516426263     A.U. after   10 cycles
 SCF Done:  E(RB3LYP) =  -352.517540736     A.U. after   10 cycles
 SCF Done:  E(RB3LYP) =  -352.517767689     A.U. after    9 cycles
 SCF Done:  E(RB3LYP) =  -352.517827605     A.U. after    9 cycles
 SCF Done:  E(RB3LYP) =  -352.517860626     A.U. after    8 cycles
 SCF Done:  E(RB3LYP) =  -352.517862705     A.U. after    7 cycles
 SCF Done:  E(RB3LYP) =  -352.517863110     A.U. after    6 cycles
 Optimization completed.
    -- Stationary point found.
 Normal termination of Gaussian 16 at Sun May 28 23:34:51 2023.

 ----------------------------------------------------------------------
 #N Geom=AllCheck Guess=TCheck SCRF=Check GenChk RB3LYP/6-31G(2df,p) Fr
 eq
 ----------------------------------------------------------------------

 Structure from the checkpoint file:  "CC1qCrC2CC1C2qCrC.chk"
 -------------------
 Title Card Required
 -------------------
 Charge =  0 Multiplicity = 1

                         Standard orientation:
 ---------------------------------------------------------------------
 Center     Atomic      Atomic             Coordinates (Angstroms)
 Number     Number       Type             X           Y           Z
 ---------------------------------------------------------------------
      1          6           0       -1.442717    1.621911    0.146688
      2          6           0       -1.122310    0.118025    0.006899
      3          6           0       -2.503905   -0.564346   -0.087922
      4          6           0        0.008384   -0.485022   -0.939156
      5          6           0        0.000118   -1.729150   -0.000104
      6          6           0       -0.008365   -0.485116    0.939159
      7          6           0        1.122230    0.118172   -0.006829
      8          6           0        2.503854   -0.564391    0.087998
      9          6           0        1.442716    1.622030   -0.146673
     10          1           0       -1.552352    2.111268   -0.828068
     11          1           0       -0.719527    2.183726    0.732533
     12          1           0       -2.405137    1.728640    0.658386
     13          1           0       -3.126491   -0.003648   -0.794511
     14          1           0       -3.016833   -0.530527    0.880612
     15          1           0       -2.499740   -1.599261   -0.427315
     16          1           0        0.009606   -0.488584   -2.033715
     17          1           0        0.884827   -2.357837   -0.010483
     18          1           0       -0.884526   -2.357911    0.010294
     19          1           0       -0.009610   -0.488864    2.033715
     20          1           0        2.499555   -1.598870    0.428714
     21          1           0        3.127043   -0.002934    0.793446
     22          1           0        3.016023   -0.531914   -0.880958
     23          1           0        0.719460    2.183946   -0.732325
     24          1           0        2.404998    1.728572   -0.658654
     25          1           0        1.552683    2.111518    0.827976
 ---------------------------------------------------------------------

 SCF Done:  E(RB3LYP) =  -352.517863110     A.U. after    1 cycles

 The electronic state is 1-A.
 Alpha  occ. eigenvalues --  -10.19587 -10.19587 -10.19099 -10.19097 -10.17310
 Alpha  occ. eigenvalues --  -10.16561 -10.16561 -10.16491 -10.16491  -0.90001
 Alpha  occ. eigenvalues --   -0.76517  -0.73850  -0.68288  -0.66590  -0.62011
 Alpha  occ. eigenvalues --   -0.61534  -0.55935  -0.48736  -0.47803  -0.45863
 Alpha  occ. eigenvalues --   -0.44330  -0.42725  -0.41857  -0.39019  -0.38246
 Alpha  occ. eigenvalues --   -0.37230  -0.37064  -0.36197  -0.33817  -0.33201
 Alpha  occ. eigenvalues --   -0.30621  -0.29281  -0.28957  -0.27951  -0.27305
 Alpha virt. eigenvalues --    0.09574   0.11050   0.12003   0.12073   0.13035
 Alpha virt. eigenvalues --    0.14058   0.14890   0.14934   0.15466   0.15956
 Alpha virt. eigenvalues --    0.16928   0.16958   0.17414   0.18814   0.19147

 Mulliken charges:
               1
     1  C   -0.484968
     2  C    0.394137
     3  C   -0.470720
     4  C   -0.142930
     5  C   -0.246718
     6  C   -0.142956
     7  C    0.394166
     8  C   -0.470707
     9  C   -0.485017
    10  H    0.115461
    11  H    0.122409
    12  H    0.104747
    13  H    0.112143
    14  H    0.114165
    15  H    0.113510
    16  H    0.054781
    17  H    0.090640
    18  H    0.090622
    19  H    0.054786
    20  H    0.113528
    21  H    0.112129
    22  H    0.114168
    23  H    0.122405
    24  H    0.104759
    25  H    0.115459
 Sum of Mulliken charges =  -0.00000

 Dipole moment (field-independent basis, Debye):
    X=             -0.0000    Y=              0.1005    Z=             -0.0000  Tot=              0.1005
 Quadrupole moment (field-independent basis, Debye-Ang):
   XX=            -58.4744   YY=            -58.6263   ZZ=            -57.7741
   XY=              0.0001   XZ=              0.0229   YZ=             -0.0001

  Exact polarizability: 107.318  -0.000  93.686  -0.408   0.000  80.072
 Approx polarizability: 140.051  -0.001 133.941  -0.481   0.000 131.126

                      1                      2                      3
                      A                      A                      A
 Frequencies --    119.3600               166.9571               188.2229
 Red. masses --      1.6541                 1.0522                 2.4834
 Frc consts  --      0.0139                 0.0173                 0.0518
 IR Inten    --      0.0177                 0.0241                 0.0981

                      4                      5                      6
                      A                      A                      A
 Frequencies --    189.3722               225.0647               247.1907
 Red. masses --      1.4958                 1.0624                 1.2419
 Frc consts  --      0.0316                 0.0317                 0.0447
 IR Inten    --      0.0265                 0.4838                 0.0446

                      7                      8                      9
                      A                      A                      A
 Frequencies --    357.6284               365.7441               370.0729
 Red. masses --      1.9887                 2.8255                 2.3275
 Frc consts  --      0.1499                 0.2227                 0.1878
 IR Inten    --      0.0330                 0.0240                 0.3358

                     10                     11                     12
                      A                      A                      A
 Frequencies --    410.8605               465.1074               490.7071
 Red. masses --      2.0739                 2.6397                 2.3966
 Frc consts  --      0.2063                 0.3364                 0.3400
 IR Inten    --      0.0272                 0.0008                 0.6161

                     13                     14                     15
                      A                      A                      A
 Frequencies --    579.8634               582.4568               642.4673
 Red. masses --      2.6286                 2.7921                 3.3311
 Frc consts  --      0.5207                 0.5581                 0.8101
 IR Inten    --      1.2849                 0.2350                 0.0308

                     16                     17                     18
                      A                      A                      A
 Frequencies --    689.0981               730.1644               776.2371
 Red. masses --      2.6154                 2.6795                 2.8443
 Frc consts  --      0.7317                 0.8417                 1.0098
 IR Inten    --      1.4697                 0.0049                 0.9398

                     19                     20                     21
                      A                      A                      A
 Frequencies --    849.4875               885.9420               941.9226
 Red. masses --      2.1974                 2.2578                 1.7870
 Frc consts  --      0.9343                 1.0441                 0.9341
 IR Inten    --      0.0151                 0.0525                 0.0482

                     22                     23                     24
                      A                      A                      A
 Frequencies --    967.0427               968.5501               979.0816
 Red. masses --      1.6389                 1.9679                 1.3870
 Frc consts  --      0.9030                 1.0877                 0.7834
 IR Inten    --      0.4389                 0.0042                 0.0078

                     25                     26                     27
                      A                      A                      A
 Frequencies --   1003.3697              1004.7305              1009.5605
 Red. masses --      1.1941                 1.2399                 1.1166
 Frc consts  --      0.7083                 0.7374                 0.6705
 IR Inten    --      0.0030                 0.8150                 0.0031

                     28                     29                     30
                      A                      A                      A
 Frequencies --   1053.8301              1069.4736              1081.2030
 Red. masses --      1.2805                 3.1689                 1.4866
 Frc consts  --      0.8379                 2.1355                 1.0239
 IR Inten    --      1.3112                 0.4335                 2.3202

                     31                     32                     33
                      A                      A                      A
 Frequencies --   1130.2327              1138.0785              1168.2281
 Red. masses --      1.6257                 1.6601                 1.6129
 Frc consts  --      1.2236                 1.2669                 1.2969
 IR Inten    --      0.0076                20.3445                 0.1765

                     34                     35                     36
                      A                      A                      A
 Frequencies --   1172.0684              1196.0507              1201.3737
 Red. masses --      1.6150                 2.4999                 2.3531
 Frc consts  --      1.3072                 2.1071                 2.0010
 IR Inten    --      1.3453                 2.1581                 9.2409

                     37                     38                     39
                      A                      A                      A
 Frequencies --   1220.4629              1234.9164              1285.9382
 Red. masses --      1.8600                 2.5198                 2.9679
 Frc consts  --      1.6323                 2.2640                 2.8916
 IR Inten    --      4.3078                 6.6377                 6.2833

                     40                     41                     42
                      A                      A                      A
 Frequencies --   1290.1604              1404.4163              1407.7494
 Red. masses --      2.4346                 1.2130                 1.2205
 Frc consts  --      2.3876                 1.4096                 1.4251
 IR Inten    --      9.7747                 0.8594                 3.0896

                     43                     44                     45
                      A                      A                      A
 Frequencies --   1422.0727              1426.4156              1483.5136
 Red. masses --      1.1932                 1.1921                 1.0567
 Frc consts  --      1.4217                 1.4291                 1.3702
 IR Inten    --      1.8495                 1.1048                 0.8370

                     46                     47                     48
                      A                      A                      A
 Frequencies --   1485.7326              1493.2984              1495.9597
 Red. masses --      1.0489                 1.0516                 1.0580
 Frc consts  --      1.3641                 1.3817                 1.3950
 IR Inten    --      5.9786                 1.4528                 0.8396

                     49                     50                     51
                      A                      A                      A
 Frequencies --   1504.3342              1513.2496              1521.2193
 Red. masses --      1.0612                 1.0503                 1.0549
 Frc consts  --      1.4150                 1.4171                 1.4383
 IR Inten    --      0.0002                16.0658                 2.7910

                     52                     53                     54
                      A                      A                      A
 Frequencies --   1544.3780              1569.2112              3027.8273
 Red. masses --      1.0459                 1.0889                 1.0427
 Frc consts  --      1.4698                 1.5798                 5.6322
 IR Inten    --      1.4636                 2.3121                 8.6731

                     55                     56                     57
                      A                      A                      A
 Frequencies --   3028.1346              3035.0047              3035.1182
 Red. masses --      1.0427                 1.0441                 1.0434
 Frc consts  --      5.6330                 5.6663                 5.6629
 IR Inten    --     23.7007                29.6051                55.2421

                     58                     59                     60
                      A                      A                      A
 Frequencies --   3055.4281              3061.4245              3080.1085
 Red. masses --      1.0888                 1.0880                 1.0999
 Frc consts  --      5.9887                 6.0082                 6.1481
 IR Inten    --    131.1079                 0.3041                25.3954

                     61                     62                     63
                      A                      A                      A
 Frequencies --   3080.2456              3081.5641              3081.7230
 Red. masses --      1.1000                 1.0998                 1.0993
 Frc consts  --      6.1489                 6.1533                 6.1513
 IR Inten    --     18.4533                53.2204                 3.2804

                     64                     65                     66
                      A                      A                      A
 Frequencies --   3126.9949              3135.4082              3154.9890
 Red. masses --      1.0797                 1.0967                 1.0717
 Frc consts  --      6.2204                 6.3522                 6.2850
 IR Inten    --      0.4444                13.5677                88.4797

                     67                     68                     69
                      A                      A                      A
 Frequencies --   3157.8864              3170.9980              3187.9660
 Red. masses --      1.0943                 1.0922                 1.1047
 Frc consts  --      6.4295                 6.4707                 6.6146
 IR Inten    --     27.9060                 7.2821                32.2961

 - Thermochemistry -
 -------------------
 Temperature   298.150 Kelvin.  Pressure   1.00000 Atm.
 Atom     1 has atomic number  6 and mass  12.00000

 Molecular mass:   124.12520 amu.
 Principal axes and moments of inertia in atomic units:
                           1         2         3
     Eigenvalues --   683.471101204.086851625.08836
           X            1.00000  -0.00000   0.00031
           Y            0.00000   1.00000  -0.00000
           Z           -0.00031   0.00000   1.00000
 This molecule is an asymmetric top.
 Rotational symmetry number  1.
 Warning -- assumption of classical behavior for rotation
           may cause significant error
 Rotational temperatures (Kelvin)      0.12673     0.07193     0.05330
 Rotational constants (GHZ):           2.64055     1.49885     1.11055
 Zero-point vibrational energy     599452.6 (Joules/Mol)
                                  143.27261 (Kcal/Mol)
 Warning -- explicit consideration of  14 degrees of freedom as
           vibrations may cause significant error
 Vibrational temperatures:    171.73   240.21   270.81   272.46   323.82
          (Kelvin)            355.65   514.55   526.22   532.45   591.14
                              669.19   706.02   834.29   838.03   924.37
                              991.46  1050.54  1116.83  1222.22  1274.67
                             1355.22  1391.36  1393.53  1408.68  1443.63
                             1445.58  1452.53  1516.23  1538.73  1555.61
                             1626.15  1637.44  1680.82  1686.35  1720.85
                             1728.51  1755.97  1776.77  1850.18  1856.25
                             2020.64  2025.44  2046.05  2052.29  2134.45
                             2137.64  2148.52  2152.35  2164.40  2177.23
                             2188.70  2222.02  2257.74  4356.37  4356.81
                             4366.69  4366.86  4396.08  4404.71  4431.59
                             4431.79  4433.68  4433.91  4499.05  4511.15
                             4539.33  4543.49  4562.36  4586.77

 Zero-point correction=                           0.228319 (Hartree/Particle)
 Thermal correction to Energy=                    0.237959
 Thermal correction to Enthalpy=                  0.238903
 Thermal correction to Gibbs Free Energy=         0.194987
 Sum of electronic and zero-point Energies=           -352.289544
 Sum of electronic and thermal Energies=              -352.279904
 Sum of electronic and thermal Enthalpies=            -352.278960
 Sum of electronic and thermal Free Energies=         -352.322876

                     E (Thermal)             CV                S
                      KCal/Mol        Cal/Mol-Kelvin    Cal/Mol-Kelvin
 Total                  149.321             39.046             92.430
 Electronic               0.000              0.000              0.000
 Translational            0.889              2.981             40.362
 Rotational               0.889              2.981             28.682
 Vibrational            147.544             33.084             23.385
 Vibration     1          0.609              1.933              3.111
 Vibration     2          0.624              1.883              2.469
 Vibration     3          0.633              1.856              2.245
 Vibration     4          0.633              1.854              2.234
 Vibration     5          0.650              1.803              1.918
 Vibration     6          0.661              1.767              1.751
 Vibration     7          0.733              1.560              1.132
 Vibration     8          0.739              1.543              1.098
 Vibration     9          0.742              1.534              1.079
 Vibration    10          0.775              1.447              0.924
 Vibration    11          0.823              1.327              0.751
 Vibration    12          0.846              1.271              0.682
 Vibration    13          0.937              1.075              0.486
 Vibration    14          0.939              1.069              0.481

                           ! Non-Optimized Parameters !
 Normal termination of Gaussian 16 at Mon May 29 00:23:55 2023.
