 Gaussian 16, Revision A.03,
 Gaussian 16:  ES64L-G16RevA.03 25-Dec-2016

 -----------------------------
 # opt freq b3lyp/6-31g(2df,p)
 -----------------------------

 -------------------
 Title Card Required
 -------------------
 Symbolic Z-matrix:
 Charge =  0 Multiplicity = 1

 SCF Done:  E(RB3LYP) =  -465.862939442     A.U. after   13 cycles
 SCF Done:  E(RB3LYP) =  -465.869885167     A.U. after   11 cycles
 SCF Done:  E(RB3LYP) =  -465.871506608     A.U. after   11 cycles
 SCF Done:  E(RB3LYP) =  -465.872958040     A.U. after   11 cycles
 SCF Done:  E(RB3LYP) =  -465.873465760     A.U. after   11 cycles
 SCF Done:  E(RB3LYP) =  -465.874123588     A.U. after   11 cycles
 SCF Done:  E(RB3LYP) =  -465.873968139     A.U. after   10 cycles
 SCF Done:  E(RB3LYP) =  -465.874849364     A.U. after   11 cycles
 SCF Done:  E(RB3LYP) =  -465.873538616     A.U. after   12 cycles
 SCF Done:  E(RB3LYP) =  -465.875437219     A.U. after   12 cycles
 SCF Done:  E(RB3LYP) =  -465.873529260     A.U. after   14 cycles
 SCF Done:  E(RB3LYP) =  -465.876224751     A.U. after   11 cycles
 SCF Done:  E(RB3LYP) =  -465.876450971     A.U. after   11 cycles
 SCF Done:  E(RB3LYP) =  -465.876584773     A.U. after   10 cycles
 SCF Done:  E(RB3LYP) =  -465.876619264     A.U. after    9 cycles
 SCF Done:  E(RB3LYP) =  -465.876624854     A.U. after    9 cycles
 SCF Done:  E(RB3LYP) =  -465.876625854     A.U. after    7 cycles
 SCF Done:  E(RB3LYP) =  -465.876626083     A.U. after    7 cycles
 SCF Done:  E(RB3LYP) =  -465.876626110     A.U. after    7 cycles
 Optimization completed.
    -- Stationary point found.
 Normal termination of Gaussian 16 at Tue May 23 03:28:18 2023.

 ----------------------------------------------------------------------
 #N Geom=AllCheck Guess=TCheck SCRF=Check GenChk RB3LYP/6-31G(2df,p) Fr
 eq
 ----------------------------------------------------------------------

 Structure from the checkpoint file:  "CC1qCrCC1C1dCqCOrCC1.chk"
 -------------------
 Title Card Required
 -------------------
 Charge =  0 Multiplicity = 1

                         Standard orientation:
 ---------------------------------------------------------------------
 Center     Atomic      Atomic             Coordinates (Angstroms)
 Number     Number       Type             X           Y           Z
 ---------------------------------------------------------------------
      1          6           0        2.921450   -1.542181    0.224377
      2          6           0        2.166569   -0.231232    0.095219
      3          6           0        2.342702    0.690102    1.286678
      4          6           0        2.041044    0.368786   -1.276950
      5          6           0        0.827626   -0.302760   -0.645314
      6          6           0       -0.383237    0.450383   -0.293874
      7          6           0       -1.689188    0.112776   -0.246365
      8          6           0       -2.454677   -1.149355   -0.446802
      9          8           0       -3.222836   -1.510212    0.702892
     10          6           0       -2.164972    1.510292    0.107686
     11          6           0       -0.650722    1.912434    0.050764
     12          1           0        3.998307   -1.362818    0.329124
     13          1           0        2.774192   -2.180372   -0.652348
     14          1           0        2.592402   -2.103450    1.106927
     15          1           0        3.409218    0.854921    1.481078
     16          1           0        1.906715    0.255833    2.194090
     17          1           0        1.883472    1.667213    1.127554
     18          1           0        2.514214   -0.127326   -2.118211
     19          1           0        2.016235    1.451086   -1.354664
     20          1           0        0.607274   -1.294105   -1.033572
     21          1           0       -1.776902   -1.964617   -0.745584
     22          1           0       -3.191988   -1.031875   -1.250803
     23          1           0       -2.614589   -1.535471    1.449031
     24          1           0       -2.641505    1.625838    1.086653
     25          1           0       -2.796293    2.002003   -0.641314
     26          1           0       -0.239389    2.273154    0.998664
     27          1           0       -0.398247    2.636219   -0.732278
 ---------------------------------------------------------------------

 SCF Done:  E(RB3LYP) =  -465.876626110     A.U. after    1 cycles

 The electronic state is 1-A.
 Alpha  occ. eigenvalues --  -19.12780 -10.22293 -10.20212 -10.19206 -10.18465
 Alpha  occ. eigenvalues --  -10.18452 -10.18287 -10.17875 -10.17790 -10.17730
 Alpha  occ. eigenvalues --  -10.17255  -1.00666  -0.87515  -0.84496  -0.73068
 Alpha  occ. eigenvalues --   -0.70724  -0.69161  -0.66372  -0.61834  -0.59015
 Alpha  occ. eigenvalues --   -0.54619  -0.51044  -0.49387  -0.47122  -0.45840
 Alpha  occ. eigenvalues --   -0.45642  -0.43188  -0.42081  -0.40930  -0.40458
 Alpha  occ. eigenvalues --   -0.38486  -0.37891  -0.37383  -0.35320  -0.34602
 Alpha  occ. eigenvalues --   -0.33244  -0.31420  -0.31116  -0.30735  -0.27648
 Alpha  occ. eigenvalues --   -0.26097  -0.21655
 Alpha virt. eigenvalues --    0.01600   0.08047   0.09133   0.10173   0.11939
 Alpha virt. eigenvalues --    0.12543   0.13113   0.13403   0.13911   0.14819
 Alpha virt. eigenvalues --    0.15434   0.16726   0.17365   0.18191   0.18536

 Mulliken charges:
               1
     1  C   -0.444358
     2  C    0.340996
     3  C   -0.459338
     4  C   -0.338538
     5  C   -0.191666
     6  C    0.274895
     7  C    0.166742
     8  C   -0.184051
     9  O   -0.415831
    10  C   -0.307188
    11  C   -0.325784
    12  H    0.115102
    13  H    0.113349
    14  H    0.114944
    15  H    0.113909
    16  H    0.113554
    17  H    0.122826
    18  H    0.109138
    19  H    0.111978
    20  H    0.077733
    21  H    0.087509
    22  H    0.112175
    23  H    0.278234
    24  H    0.103701
    25  H    0.100696
    26  H    0.105502
    27  H    0.103770
 Sum of Mulliken charges =  -0.00000

 Dipole moment (field-independent basis, Debye):
    X=              2.1382    Y=              0.3197    Z=              0.0525  Tot=              2.1626
 Quadrupole moment (field-independent basis, Debye-Ang):
   XX=            -75.7190   YY=            -67.8970   ZZ=            -65.5254
   XY=             -3.5513   XZ=              1.0593   YZ=              0.0561

  Exact polarizability: 141.036  -0.602 104.232  -0.248   1.246  92.037
 Approx polarizability: 195.261   7.244 148.182  -2.989  -0.093 139.641

                      1                      2                      3
                      A                      A                      A
 Frequencies --     24.4972                56.4387               113.7817
 Red. masses --      3.4298                 3.4081                 2.6110
 Frc consts  --      0.0012                 0.0064                 0.0199
 IR Inten    --      0.2047                 1.0640                 1.1284

                      4                      5                      6
                      A                      A                      A
 Frequencies --    129.0387               153.7766               193.2143
 Red. masses --      2.7447                 2.7396                 1.8199
 Frc consts  --      0.0269                 0.0382                 0.0400
 IR Inten    --      0.8687                 0.0678                 1.8025

                      7                      8                      9
                      A                      A                      A
 Frequencies --    219.5188               233.3454               261.8782
 Red. masses --      1.2559                 1.5186                 1.5200
 Frc consts  --      0.0357                 0.0487                 0.0614
 IR Inten    --      0.1111                 2.3575                 1.0930

                     10                     11                     12
                      A                      A                      A
 Frequencies --    287.8041               331.2316               343.5052
 Red. masses --      2.3018                 2.1894                 1.5165
 Frc consts  --      0.1123                 0.1415                 0.1054
 IR Inten    --     12.8850                32.1548                52.4914

                     13                     14                     15
                      A                      A                      A
 Frequencies --    366.9457               381.5469               460.9212
 Red. masses --      2.2979                 2.0816                 2.6606
 Frc consts  --      0.1823                 0.1785                 0.3330
 IR Inten    --      0.7762                12.0410                 1.3082

                     16                     17                     18
                      A                      A                      A
 Frequencies --    532.7676               573.7738               661.7514
 Red. masses --      2.6496                 3.6006                 3.1235
 Frc consts  --      0.4431                 0.6984                 0.8059
 IR Inten    --      3.3754                 1.8275                 4.6983

                     19                     20                     21
                      A                      A                      A
 Frequencies --    703.3577               730.5360               820.1983
 Red. masses --      3.3630                 2.7649                 1.2473
 Frc consts  --      0.9802                 0.8694                 0.4944
 IR Inten    --      2.1942                 4.2921                 0.7291

                     22                     23                     24
                      A                      A                      A
 Frequencies --    849.2078               907.0803               917.2899
 Red. masses --      3.2515                 2.0757                 1.7879
 Frc consts  --      1.3815                 1.0062                 0.8864
 IR Inten    --      8.3256                 0.7770                 2.5019

                     25                     26                     27
                      A                      A                      A
 Frequencies --    921.9750               939.5959               958.7427
 Red. masses --      1.4380                 2.1448                 1.9355
 Frc consts  --      0.7202                 1.1156                 1.0482
 IR Inten    --      0.9585                 4.0422                 6.6487

                     28                     29                     30
                      A                      A                      A
 Frequencies --    971.7228              1000.6461              1042.1632
 Red. masses --      1.3764                 2.8912                 1.7709
 Frc consts  --      0.7658                 1.7056                 1.1333
 IR Inten    --      0.4624                97.4048                21.7373

                     31                     32                     33
                      A                      A                      A
 Frequencies --   1046.8654              1058.9587              1067.2247
 Red. masses --      1.7021                 2.6988                 1.3974
 Frc consts  --      1.0991                 1.7831                 0.9378
 IR Inten    --      4.9043                16.7871                 3.3208

                     34                     35                     36
                      A                      A                      A
 Frequencies --   1084.5396              1085.7853              1122.7781
 Red. masses --      1.4466                 1.2543                 1.5144
 Frc consts  --      1.0025                 0.8713                 1.1248
 IR Inten    --      2.5716                 3.4429                 8.0227

                     37                     38                     39
                      A                      A                      A
 Frequencies --   1151.5405              1170.0472              1189.4136
 Red. masses --      1.8487                 1.1788                 1.5161
 Frc consts  --      1.4444                 0.9508                 1.2637
 IR Inten    --     20.0353                 0.4832                12.9853

                     40                     41                     42
                      A                      A                      A
 Frequencies --   1209.9656              1217.1526              1261.6446
 Red. masses --      1.5216                 1.3844                 2.7150
 Frc consts  --      1.3125                 1.2084                 2.5462
 IR Inten    --      2.1308                 3.0397                 1.2845

                     43                     44                     45
                      A                      A                      A
 Frequencies --   1279.2006              1337.7564              1341.2806
 Red. masses --      2.2054                 2.3684                 2.5280
 Frc consts  --      2.1263                 2.4972                 2.6796
 IR Inten    --      3.4687                 1.4767                36.3298

                     46                     47                     48
                      A                      A                      A
 Frequencies --   1358.3008              1401.9689              1412.2411
 Red. masses --      1.2346                 1.6885                 1.3590
 Frc consts  --      1.3421                 1.9554                 1.5970
 IR Inten    --      1.3600                17.6408                 6.6208

                     49                     50                     51
                      A                      A                      A
 Frequencies --   1417.8487              1425.3797              1470.9604
 Red. masses --      1.4002                 1.2565                 1.0814
 Frc consts  --      1.6585                 1.5041                 1.3786
 IR Inten    --     61.3359                 0.2048                 0.2202

                     52                     53                     54
                      A                      A                      A
 Frequencies --   1482.2005              1487.4602              1489.8259
 Red. masses --      1.0621                 1.1858                 1.1350
 Frc consts  --      1.3748                 1.5458                 1.4842
 IR Inten    --      1.8062                 4.1809                 1.5300

                     55                     56                     57
                      A                      A                      A
 Frequencies --   1492.1116              1495.7020              1502.6867
 Red. masses --      1.0565                 1.0932                 1.0491
 Frc consts  --      1.3858                 1.4409                 1.3957
 IR Inten    --      4.1309                 0.8020                 6.7736

                     58                     59                     60
                      A                      A                      A
 Frequencies --   1511.7489              1720.4209              2977.4201
 Red. masses --      1.1528                 8.7587                 1.0675
 Frc consts  --      1.5522                15.2742                 5.5757
 IR Inten    --      1.0847                21.8965                53.5753

                     61                     62                     63
                      A                      A                      A
 Frequencies --   3018.7754              3026.4543              3031.8014
 Red. masses --      1.0361                 1.0392                 1.0565
 Frc consts  --      5.5629                 5.6082                 5.7217
 IR Inten    --     31.9850                45.0188                50.5173

                     64                     65                     66
                      A                      A                      A
 Frequencies --   3038.2518              3044.1578              3071.0979
 Red. masses --      1.0599                 1.0921                 1.1059
 Frc consts  --      5.7644                 5.9629                 6.1453
 IR Inten    --     44.8330                42.9142                 3.3831

                     67                     68                     69
                      A                      A                      A
 Frequencies --   3076.9802              3080.2447              3086.9672
 Red. masses --      1.1010                 1.1003                 1.1050
 Frc consts  --      6.1415                 6.1508                 6.2041
 IR Inten    --      0.4824                51.2724                48.7415

                     70                     71                     72
                      A                      A                      A
 Frequencies --   3098.6710              3123.3329              3130.5738
 Red. masses --      1.1005                 1.0563                 1.0943
 Frc consts  --      6.2259                 6.0711                 6.3189
 IR Inten    --     25.3343                14.0785                23.8162

                     73                     74                     75
                      A                      A                      A
 Frequencies --   3131.5365              3209.2878              3808.5880
 Red. masses --      1.0863                 1.1165                 1.0662
 Frc consts  --      6.2763                 6.7751                 9.1119
 IR Inten    --     10.9257                10.8912                10.2865

 - Thermochemistry -
 -------------------
 Temperature   298.150 Kelvin.  Pressure   1.00000 Atm.
 Atom     1 has atomic number  6 and mass  12.00000

 Molecular mass:   152.12012 amu.
 Principal axes and moments of inertia in atomic units:
                           1         2         3
     Eigenvalues --  1038.201682844.308673295.41233
           X            0.99980  -0.01831   0.00843
           Y            0.01809   0.99951   0.02569
           Z           -0.00889  -0.02553   0.99963
 This molecule is an asymmetric top.
 Rotational symmetry number  1.
 Warning -- assumption of classical behavior for rotation
           may cause significant error
 Rotational temperatures (Kelvin)      0.08343     0.03045     0.02628
 Rotational constants (GHZ):           1.73833     0.63451     0.54765
 Zero-point vibrational energy     624064.3 (Joules/Mol)
                                  149.15495 (Kcal/Mol)
 Warning -- explicit consideration of  17 degrees of freedom as
           vibrations may cause significant error
 Vibrational temperatures:     35.25    81.20   163.71   185.66   221.25
          (Kelvin)            277.99   315.84   335.73   376.78   414.09
                              476.57   494.23   527.95   548.96   663.16
                              766.53   825.53   952.11  1011.97  1051.08
                             1180.08  1221.82  1305.09  1319.78  1326.52
                             1351.87  1379.42  1398.09  1439.71  1499.44
                             1506.21  1523.61  1535.50  1560.41  1562.20
                             1615.43  1656.81  1683.44  1711.30  1740.87
                             1751.21  1815.23  1840.48  1924.73  1929.80
                             1954.29  2017.12  2031.90  2039.97  2050.80
                             2116.38  2132.56  2140.12  2143.53  2146.82
                             2151.98  2162.03  2175.07  2475.30  4283.84
                             4343.34  4354.39  4362.09  4371.37  4379.86
                             4418.62  4427.09  4431.79  4441.46  4458.30
                             4493.78  4504.20  4505.58  4617.45  5479.71

 Zero-point correction=                           0.237694 (Hartree/Particle)
 Thermal correction to Energy=                    0.250041
 Thermal correction to Enthalpy=                  0.250985
 Thermal correction to Gibbs Free Energy=         0.198764
 Sum of electronic and zero-point Energies=           -465.638933
 Sum of electronic and thermal Energies=              -465.626585
 Sum of electronic and thermal Enthalpies=            -465.625641
 Sum of electronic and thermal Free Energies=         -465.677862

                     E (Thermal)             CV                S
                      KCal/Mol        Cal/Mol-Kelvin    Cal/Mol-Kelvin
 Total                  156.903             46.180            109.909
 Electronic               0.000              0.000              0.000
 Translational            0.889              2.981             40.968
 Rotational               0.889              2.981             30.654
 Vibrational            155.126             40.219             38.286
 Vibration     1          0.593              1.985              6.232
 Vibration     2          0.596              1.975              4.578
 Vibration     3          0.607              1.938              3.203
 Vibration     4          0.612              1.924              2.960
 Vibration     5          0.619              1.898              2.625
 Vibration     6          0.635              1.849              2.197
 Vibration     7          0.647              1.811              1.963
 Vibration     8          0.654              1.790              1.853
 Vibration     9          0.669              1.743              1.649
 Vibration    10          0.685              1.696              1.487
 Vibration    11          0.714              1.613              1.254
 Vibration    12          0.722              1.588              1.196
 Vibration    13          0.740              1.540              1.093
 Vibration    14          0.751              1.510              1.033
 Vibration    15          0.819              1.337              0.763
 Vibration    16          0.888              1.178              0.581
 Vibration    17          0.930              1.088              0.497

 Optimization completed.
    -- Stationary point found.
 Normal termination of Gaussian 16 at Tue May 23 04:31:44 2023.
