 Gaussian 16, Revision A.03,
 Gaussian 16:  ES64L-G16RevA.03 25-Dec-2016

 -----------------------------
 # opt freq b3lyp/6-31g(2df,p)
 -----------------------------

 -------------------
 Title Card Required
 -------------------
 Symbolic Z-matrix:
 Charge =  0 Multiplicity = 1

 SCF Done:  E(RB3LYP) =  -119.155143441     A.U. after   11 cycles
 SCF Done:  E(RB3LYP) =  -119.155624891     A.U. after    8 cycles
 SCF Done:  E(RB3LYP) =  -119.155651007     A.U. after    7 cycles
 Optimization completed.
    -- Stationary point found.
 Normal termination of Gaussian 16 at Sat May 27 18:50:45 2023.

 ----------------------------------------------------------------------
 #N Geom=AllCheck Guess=TCheck SCRF=Check GenChk RB3LYP/6-31G(2df,p) Fr
 eq
 ----------------------------------------------------------------------

 Structure from the checkpoint file:  "CCC.chk"
 -------------------
 Title Card Required
 -------------------
 Charge =  0 Multiplicity = 1

                         Standard orientation:
 ---------------------------------------------------------------------
 Center     Atomic      Atomic             Coordinates (Angstroms)
 Number     Number       Type             X           Y           Z
 ---------------------------------------------------------------------
      1          6           0       -1.276337   -0.259978    0.000000
      2          6           0       -0.000000    0.586964   -0.000000
      3          6           0        1.276337   -0.259978   -0.000000
      4          1           0       -2.174567    0.365768   -0.000000
      5          1           0       -1.321042   -0.906725    0.883560
      6          1           0       -1.321042   -0.906726   -0.883560
      7          1           0        0.000000    1.246659    0.876675
      8          1           0        0.000000    1.246659   -0.876675
      9          1           0        1.321042   -0.906725    0.883561
     10          1           0        2.174567    0.365769    0.000000
     11          1           0        1.321042   -0.906725   -0.883560
 ---------------------------------------------------------------------

 SCF Done:  E(RB3LYP) =  -119.155651007     A.U. after    1 cycles

 The electronic state is 1-A.
 Alpha  occ. eigenvalues --  -10.17697 -10.16889 -10.16889  -0.77414  -0.67539
 Alpha  occ. eigenvalues --   -0.57974  -0.45066  -0.43022  -0.39247  -0.37529
 Alpha  occ. eigenvalues --   -0.33245  -0.33160  -0.32320
 Alpha virt. eigenvalues --    0.09492   0.14755   0.14783   0.15010   0.16936
 Alpha virt. eigenvalues --    0.19309   0.19448   0.19631   0.21834   0.26129
 Alpha virt. eigenvalues --    0.46651   0.49156   0.51156   0.51659   0.53604

 Mulliken charges:
               1
     1  C   -0.357389
     2  C   -0.144165
     3  C   -0.357389
     4  H    0.109752
     5  H    0.112044
     6  H    0.112044
     7  H    0.095632
     8  H    0.095632
     9  H    0.112044
    10  H    0.109752
    11  H    0.112044
 Sum of Mulliken charges =  -0.00000

 Dipole moment (field-independent basis, Debye):
    X=              0.0000    Y=              0.0599    Z=              0.0000  Tot=              0.0599
 Quadrupole moment (field-independent basis, Debye-Ang):
   XX=            -21.8724   YY=            -21.5156   ZZ=            -21.1434
   XY=              0.0000   XZ=              0.0000   YZ=              0.0000

  Exact polarizability:  37.915   0.000  33.700   0.000  -0.000  32.631
 Approx polarizability:  45.378   0.000  45.457   0.000   0.000  45.920

                      1                      2                      3
                      A                      A                      A
 Frequencies --    222.7204               271.0928               363.4280
 Red. masses --      1.0276                 1.1365                 2.0515
 Frc consts  --      0.0300                 0.0492                 0.1596
 IR Inten    --      0.0000                 0.0022                 0.1394

                      4                      5                      6
                      A                      A                      A
 Frequencies --    749.5699               874.3232               908.2295
 Red. masses --      1.0790                 2.5889                 1.1001
 Frc consts  --      0.3572                 1.1660                 0.5347
 IR Inten    --      3.1090                 0.6472                 0.0000

                      7                      8                      9
                      A                      A                      A
 Frequencies --    928.9777              1059.9496              1177.2273
 Red. masses --      1.2004                 2.4584                 1.7884
 Frc consts  --      0.6104                 1.6273                 1.4603
 IR Inten    --      1.5003                 0.5388                 1.0582

                     10                     11                     12
                      A                      A                      A
 Frequencies --   1216.0682              1316.5484              1366.9793
 Red. masses --      1.6673                 1.1253                 1.4091
 Frc consts  --      1.4527                 1.1492                 1.5514
 IR Inten    --      0.1904                 0.0000                 6.0254

                     13                     14                     15
                      A                      A                      A
 Frequencies --   1402.5879              1421.5147              1488.7838
 Red. masses --      1.2731                 1.2315                 1.0466
 Frc consts  --      1.4756                 1.4661                 1.3668
 IR Inten    --      1.9876                 1.1151                 0.0126

                     16                     17                     18
                      A                      A                      A
 Frequencies --   1490.2538              1497.8599              1508.3413
 Red. masses --      1.0389                 1.0519                 1.0408
 Frc consts  --      1.3594                 1.3905                 1.3951
 IR Inten    --      0.0000                 1.1569                 8.9368

                     19                     20                     21
                      A                      A                      A
 Frequencies --   1514.0625              3022.3427              3025.2444
 Red. masses --      1.0779                 1.0596                 1.0350
 Frc consts  --      1.4559                 5.7028                 5.5811
 IR Inten    --      2.4423                21.3445                33.6996

                     22                     23                     24
                      A                      A                      A
 Frequencies --   3028.9847              3048.1085              3088.2804
 Red. masses --      1.0358                 1.1011                 1.1016
 Frc consts  --      5.5990                 6.0276                 6.1904
 IR Inten    --     24.5206                 5.5636                 0.0000

                     25                     26                     27
                      A                      A                      A
 Frequencies --   3097.5562              3099.0946              3100.2894
 Red. masses --      1.1014                 1.1025                 1.1004
 Frc consts  --      6.2265                 6.2390                 6.2314
 IR Inten    --     27.8168                92.8698                50.4875

 - Thermochemistry -
 -------------------
 Temperature   298.150 Kelvin.  Pressure   1.00000 Atm.
 Atom     1 has atomic number  6 and mass  12.00000

 Molecular mass:    44.06260 amu.
 Principal axes and moments of inertia in atomic units:
                           1         2         3
     Eigenvalues --    61.30011 215.54905 243.30761
           X            1.00000   0.00000   0.00000
           Y           -0.00000   1.00000   0.00000
           Z           -0.00000  -0.00000   1.00000
 This molecule is an asymmetric top.
 Rotational symmetry number  1.
 Rotational temperatures (Kelvin)      1.41295     0.40183     0.35599
 Rotational constants (GHZ):          29.44108     8.37276     7.41753
 Zero-point vibrational energy     270884.9 (Joules/Mol)
                                   64.74305 (Kcal/Mol)
 Warning -- explicit consideration of   3 degrees of freedom as
           vibrations may cause significant error
 Vibrational temperatures:    320.44   390.04   522.89  1078.46  1257.96
          (Kelvin)           1306.74  1336.59  1525.03  1693.77  1749.65
                             1894.22  1966.78  2018.01  2045.24  2142.03
                             2144.14  2155.09  2170.17  2178.40  4348.48
                             4352.65  4358.03  4385.55  4443.35  4456.69
                             4458.91  4460.62

 Zero-point correction=                           0.103175 (Hartree/Particle)
 Thermal correction to Energy=                    0.107713
 Thermal correction to Enthalpy=                  0.108657
 Thermal correction to Gibbs Free Energy=         0.077506
 Sum of electronic and zero-point Energies=           -119.052476
 Sum of electronic and thermal Energies=              -119.047938
 Sum of electronic and thermal Enthalpies=            -119.046994
 Sum of electronic and thermal Free Energies=         -119.078145

                     E (Thermal)             CV                S
                      KCal/Mol        Cal/Mol-Kelvin    Cal/Mol-Kelvin
 Total                   67.591             14.835             65.562
 Electronic               0.000              0.000              0.000
 Translational            0.889              2.981             37.275
 Rotational               0.889              2.981             22.690
 Vibrational             65.813              8.873              5.597
 Vibration     1          0.648              1.806              1.937
 Vibration     2          0.675              1.726              1.589
 Vibration     3          0.737              1.548              1.107

 Optimization completed.
    -- Stationary point found.
 Normal termination of Gaussian 16 at Sat May 27 18:54:51 2023.
