 Gaussian 16, Revision A.03,
 Gaussian 16:  ES64L-G16RevA.03 25-Dec-2016

 -----------------------------
 # opt freq b3lyp/6-31g(2df,p)
 -----------------------------

 -------------------
 Title Card Required
 -------------------
 Symbolic Z-matrix:
 Charge =  0 Multiplicity = 1

 SCF Done:  E(RB3LYP) =  -782.801651982     A.U. after   12 cycles
 SCF Done:  E(RB3LYP) =  -782.821322234     A.U. after   10 cycles
 SCF Done:  E(RB3LYP) =  -782.830964874     A.U. after   10 cycles
 SCF Done:  E(RB3LYP) =  -782.838197117     A.U. after   10 cycles
 SCF Done:  E(RB3LYP) =  -782.842653741     A.U. after   10 cycles
 SCF Done:  E(RB3LYP) =  -782.845653514     A.U. after   10 cycles
 SCF Done:  E(RB3LYP) =  -782.847683233     A.U. after   10 cycles
 SCF Done:  E(RB3LYP) =  -782.849745564     A.U. after   11 cycles
 SCF Done:  E(RB3LYP) =  -782.850711791     A.U. after    9 cycles
 SCF Done:  E(RB3LYP) =  -782.851043123     A.U. after    9 cycles
 SCF Done:  E(RB3LYP) =  -782.855467269     A.U. after   10 cycles
 SCF Done:  E(RB3LYP) =  -782.855673870     A.U. after    9 cycles
 SCF Done:  E(RB3LYP) =  -782.855804380     A.U. after    8 cycles
 SCF Done:  E(RB3LYP) =  -782.855864229     A.U. after    9 cycles
 SCF Done:  E(RB3LYP) =  -782.855889983     A.U. after    8 cycles
 SCF Done:  E(RB3LYP) =  -782.855899739     A.U. after    8 cycles
 SCF Done:  E(RB3LYP) =  -782.855900885     A.U. after    6 cycles
 SCF Done:  E(RB3LYP) =  -782.855901015     A.U. after    6 cycles
 SCF Done:  E(RB3LYP) =  -782.855901033     A.U. after    5 cycles
 Optimization completed.
    -- Stationary point found.

 The electronic state is 1-A.
 Alpha  occ. eigenvalues --  -19.13670 -10.22198 -10.21996 -10.19281 -10.18757
 Alpha  occ. eigenvalues --  -10.18033 -10.17611 -10.17420 -10.17380 -10.17052
 Alpha  occ. eigenvalues --  -10.16895 -10.16872 -10.16857 -10.16718 -10.16698
 Alpha  occ. eigenvalues --  -10.16642 -10.16255 -10.16200 -10.16158  -1.03001
 Alpha  occ. eigenvalues --   -0.83385  -0.81210  -0.79580  -0.75834  -0.74185
 Alpha  occ. eigenvalues --   -0.72839  -0.70423  -0.68866  -0.67722  -0.66497
 Alpha  occ. eigenvalues --   -0.64538  -0.62724  -0.62440  -0.59878  -0.57876
 Alpha  occ. eigenvalues --   -0.55597  -0.52315  -0.51125  -0.48420  -0.47503
 Alpha  occ. eigenvalues --   -0.47256  -0.45907  -0.45330  -0.44837  -0.44334
 Alpha  occ. eigenvalues --   -0.43005  -0.42064  -0.41464  -0.41386  -0.40870
 Alpha  occ. eigenvalues --   -0.40423  -0.40003  -0.38611  -0.38423  -0.37782
 Alpha  occ. eigenvalues --   -0.37442  -0.36837  -0.36701  -0.35968  -0.35670
 Alpha  occ. eigenvalues --   -0.35149  -0.34575  -0.33888  -0.33517  -0.33343
 Alpha  occ. eigenvalues --   -0.32551  -0.31809  -0.31485  -0.30803  -0.30520
 Alpha  occ. eigenvalues --   -0.29980  -0.29369  -0.28371  -0.28008  -0.27428
 Alpha  occ. eigenvalues --   -0.25100
 Alpha virt. eigenvalues --    0.07428   0.08246   0.08615   0.09915   0.10240
 Alpha virt. eigenvalues --    0.11402   0.11665   0.12045   0.12456   0.13143
 Alpha virt. eigenvalues --    0.13537   0.13996   0.14393   0.14564   0.14986

 Mulliken charges:
               1
     1  C   -0.408234
     2  C   -0.186046
     3  C    0.224760
     4  C   -0.408086
     5  C   -0.246970
     6  C    0.015172
     7  C   -0.084671
     8  O   -0.232233
     9  C   -0.227414
    10  C   -0.216941
    11  C   -0.211478
    12  C   -0.198942
    13  C   -0.236511
    14  C    0.283193
    15  C   -0.430544
    16  C   -0.413044
    17  C    0.005378
    18  C   -0.423854
    19  C   -0.240970
    20  H    0.110995
    21  H    0.117366
    22  H    0.118383
    23  H    0.094939
    24  H    0.104872
    25  H    0.110269
    26  H    0.106593
    27  H    0.107183
    28  H    0.085481
    29  H    0.101831
    30  H    0.089049
    31  H    0.090041
    32  H    0.080788
    33  H    0.125385
    34  H    0.102031
    35  H    0.102633
    36  H    0.109889
    37  H    0.083044
    38  H    0.106587
    39  H    0.085746
    40  H    0.087917
    41  H    0.099618
    42  H    0.087751
    43  H    0.088178
    44  H    0.106808
    45  H    0.110689
    46  H    0.113774
    47  H    0.106084
    48  H    0.109814
    49  H    0.107855
    50  H    0.068921
    51  H    0.111959
    52  H    0.113812
    53  H    0.109862
    54  H    0.085406
    55  H    0.095881
 Sum of Mulliken charges =  -0.00000

 Dipole moment (field-independent basis, Debye):
    X=              0.8742    Y=              0.5235    Z=             -0.4026  Tot=              1.0956
 Quadrupole moment (field-independent basis, Debye-Ang):
   XX=           -119.4858   YY=           -125.6403   ZZ=           -125.0369
   XY=              0.0778   XZ=              0.3591   YZ=              0.8504

 Normal termination of Gaussian 16 at Wed May 24 20:06:38 2023.

 ----------------------------------------------------------------------
 #N Geom=AllCheck Guess=TCheck SCRF=Check GenChk RB3LYP/6-31G(2df,p) Fr
 eq
 ----------------------------------------------------------------------

 Structure from the checkpoint file:  "CCC1qCrCCqCOCrCCCCCqCrqCrCqCrC1.chk"
 -------------------
 Title Card Required
 -------------------
 Charge =  0 Multiplicity = 1

                         Standard orientation:
 ---------------------------------------------------------------------
 Center     Atomic      Atomic             Coordinates (Angstroms)
 Number     Number       Type             X           Y           Z
 ---------------------------------------------------------------------
      1          6           0        2.187809    3.160064    0.499590
      2          6           0        0.875058    2.379908    0.667805
      3          6           0        0.256649    1.755248   -0.612270
      4          6           0        0.194368    2.833603   -1.721174
      5          6           0        1.161411    0.612078   -1.180117
      6          6           0        1.556283   -0.621276   -0.306109
      7          6           0        3.074751   -0.598904   -0.081630
      8          8           0        3.429726   -1.587520    0.861870
      9          6           0        4.815869   -1.664192    1.085213
     10          6           0        1.154633   -2.003982   -0.883984
     11          6           0       -0.303296   -2.447432   -0.661999
     12          6           0       -1.321475   -1.703761   -1.554571
     13          6           0       -2.709684   -1.342571   -0.992438
     14          6           0       -2.872774   -0.565347    0.365320
     15          6           0       -3.113030   -1.604540    1.487101
     16          6           0       -4.161358    0.276324    0.232443
     17          6           0       -1.639562    0.339734    0.741335
     18          6           0       -1.853660    1.076990    2.080332
     19          6           0       -1.241678    1.350925   -0.372846
     20          1           0        2.565379    3.470449    1.479206
     21          1           0        2.050311    4.066005   -0.097374
     22          1           0        2.973711    2.567496    0.022162
     23          1           0        0.135878    3.064016    1.101748
     24          1           0        1.030554    1.593621    1.414918
     25          1           0        1.190673    3.152351   -2.039740
     26          1           0       -0.347735    3.721631   -1.377421
     27          1           0       -0.325547    2.451005   -2.606187
     28          1           0        2.092915    1.097238   -1.500453
     29          1           0        0.714559    0.265705   -2.116310
     30          1           0        1.117889   -0.535554    0.693140
     31          1           0        3.391078    0.391928    0.282427
     32          1           0        3.600399   -0.774444   -1.038438
     33          1           0        4.987008   -2.449513    1.825793
     34          1           0        5.221555   -0.716148    1.473658
     35          1           0        5.366025   -1.917587    0.164764
     36          1           0        1.808847   -2.743593   -0.412793
     37          1           0        1.387783   -2.023463   -1.958799
     38          1           0       -0.540457   -2.326863    0.398485
     39          1           0       -0.373091   -3.525584   -0.849633
     40          1           0       -1.492861   -2.302674   -2.458143
     41          1           0       -0.860366   -0.789196   -1.919980
     42          1           0       -3.309612   -2.257073   -0.905457
     43          1           0       -3.203234   -0.759064   -1.779932
     44          1           0       -3.929385   -2.278353    1.206138
     45          1           0       -3.398974   -1.135303    2.431791
     46          1           0       -2.229401   -2.221973    1.676591
     47          1           0       -4.992150   -0.355120   -0.101830
     48          1           0       -4.045005    1.079571   -0.502636
     49          1           0       -4.459041    0.727396    1.183439
     50          1           0       -0.808855   -0.347944    0.898623
     51          1           0       -2.666377    1.807475    2.010524
     52          1           0       -0.956436    1.623659    2.372472
     53          1           0       -2.087798    0.392539    2.898660
     54          1           0       -1.782155    2.287842   -0.180718
     55          1           0       -1.625779    1.002475   -1.335654
 ---------------------------------------------------------------------

 SCF Done:  E(RB3LYP) =  -782.855901033     A.U. after    1 cycles
