 Gaussian 16, Revision A.03,
 Gaussian 16:  ES64L-G16RevA.03 25-Dec-2016

 -----------------------------
 # opt freq b3lyp/6-31g(2df,p)
 -----------------------------

 -------------------
 Title Card Required
 -------------------
 Symbolic Z-matrix:
 Charge =  0 Multiplicity = 1

 SCF Done:  E(RB3LYP) =  -583.505207746     A.U. after   13 cycles
 SCF Done:  E(RB3LYP) =  -583.509701248     A.U. after   11 cycles
 SCF Done:  E(RB3LYP) =  -583.510540181     A.U. after   12 cycles
 SCF Done:  E(RB3LYP) =  -583.510821691     A.U. after   12 cycles
 SCF Done:  E(RB3LYP) =  -583.511160996     A.U. after   11 cycles
 SCF Done:  E(RB3LYP) =  -583.511303951     A.U. after   11 cycles
 SCF Done:  E(RB3LYP) =  -583.511413481     A.U. after   10 cycles
 SCF Done:  E(RB3LYP) =  -583.511716792     A.U. after   12 cycles
 SCF Done:  E(RB3LYP) =  -583.511761383     A.U. after   10 cycles
 SCF Done:  E(RB3LYP) =  -583.511927876     A.U. after   11 cycles
 SCF Done:  E(RB3LYP) =  -583.513632732     A.U. after   11 cycles
 SCF Done:  E(RB3LYP) =  -583.514266212     A.U. after    8 cycles
 SCF Done:  E(RB3LYP) =  -583.514033772     A.U. after   10 cycles
 SCF Done:  E(RB3LYP) =  -583.514326243     A.U. after   11 cycles
 SCF Done:  E(RB3LYP) =  -583.514346213     A.U. after    9 cycles
 SCF Done:  E(RB3LYP) =  -583.514351748     A.U. after    9 cycles
 SCF Done:  E(RB3LYP) =  -583.514353453     A.U. after    8 cycles
 SCF Done:  E(RB3LYP) =  -583.514353999     A.U. after    8 cycles
 SCF Done:  E(RB3LYP) =  -583.514354151     A.U. after    6 cycles
 Optimization completed.
    -- Stationary point found.
 Normal termination of Gaussian 16 at Tue May 23 13:50:02 2023.

 ----------------------------------------------------------------------
 #N Geom=AllCheck Guess=TCheck SCRF=Check GenChk RB3LYP/6-31G(2df,p) Fr
 eq
 ----------------------------------------------------------------------

 Structure from the checkpoint file:  "CCC1qCrCqCOFrCCN1C.chk"
 -------------------
 Title Card Required
 -------------------
 Charge =  0 Multiplicity = 1

                         Standard orientation:
 ---------------------------------------------------------------------
 Center     Atomic      Atomic             Coordinates (Angstroms)
 Number     Number       Type             X           Y           Z
 ---------------------------------------------------------------------
      1          6           0        1.096869    2.787928    0.050044
      2          6           0        0.121022    1.607437   -0.079831
      3          6           0        0.615833    0.206888    0.364179
      4          6           0        1.507757    0.325157    1.624469
      5          6           0       -0.545906   -0.789599    0.685236
      6          6           0       -1.765378   -0.694361   -0.243348
      7          8           0       -2.586834    0.350700    0.263932
      8          9           0       -3.711450    0.401396   -0.622954
      9          6           0        0.124518   -2.182856    0.519655
     10          6           0        1.374159   -1.925133   -0.350290
     11          7           0        1.258412   -0.527802   -0.749674
     12          6           0        2.452974    0.002955   -1.371479
     13          1           0        0.630132    3.690566   -0.356872
     14          1           0        2.037097    2.636563   -0.486174
     15          1           0        1.345113    2.996676    1.094710
     16          1           0       -0.219041    1.528614   -1.118033
     17          1           0       -0.767422    1.851779    0.508293
     18          1           0        0.986494    0.881506    2.410257
     19          1           0        2.440448    0.852954    1.410679
     20          1           0        1.768579   -0.654802    2.033747
     21          1           0       -0.900836   -0.644719    1.710384
     22          1           0       -2.339117   -1.628107   -0.216112
     23          1           0       -1.466995   -0.481374   -1.275107
     24          1           0       -0.553630   -2.899393    0.049997
     25          1           0        0.398973   -2.601097    1.490356
     26          1           0        1.412412   -2.563625   -1.240680
     27          1           0        2.296667   -2.128813    0.223238
     28          1           0        2.752580   -0.668101   -2.184032
     29          1           0        3.317958    0.095618   -0.688772
     30          1           0        2.258346    0.981715   -1.814851
 ---------------------------------------------------------------------

 SCF Done:  E(RB3LYP) =  -583.514354151     A.U. after    1 cycles

 The electronic state is 1-A.
 Alpha  occ. eigenvalues --  -24.70456 -19.22475 -14.31593 -10.23469 -10.21971
 Alpha  occ. eigenvalues --  -10.20526 -10.20027 -10.19836 -10.18929 -10.17435
 Alpha  occ. eigenvalues --  -10.17314 -10.17198  -1.21583  -0.97039  -0.93114
 Alpha  occ. eigenvalues --   -0.80095  -0.77951  -0.72079  -0.71170  -0.67271
 Alpha  occ. eigenvalues --   -0.64396  -0.61347  -0.58228  -0.53321  -0.52245
 Alpha  occ. eigenvalues --   -0.49487  -0.48568  -0.47311  -0.46621  -0.45318
 Alpha  occ. eigenvalues --   -0.43199  -0.41602  -0.41230  -0.40946  -0.39317
 Alpha  occ. eigenvalues --   -0.38759  -0.37785  -0.37678  -0.36410  -0.36193
 Alpha  occ. eigenvalues --   -0.35454  -0.34081  -0.33978  -0.32431  -0.31316
 Alpha  occ. eigenvalues --   -0.31181  -0.27136  -0.20845
 Alpha virt. eigenvalues --   -0.02256   0.06643   0.09391   0.10106   0.11570
 Alpha virt. eigenvalues --    0.12314   0.12794   0.13614   0.13860   0.14244
 Alpha virt. eigenvalues --    0.15144   0.16175   0.17254   0.17804   0.18729

 Mulliken charges:
               1
     1  C   -0.410620
     2  C   -0.225193
     3  C    0.267507
     4  C   -0.444094
     5  C   -0.030332
     6  C   -0.053471
     7  O   -0.083507
     8  F   -0.169054
     9  C   -0.265494
    10  C   -0.151238
    11  N   -0.066727
    12  C   -0.332782
    13  H    0.115288
    14  H    0.115519
    15  H    0.117551
    16  H    0.102866
    17  H    0.121084
    18  H    0.118624
    19  H    0.121283
    20  H    0.110368
    21  H    0.084789
    22  H    0.106278
    23  H    0.124504
    24  H    0.105076
    25  H    0.109842
    26  H    0.099056
    27  H    0.078856
    28  H    0.116815
    29  H    0.092045
    30  H    0.125159
 Sum of Mulliken charges =  -0.00000

 Dipole moment (field-independent basis, Debye):
    X=              2.2645    Y=             -1.2284    Z=              0.3430  Tot=              2.5989
 Quadrupole moment (field-independent basis, Debye-Ang):
   XX=            -81.6773   YY=            -71.9605   ZZ=            -73.5195
   XY=              2.4667   XZ=             -0.6708   YZ=             -0.2215

  Exact polarizability: 118.788  -0.946 114.529   0.913  -0.004  97.097
 Approx polarizability: 163.360  -4.408 154.518   5.412   0.705 151.299

                      1                      2                      3
                      A                      A                      A
 Frequencies --     50.1975                74.7597               103.1165
 Red. masses --      3.5982                 8.9431                 2.2398
 Frc consts  --      0.0053                 0.0294                 0.0140
 IR Inten    --      0.5173                 0.2079                 0.8164

                      4                      5                      6
                      A                      A                      A
 Frequencies --    123.3262               136.7135               182.4594
 Red. masses --      2.0708                 2.2937                 1.8345
 Frc consts  --      0.0186                 0.0253                 0.0360
 IR Inten    --      0.7635                 2.2889                 0.6774

                      7                      8                      9
                      A                      A                      A
 Frequencies --    189.9339               224.0075               241.0595
 Red. masses --      3.9644                 1.7043                 1.4249
 Frc consts  --      0.0843                 0.0504                 0.0488
 IR Inten    --      0.9495                 0.8811                 1.0857

                     10                     11                     12
                      A                      A                      A
 Frequencies --    259.9026               275.0487               296.9963
 Red. masses --      1.5782                 1.2035                 2.6444
 Frc consts  --      0.0628                 0.0536                 0.1374
 IR Inten    --      0.5397                 0.1945                 0.0720

                     13                     14                     15
                      A                      A                      A
 Frequencies --    302.9062               331.7935               342.4786
 Red. masses --      2.3866                 2.7021                 3.3877
 Frc consts  --      0.1290                 0.1753                 0.2341
 IR Inten    --      0.6308                 0.3035                 0.4147

                     16                     17                     18
                      A                      A                      A
 Frequencies --    404.2139               426.5551               476.9323
 Red. masses --      2.4836                 2.9807                 3.0178
 Frc consts  --      0.2391                 0.3195                 0.4044
 IR Inten    --      0.8108                 7.5161                 8.6315

                     19                     20                     21
                      A                      A                      A
 Frequencies --    533.9855               605.2438               648.0654
 Red. masses --      2.8924                 3.5805                 3.2457
 Frc consts  --      0.4859                 0.7728                 0.8031
 IR Inten    --      4.4275                 1.4117                 1.9321

                     22                     23                     24
                      A                      A                      A
 Frequencies --    732.5368               771.5979               815.2980
 Red. masses --      3.0344                 1.5701                 1.3345
 Frc consts  --      0.9594                 0.5508                 0.5226
 IR Inten    --      3.1297                 2.8791                 1.4398

                     25                     26                     27
                      A                      A                      A
 Frequencies --    857.4902               905.8576               925.9430
 Red. masses --      1.9299                 2.0127                 2.4098
 Frc consts  --      0.8361                 0.9731                 1.2173
 IR Inten    --      8.6103                 1.4065                 6.8469

                     28                     29                     30
                      A                      A                      A
 Frequencies --    955.2662               965.8551               986.7464
 Red. masses --      7.2283                 1.8763                 1.9362
 Frc consts  --      3.8863                 1.0313                 1.1107
 IR Inten    --     23.3877                 8.4476                 9.8480

                     31                     32                     33
                      A                      A                      A
 Frequencies --   1013.7335              1016.6094              1028.6919
 Red. masses --      2.3080                 1.9093                 2.3919
 Frc consts  --      1.3975                 1.1626                 1.4913
 IR Inten    --      0.8063                 3.8777                 7.3578

                     34                     35                     36
                      A                      A                      A
 Frequencies --   1044.3426              1057.2181              1078.9661
 Red. masses --      1.9498                 2.1208                 1.9648
 Frc consts  --      1.2529                 1.3966                 1.3477
 IR Inten    --      3.5044                29.4330                 1.0382

                     37                     38                     39
                      A                      A                      A
 Frequencies --   1130.5494              1153.8977              1165.9167
 Red. masses --      1.6604                 1.6530                 2.0160
 Frc consts  --      1.2504                 1.2968                 1.6147
 IR Inten    --     10.4610                 6.6778                 6.9047

                     40                     41                     42
                      A                      A                      A
 Frequencies --   1171.3328              1200.2853              1220.0563
 Red. masses --      2.4369                 2.0560                 2.4418
 Frc consts  --      1.9700                 1.7452                 2.1415
 IR Inten    --      2.2815                 0.6609                33.1665

                     43                     44                     45
                      A                      A                      A
 Frequencies --   1229.2045              1243.9559              1261.9644
 Red. masses --      1.2762                 1.3843                 1.5406
 Frc consts  --      1.1361                 1.2621                 1.4455
 IR Inten    --      1.2291                 7.3026                 3.0245

                     46                     47                     48
                      A                      A                      A
 Frequencies --   1266.1580              1278.8401              1324.8733
 Red. masses --      1.3319                 2.5386                 1.3690
 Frc consts  --      1.2581                 2.4461                 1.4158
 IR Inten    --      5.3699                21.9537                 4.0480

                     49                     50                     51
                      A                      A                      A
 Frequencies --   1331.0780              1361.2433              1379.8232
 Red. masses --      1.2241                 1.3725                 1.4732
 Frc consts  --      1.2778                 1.4984                 1.6526
 IR Inten    --      1.9478                 1.9066                 4.4538

                     52                     53                     54
                      A                      A                      A
 Frequencies --   1388.0906              1391.2411              1404.9059
 Red. masses --      1.3701                 1.4493                 1.2557
 Frc consts  --      1.5554                 1.6528                 1.4602
 IR Inten    --      3.8769                 9.6062                 8.8958

                     55                     56                     57
                      A                      A                      A
 Frequencies --   1414.7855              1459.6503              1476.7196
 Red. masses --      1.2151                 1.1733                 1.0713
 Frc consts  --      1.4330                 1.4729                 1.3764
 IR Inten    --      3.9427                 1.1020                 3.7452

                     58                     59                     60
                      A                      A                      A
 Frequencies --   1483.8437              1492.5656              1500.4793
 Red. masses --      1.0519                 1.0627                 1.0625
 Frc consts  --      1.3645                 1.3948                 1.4094
 IR Inten    --      7.6919                 2.2597                 6.6864

                     61                     62                     63
                      A                      A                      A
 Frequencies --   1501.8716              1507.3523              1512.2170
 Red. masses --      1.0476                 1.0640                 1.0466
 Frc consts  --      1.3922                 1.4243                 1.4101
 IR Inten    --      3.5629                 5.1633                 5.4876

                     64                     65                     66
                      A                      A                      A
 Frequencies --   1517.6961              1528.6364              1536.7339
 Red. masses --      1.0589                 1.0845                 1.0870
 Frc consts  --      1.4371                 1.4931                 1.5125
 IR Inten    --      1.6926                 9.7148                 2.0548

                     67                     68                     69
                      A                      A                      A
 Frequencies --   2925.7901              2935.1722              3026.7903
 Red. masses --      1.0717                 1.0633                 1.0576
 Frc consts  --      5.4051                 5.3974                 5.7087
 IR Inten    --     36.9125               111.8136                22.5829

                     70                     71                     72
                      A                      A                      A
 Frequencies --   3036.7244              3041.7233              3045.1709
 Red. masses --      1.0864                 1.0374                 1.0376
 Frc consts  --      5.9028                 5.6550                 5.6691
 IR Inten    --     35.0071                10.4594                35.1697

                     73                     74                     75
                      A                      A                      A
 Frequencies --   3048.5542              3056.9430              3059.8848
 Red. masses --      1.0634                 1.0812                 1.0746
 Frc consts  --      5.8231                 5.9530                 5.9283
 IR Inten    --      8.0899                12.1689                37.5047

                     76                     77                     78
                      A                      A                      A
 Frequencies --   3069.5709              3086.8156              3092.7584
 Red. masses --      1.0655                 1.1032                 1.0984
 Frc consts  --      5.9152                 6.1935                 6.1899
 IR Inten    --     24.6708                31.2768                 1.6005

                     79                     80                     81
                      A                      A                      A
 Frequencies --   3104.5772              3105.5589              3108.2154
 Red. masses --      1.1014                 1.1009                 1.1028
 Frc consts  --      6.2547                 6.2558                 6.2770
 IR Inten    --     35.0073                22.5842                27.5817

                     82                     83                     84
                      A                      A                      A
 Frequencies --   3113.6215              3120.4622              3126.0004
 Red. masses --      1.0991                 1.1002                 1.0984
 Frc consts  --      6.2778                 6.3117                 6.3242
 IR Inten    --     39.5239                21.1181                26.9921

 - Thermochemistry -
 -------------------
 Temperature   298.150 Kelvin.  Pressure   1.00000 Atm.
 Atom     1 has atomic number  6 and mass  12.00000

 Molecular mass:   175.13724 amu.
 Principal axes and moments of inertia in atomic units:
                           1         2         3
     Eigenvalues --  1549.018452659.026923383.23609
           X            0.99932   0.03579  -0.00925
           Y           -0.03578   0.99936   0.00110
           Z            0.00928  -0.00077   0.99996
 This molecule is an asymmetric top.
 Rotational symmetry number  1.
 Warning -- assumption of classical behavior for rotation
           may cause significant error
 Rotational temperatures (Kelvin)      0.05592     0.03257     0.02560
 Rotational constants (GHZ):           1.16509     0.67872     0.53344
 Zero-point vibrational energy     695784.9 (Joules/Mol)
                                  166.29658 (Kcal/Mol)
 Warning -- explicit consideration of  20 degrees of freedom as
           vibrations may cause significant error
 Vibrational temperatures:     72.22   107.56   148.36   177.44   196.70
          (Kelvin)            262.52   273.27   322.30   346.83   373.94
                              395.73   427.31   435.81   477.38   492.75
                              581.57   613.72   686.20   768.29   870.81
                              932.42  1053.96  1110.16  1173.03  1233.74
                             1303.33  1332.23  1374.42  1389.65  1419.71
                             1458.54  1462.67  1480.06  1502.58  1521.10
                             1552.39  1626.61  1660.20  1677.49  1685.29
                             1726.94  1755.39  1768.55  1789.78  1815.69
                             1821.72  1839.97  1906.20  1915.12  1958.53
                             1985.26  1997.15  2001.69  2021.35  2035.56
                             2100.11  2124.67  2134.92  2147.47  2158.86
                             2160.86  2168.74  2175.74  2183.63  2199.37
                             2211.02  4209.56  4223.06  4354.88  4369.17
                             4376.36  4381.32  4386.19  4398.26  4402.49
                             4416.43  4441.24  4449.79  4466.79  4468.21
                             4472.03  4479.81  4489.65  4497.62

 Zero-point correction=                           0.265010 (Hartree/Particle)
 Thermal correction to Energy=                    0.278619
 Thermal correction to Enthalpy=                  0.279563
 Thermal correction to Gibbs Free Energy=         0.225457
 Sum of electronic and zero-point Energies=           -583.249344
 Sum of electronic and thermal Energies=              -583.235735
 Sum of electronic and thermal Enthalpies=            -583.234791
 Sum of electronic and thermal Free Energies=         -583.288897

                     E (Thermal)             CV                S
                      KCal/Mol        Cal/Mol-Kelvin    Cal/Mol-Kelvin
 Total                  174.836             51.130            113.875
 Electronic               0.000              0.000              0.000
 Translational            0.889              2.981             41.388
 Rotational               0.889              2.981             31.011
 Vibrational            173.058             45.168             41.475
 Vibration     1          0.595              1.978              4.810
 Vibration     2          0.599              1.966              4.024
 Vibration     3          0.605              1.947              3.395
 Vibration     4          0.610              1.930              3.048
 Vibration     5          0.614              1.917              2.849
 Vibration     6          0.630              1.864              2.303
 Vibration     7          0.633              1.854              2.228
 Vibration     8          0.649              1.804              1.926
 Vibration     9          0.658              1.777              1.795
 Vibration    10          0.668              1.746              1.662
 Vibration    11          0.677              1.719              1.564
 Vibration    12          0.691              1.679              1.434
 Vibration    13          0.694              1.668              1.401
 Vibration    14          0.714              1.612              1.251
 Vibration    15          0.722              1.591              1.201
 Vibration    16          0.769              1.461              0.947
 Vibration    17          0.788              1.412              0.870
 Vibration    18          0.834              1.301              0.718
 Vibration    19          0.889              1.175              0.578
 Vibration    20          0.964              1.021              0.441

                           ! Non-Optimized Parameters !
 Normal termination of Gaussian 16 at Tue May 23 15:28:26 2023.
