 Gaussian 16, Revision A.03,
 Gaussian 16:  ES64L-G16RevA.03 25-Dec-2016

 -----------------------------
 # opt freq b3lyp/6-31g(2df,p)
 -----------------------------

 -------------------
 Title Card Required
 -------------------
 Symbolic Z-matrix:
 Charge =  0 Multiplicity = 1

 SCF Done:  E(RB3LYP) =  -869.933646599     A.U. after   12 cycles
 SCF Done:  E(RB3LYP) =  -869.943195898     A.U. after   10 cycles
 SCF Done:  E(RB3LYP) =  -869.946705478     A.U. after   10 cycles
 SCF Done:  E(RB3LYP) =  -869.947765726     A.U. after   10 cycles
 SCF Done:  E(RB3LYP) =  -869.948888432     A.U. after   10 cycles
 SCF Done:  E(RB3LYP) =  -869.950190349     A.U. after   10 cycles
 SCF Done:  E(RB3LYP) =  -869.952248786     A.U. after   11 cycles
 SCF Done:  E(RB3LYP) =  -869.953064313     A.U. after   11 cycles
 SCF Done:  E(RB3LYP) =  -869.955270720     A.U. after   11 cycles
 SCF Done:  E(RB3LYP) =  -869.956421300     A.U. after    9 cycles
 SCF Done:  E(RB3LYP) =  -869.958033423     A.U. after   10 cycles
 SCF Done:  E(RB3LYP) =  -869.957431017     A.U. after   10 cycles
 SCF Done:  E(RB3LYP) =  -869.958121627     A.U. after   10 cycles
 SCF Done:  E(RB3LYP) =  -869.958229128     A.U. after    9 cycles
 SCF Done:  E(RB3LYP) =  -869.958239923     A.U. after    8 cycles
 SCF Done:  E(RB3LYP) =  -869.958242580     A.U. after    8 cycles
 SCF Done:  E(RB3LYP) =  -869.958245079     A.U. after    8 cycles
 SCF Done:  E(RB3LYP) =  -869.958245515     A.U. after    6 cycles
 SCF Done:  E(RB3LYP) =  -869.958245566     A.U. after    5 cycles
 Optimization completed.
    -- Stationary point found.
 Normal termination of Gaussian 16 at Tue May 23 20:36:59 2023.

 ----------------------------------------------------------------------
 #N Geom=AllCheck Guess=TCheck SCRF=Check GenChk RB3LYP/6-31G(2df,p) Fr
 eq
 ----------------------------------------------------------------------

 Structure from the checkpoint file:  "CCC1CCCCCCCqCrSC1.chk"
 -------------------
 Title Card Required
 -------------------
 Charge =  0 Multiplicity = 1

                         Standard orientation:
 ---------------------------------------------------------------------
 Center     Atomic      Atomic             Coordinates (Angstroms)
 Number     Number       Type             X           Y           Z
 ---------------------------------------------------------------------
      1          6           0       -3.995867    0.218030   -0.356852
      2          6           0       -2.789738   -0.726995   -0.389055
      3          6           0       -1.801265   -0.541481    0.776405
      4          6           0       -0.760035   -1.678010    0.856647
      5          6           0        0.031178   -2.026827   -0.424800
      6          6           0        1.390714   -2.701970   -0.118060
      7          6           0        2.627235   -1.774390   -0.190435
      8          6           0        2.422184   -0.342628    0.366139
      9          6           0        2.219280    0.716612   -0.740648
     10          6           0        1.324324    1.926017   -0.406507
     11          6           0        1.668727    2.616425    0.913920
     12         16           0       -0.494118    1.639185   -0.661559
     13          6           0       -1.198327    0.882088    0.870607
     14          1           0       -4.697723   -0.019488   -1.162401
     15          1           0       -3.699752    1.264240   -0.483820
     16          1           0       -4.540342    0.137887    0.591380
     17          1           0       -2.259143   -0.607242   -1.339951
     18          1           0       -3.148141   -1.764268   -0.365717
     19          1           0       -2.390932   -0.623795    1.703816
     20          1           0       -1.274981   -2.587545    1.194265
     21          1           0       -0.060666   -1.434977    1.665996
     22          1           0        0.182701   -1.130716   -1.030157
     23          1           0       -0.579628   -2.695328   -1.040777
     24          1           0        1.558756   -3.539319   -0.804758
     25          1           0        1.337810   -3.151809    0.882072
     26          1           0        2.954980   -1.695552   -1.234672
     27          1           0        3.451975   -2.266531    0.337243
     28          1           0        3.286707   -0.056442    0.974276
     29          1           0        1.573442   -0.336542    1.053224
     30          1           0        1.814608    0.243830   -1.640132
     31          1           0        3.205336    1.106920   -1.030627
     32          1           0        1.475828    2.656249   -1.210389
     33          1           0        1.499359    1.968092    1.778181
     34          1           0        1.075681    3.524138    1.048711
     35          1           0        2.730284    2.891734    0.922447
     36          1           0       -1.984184    1.575291    1.179960
     37          1           0       -0.436544    0.912990    1.652609
 ---------------------------------------------------------------------

 SCF Done:  E(RB3LYP) =  -869.958245566     A.U. after    1 cycles

 The electronic state is 1-A.
 Alpha  occ. eigenvalues --  -88.85128 -10.21509 -10.20266 -10.18548 -10.17986
 Alpha  occ. eigenvalues --  -10.17913 -10.17584 -10.17472 -10.17332 -10.17269
 Alpha  occ. eigenvalues --  -10.17214 -10.16785 -10.16771  -7.91446  -5.87934
 Alpha  occ. eigenvalues --   -5.87567  -5.86984  -0.82560  -0.80502  -0.78840
 Alpha  occ. eigenvalues --   -0.74410  -0.72701  -0.70984  -0.67961  -0.63366
 Alpha  occ. eigenvalues --   -0.62765  -0.60565  -0.55857  -0.54775  -0.52495
 Alpha  occ. eigenvalues --   -0.47879  -0.46636  -0.45804  -0.44417  -0.43305
 Alpha  occ. eigenvalues --   -0.42610  -0.41583  -0.41146  -0.39622  -0.39407
 Alpha  occ. eigenvalues --   -0.38522  -0.37652  -0.36984  -0.35695  -0.34943
 Alpha  occ. eigenvalues --   -0.34745  -0.34270  -0.32687  -0.32291  -0.31959
 Alpha  occ. eigenvalues --   -0.31281  -0.30189  -0.29929  -0.28912  -0.27757
 Alpha  occ. eigenvalues --   -0.20846
 Alpha virt. eigenvalues --    0.04376   0.06741   0.07475   0.08982   0.09915
 Alpha virt. eigenvalues --    0.10157   0.12127   0.12300   0.13103   0.13657
 Alpha virt. eigenvalues --    0.14236   0.14650   0.15024   0.16041   0.16636

 Mulliken charges:
               1
     1  C   -0.400823
     2  C   -0.167373
     3  C    0.016514
     4  C   -0.207029
     5  C   -0.188328
     6  C   -0.201145
     7  C   -0.197005
     8  C   -0.184571
     9  C   -0.194015
    10  C    0.006845
    11  C   -0.395637
    12  S   -0.201152
    13  C   -0.213916
    14  H    0.112161
    15  H    0.129599
    16  H    0.108265
    17  H    0.121590
    18  H    0.087213
    19  H    0.070556
    20  H    0.089144
    21  H    0.089145
    22  H    0.130339
    23  H    0.090621
    24  H    0.090711
    25  H    0.091606
    26  H    0.095203
    27  H    0.090674
    28  H    0.092312
    29  H    0.100709
    30  H    0.113814
    31  H    0.091940
    32  H    0.114820
    33  H    0.124889
    34  H    0.128679
    35  H    0.115689
    36  H    0.129148
    37  H    0.118812
 Sum of Mulliken charges =  -0.00000

 Dipole moment (field-independent basis, Debye):
    X=              0.9382    Y=             -0.4377    Z=              1.1578  Tot=              1.5531
 Quadrupole moment (field-independent basis, Debye-Ang):
   XX=            -89.3974   YY=            -93.0524   ZZ=            -91.6588
   XY=              3.6311   XZ=             -1.7643   YZ=              1.5279

  Exact polarizability: 168.118   3.755 148.488  -1.286  -0.952 121.656
 Approx polarizability: 224.123   8.046 204.809  -3.940  -5.261 205.077

                      1                      2                      3
                      A                      A                      A
 Frequencies --     56.5028                61.2876                73.9697
 Red. masses --      2.5177                 3.2879                 3.4879
 Frc consts  --      0.0047                 0.0073                 0.0112
 IR Inten    --      0.1370                 0.3567                 1.0756

                      4                      5                      6
                      A                      A                      A
 Frequencies --    106.3418               130.5148               148.3216
 Red. masses --      2.1659                 2.9053                 3.0997
 Frc consts  --      0.0144                 0.0292                 0.0402
 IR Inten    --      0.0470                 0.0922                 0.6900

                      7                      8                      9
                      A                      A                      A
 Frequencies --    170.6956               194.6162               230.3686
 Red. masses --      2.1249                 2.7014                 2.2924
 Frc consts  --      0.0365                 0.0603                 0.0717
 IR Inten    --      0.2936                 0.2707                 0.2794

                     10                     11                     12
                      A                      A                      A
 Frequencies --    245.8053               253.6216               262.6957
 Red. masses --      1.1263                 1.4673                 1.7400
 Frc consts  --      0.0401                 0.0556                 0.0707
 IR Inten    --      0.0947                 0.3433                 0.2190

                     13                     14                     15
                      A                      A                      A
 Frequencies --    286.4516               296.0116               311.4514
 Red. masses --      2.5925                 2.6066                 2.7038
 Frc consts  --      0.1253                 0.1346                 0.1545
 IR Inten    --      0.1394                 0.0416                 0.3447

                     16                     17                     18
                      A                      A                      A
 Frequencies --    331.7890               360.3171               370.8473
 Red. masses --      2.5767                 1.9795                 2.8600
 Frc consts  --      0.1671                 0.1514                 0.2317
 IR Inten    --      0.7705                 0.0414                 0.8750

                     19                     20                     21
                      A                      A                      A
 Frequencies --    447.5439               473.9981               552.9766
 Red. masses --      2.2264                 2.1785                 3.1870
 Frc consts  --      0.2627                 0.2884                 0.5742
 IR Inten    --      0.1692                 0.1805                 2.8950

                     22                     23                     24
                      A                      A                      A
 Frequencies --    578.5156               609.2849               679.2025
 Red. masses --      2.8830                 3.0840                 3.4279
 Frc consts  --      0.5685                 0.6745                 0.9317
 IR Inten    --      1.0332                 0.1103                 1.8127

                     25                     26                     27
                      A                      A                      A
 Frequencies --    730.2732               744.8043               769.6044
 Red. masses --      1.5739                 1.5814                 1.5860
 Frc consts  --      0.4945                 0.5169                 0.5535
 IR Inten    --      2.2894                13.6247                 1.4565

                     28                     29                     30
                      A                      A                      A
 Frequencies --    816.7678               821.5227               849.1828
 Red. masses --      1.5541                 1.6172                 1.9391
 Frc consts  --      0.6108                 0.6431                 0.8238
 IR Inten    --      3.2092                 1.0716                 3.0128

                     31                     32                     33
                      A                      A                      A
 Frequencies --    864.4249               876.0489               927.6590
 Red. masses --      1.7972                 2.7462                 1.9350
 Frc consts  --      0.7912                 1.2417                 0.9811
 IR Inten    --      0.6290                 0.8625                 1.3272

                     34                     35                     36
                      A                      A                      A
 Frequencies --    944.1300               953.9454               976.6594
 Red. masses --      2.2144                 1.8834                 1.8586
 Frc consts  --      1.1630                 1.0098                 1.0446
 IR Inten    --      1.9012                 3.6609                 0.9287

                     37                     38                     39
                      A                      A                      A
 Frequencies --   1009.7223              1026.8816              1044.0585
 Red. masses --      1.6392                 1.7797                 2.5296
 Frc consts  --      0.9847                 1.1057                 1.6246
 IR Inten    --      0.1464                 2.7088                 0.2204

                     40                     41                     42
                      A                      A                      A
 Frequencies --   1055.4875              1064.3680              1076.5047
 Red. masses --      1.7067                 1.7406                 2.0229
 Frc consts  --      1.1202                 1.1618                 1.3812
 IR Inten    --      1.1122                 2.9112                 2.2206

                     43                     44                     45
                      A                      A                      A
 Frequencies --   1096.4247              1099.2405              1123.3230
 Red. masses --      1.9348                 1.7923                 2.1170
 Frc consts  --      1.3704                 1.2760                 1.5739
 IR Inten    --      0.9420                 3.4614                 2.3092

                     46                     47                     48
                      A                      A                      A
 Frequencies --   1137.8069              1143.7628              1191.0143
 Red. masses --      1.9565                 1.9689                 1.1507
 Frc consts  --      1.4924                 1.5176                 0.9617
 IR Inten    --      2.5019                 6.5087                 0.3073

                     49                     50                     51
                      A                      A                      A
 Frequencies --   1202.8138              1229.7083              1243.5720
 Red. masses --      1.2699                 1.3720                 1.2274
 Frc consts  --      1.0825                 1.2224                 1.1183
 IR Inten    --      2.8731                 0.2766                 4.2406

                     52                     53                     54
                      A                      A                      A
 Frequencies --   1267.4961              1283.6343              1288.9018
 Red. masses --      1.2782                 1.2411                 1.2707
 Frc consts  --      1.2099                 1.2049                 1.2437
 IR Inten    --      8.5075                 3.5462                 0.5992

                     55                     56                     57
                      A                      A                      A
 Frequencies --   1293.0717              1300.8922              1310.9469
 Red. masses --      1.2222                 1.2453                 1.1461
 Frc consts  --      1.2040                 1.2417                 1.1605
 IR Inten    --     23.0581                 0.9362                 1.1866

                     58                     59                     60
                      A                      A                      A
 Frequencies --   1335.7863              1336.0831              1340.4177
 Red. masses --      1.2167                 1.2729                 1.3036
 Frc consts  --      1.2791                 1.3388                 1.3800
 IR Inten    --      6.3570                 3.5905                 2.7431

                     61                     62                     63
                      A                      A                      A
 Frequencies --   1341.9022              1374.3195              1378.6541
 Red. masses --      1.2176                 1.3633                 1.3081
 Frc consts  --      1.2918                 1.5171                 1.4649
 IR Inten    --      4.5578                 2.9900                 0.2131

                     64                     65                     66
                      A                      A                      A
 Frequencies --   1384.8981              1389.6907              1395.6553
 Red. masses --      1.3405                 1.4338                 1.3749
 Frc consts  --      1.5148                 1.6315                 1.5778
 IR Inten    --      9.4714                 2.5143                 0.9863

                     67                     68                     69
                      A                      A                      A
 Frequencies --   1404.1347              1410.0654              1413.8118
 Red. masses --      1.4061                 1.2642                 1.2345
 Frc consts  --      1.6333                 1.4809                 1.4539
 IR Inten    --      3.2248                 5.2087                 2.3911

                     70                     71                     72
                      A                      A                      A
 Frequencies --   1458.6650              1482.5197              1486.7346
 Red. masses --      1.0854                 1.0687                 1.0689
 Frc consts  --      1.3606                 1.3840                 1.3920
 IR Inten    --      7.2947                 1.9253                 1.7303

                     73                     74                     75
                      A                      A                      A
 Frequencies --   1489.1864              1491.9433              1492.9111
 Red. masses --      1.0744                 1.0630                 1.0634
 Frc consts  --      1.4039                 1.3941                 1.3964
 IR Inten    --      4.1374                 2.5243                 4.4210

                     76                     77                     78
                      A                      A                      A
 Frequencies --   1500.0077              1501.2787              1505.0438
 Red. masses --      1.0543                 1.0496                 1.0780
 Frc consts  --      1.3977                 1.3938                 1.4386
 IR Inten    --      1.8524                 4.4249                 2.7797

                     79                     80                     81
                      A                      A                      A
 Frequencies --   1507.2576              1509.7604              1513.9796
 Red. masses --      1.0624                 1.0702                 1.0846
 Frc consts  --      1.4220                 1.4372                 1.4647
 IR Inten    --      5.4613                 0.1068                 6.6198

                     82                     83                     84
                      A                      A                      A
 Frequencies --   2965.3140              3002.4933              3010.9834
 Red. masses --      1.0811                 1.0715                 1.0640
 Frc consts  --      5.6007                 5.6913                 5.6835
 IR Inten    --     24.4592                26.6845                 7.6879

                     85                     86                     87
                      A                      A                      A
 Frequencies --   3015.9396              3020.1185              3022.3713
 Red. masses --      1.0651                 1.0676                 1.0651
 Frc consts  --      5.7083                 5.7372                 5.7325
 IR Inten    --     51.0764                23.1082                28.9704

                     88                     89                     90
                      A                      A                      A
 Frequencies --   3028.4103              3030.8109              3034.6114
 Red. masses --      1.0373                 1.0483                 1.0757
 Frc consts  --      5.6052                 5.6736                 5.8366
 IR Inten    --     27.2788                17.8329                12.2460

                     91                     92                     93
                      A                      A                      A
 Frequencies --   3035.8808              3042.2147              3048.0730
 Red. masses --      1.0852                 1.0805                 1.0849
 Frc consts  --      5.8928                 5.8917                 5.9385
 IR Inten    --      0.9021                18.4464                62.8831

                     94                     95                     96
                      A                      A                      A
 Frequencies --   3059.4755              3064.5262              3065.7774
 Red. masses --      1.0826                 1.0669                 1.0953
 Frc consts  --      5.9707                 5.9036                 6.0657
 IR Inten    --     36.3567                14.4767                37.9000

                     97                     98                     99
                      A                      A                      A
 Frequencies --   3068.1176              3079.4011              3096.1368
 Red. masses --      1.0896                 1.0903                 1.0978
 Frc consts  --      6.0432                 6.0916                 6.2001
 IR Inten    --     20.8712                55.5389                41.8114

                    100                    101                    102
                      A                      A                      A
 Frequencies --   3096.2056              3102.6132              3105.3476
 Red. masses --      1.0976                 1.1008                 1.0922
 Frc consts  --      6.1996                 6.2435                 6.2052
 IR Inten    --     10.8565                56.5707                35.0900

                    103                    104                    105
                      A                      A                      A
 Frequencies --   3109.2816              3112.9505              3123.6909
 Red. masses --      1.0951                 1.0996                 1.1017
 Frc consts  --      6.2379                 6.2783                 6.3336
 IR Inten    --     17.4894                 3.6948                21.3093

 - Thermochemistry -
 -------------------
 Temperature   298.150 Kelvin.  Pressure   1.00000 Atm.
 Atom     1 has atomic number  6 and mass  12.00000

 Molecular mass:   200.15987 amu.
 Principal axes and moments of inertia in atomic units:
                           1         2         3
     Eigenvalues --  2274.352073189.973544763.08341
           X            0.99990   0.01400   0.00148
           Y           -0.01403   0.99975   0.01738
           Z           -0.00123  -0.01740   0.99985
 This molecule is an asymmetric top.
 Rotational symmetry number  1.
 Warning -- assumption of classical behavior for rotation
           may cause significant error
 Rotational temperatures (Kelvin)      0.03808     0.02715     0.01818
 Rotational constants (GHZ):           0.79352     0.56575     0.37890
 Zero-point vibrational energy     895902.7 (Joules/Mol)
                                  214.12589 (Kcal/Mol)
 Warning -- explicit consideration of  23 degrees of freedom as
           vibrations may cause significant error
 Vibrational temperatures:     81.29    88.18   106.43   153.00   187.78
          (Kelvin)            213.40   245.59   280.01   331.45   353.66
                              364.90   377.96   412.14   425.89   448.11
                              477.37   518.42   533.57   643.92   681.98
                              795.61   832.35   876.63   977.22  1050.70
                             1071.61  1107.29  1175.15  1181.99  1221.78
                             1243.71  1260.44  1334.69  1358.39  1372.51
                             1405.19  1452.77  1477.45  1502.17  1518.61
                             1531.39  1548.85  1577.51  1581.56  1616.21
                             1637.05  1645.62  1713.60  1730.58  1769.28
                             1789.22  1823.64  1846.86  1854.44  1860.44
                             1871.69  1886.16  1921.90  1922.33  1928.56
                             1930.70  1977.34  1983.58  1992.56  1999.46
                             2008.04  2020.24  2028.77  2034.16  2098.69
                             2133.02  2139.08  2142.61  2146.57  2147.97
                             2158.18  2160.01  2165.42  2168.61  2172.21
                             2178.28  4266.43  4319.92  4332.13  4339.26
                             4345.28  4348.52  4357.21  4360.66  4366.13
                             4367.96  4377.07  4385.50  4401.90  4409.17
                             4410.97  4414.34  4430.57  4454.65  4454.75
                             4463.97  4467.90  4473.56  4478.84  4494.29

 Zero-point correction=                           0.341231 (Hartree/Particle)
 Thermal correction to Energy=                    0.356538
 Thermal correction to Enthalpy=                  0.357482
 Thermal correction to Gibbs Free Energy=         0.299557
 Sum of electronic and zero-point Energies=           -869.617014
 Sum of electronic and thermal Energies=              -869.601708
 Sum of electronic and thermal Enthalpies=            -869.600763
 Sum of electronic and thermal Free Energies=         -869.658689

                     E (Thermal)             CV                S
                      KCal/Mol        Cal/Mol-Kelvin    Cal/Mol-Kelvin
 Total                  223.731             59.087            121.915
 Electronic               0.000              0.000              0.000
 Translational            0.889              2.981             41.787
 Rotational               0.889              2.981             31.914
 Vibrational            221.953             53.125             48.215
 Vibration     1          0.596              1.975              4.576
 Vibration     2          0.597              1.973              4.415
 Vibration     3          0.599              1.966              4.045
 Vibration     4          0.605              1.944              3.335
 Vibration     5          0.612              1.923              2.938
 Vibration     6          0.618              1.904              2.694
 Vibration     7          0.626              1.879              2.428
 Vibration     8          0.635              1.847              2.183
 Vibration     9          0.652              1.795              1.876
 Vibration    10          0.660              1.770              1.760
 Vibration    11          0.665              1.757              1.705
 Vibration    12          0.670              1.741              1.644
 Vibration    13          0.684              1.699              1.495
 Vibration    14          0.690              1.681              1.439
 Vibration    15          0.700              1.652              1.355
 Vibration    16          0.714              1.612              1.251
 Vibration    17          0.735              1.554              1.121
 Vibration    18          0.743              1.532              1.076
 Vibration    19          0.807              1.366              0.803
 Vibration    20          0.831              1.308              0.726
 Vibration    21          0.908              1.133              0.538
 Vibration    22          0.935              1.078              0.488
 Vibration    23          0.968              1.012              0.434

 Optimization completed.
    -- Stationary point found.
 Normal termination of Gaussian 16 at Tue May 23 23:09:52 2023.
