 Gaussian 16, Revision A.03,
 Gaussian 16:  ES64L-G16RevA.03 25-Dec-2016

 -----------------------------
 # opt freq b3lyp/6-31g(2df,p)
 -----------------------------

 -------------------
 Title Card Required
 -------------------
 Symbolic Z-matrix:
 Charge =  0 Multiplicity = 1

 SCF Done:  E(RB3LYP) =  -732.734169260     A.U. after   12 cycles
 SCF Done:  E(RB3LYP) =  -732.756275701     A.U. after   11 cycles
 SCF Done:  E(RB3LYP) =  -732.777102410     A.U. after   11 cycles
 SCF Done:  E(RB3LYP) =  -732.789900733     A.U. after   11 cycles
 SCF Done:  E(RB3LYP) =  -732.799733348     A.U. after   11 cycles
 SCF Done:  E(RB3LYP) =  -732.811322239     A.U. after   11 cycles
 SCF Done:  E(RB3LYP) =  -732.818975498     A.U. after   12 cycles
 SCF Done:  E(RB3LYP) =  -732.819961818     A.U. after   11 cycles
 SCF Done:  E(RB3LYP) =  -732.822908220     A.U. after   11 cycles
 SCF Done:  E(RB3LYP) =  -732.825770184     A.U. after   11 cycles
 SCF Done:  E(RB3LYP) =  -732.835273792     A.U. after   11 cycles
 SCF Done:  E(RB3LYP) =  -732.836270998     A.U. after   11 cycles
 SCF Done:  E(RB3LYP) =  -732.836325554     A.U. after   10 cycles
 SCF Done:  E(RB3LYP) =  -732.836364925     A.U. after    9 cycles
 SCF Done:  E(RB3LYP) =  -732.836376665     A.U. after    9 cycles
 SCF Done:  E(RB3LYP) =  -732.836378329     A.U. after    7 cycles
 SCF Done:  E(RB3LYP) =  -732.836378265     A.U. after    8 cycles
 SCF Done:  E(RB3LYP) =  -732.836378197     A.U. after    6 cycles
 SCF Done:  E(RB3LYP) =  -732.836378332     A.U. after    6 cycles
 Optimization completed.
    -- Stationary point found.
 Normal termination of Gaussian 16 at Tue May 23 04:31:52 2023.

 ----------------------------------------------------------------------
 #N Geom=AllCheck Guess=TCheck SCRF=Check GenChk RB3LYP/6-31G(2df,p) Fr
 eq
 ----------------------------------------------------------------------

 Structure from the checkpoint file:  "CCC1COCCCqCNqCrCrCC1NO.chk"
 -------------------
 Title Card Required
 -------------------
 Charge =  0 Multiplicity = 1

                         Standard orientation:
 ---------------------------------------------------------------------
 Center     Atomic      Atomic             Coordinates (Angstroms)
 Number     Number       Type             X           Y           Z
 ---------------------------------------------------------------------
      1          6           0       -3.572265    0.419114    2.037399
      2          6           0       -3.086585    0.765696    0.623605
      3          6           0       -1.832945   -0.012192    0.162657
      4          6           0       -2.135700   -1.519377    0.160974
      5          8           0       -1.098826   -2.337751   -0.339566
      6          6           0        0.089260   -2.352568    0.440218
      7          6           0        1.272458   -1.948375   -0.427064
      8          6           0        1.288436   -0.503182   -0.973280
      9          6           0        1.748130    0.535938    0.068464
     10          7           0        2.990664    0.193097    0.751667
     11          6           0        4.160351    0.264435   -0.111047
     12          6           0        3.180872    0.993084    1.952428
     13          6           0        0.025005   -0.093455   -1.795242
     14          6           0       -1.342248    0.460346   -1.231534
     15          7           0       -1.483195    1.921409   -1.344197
     16          8           0       -0.638328    2.631478   -0.442972
     17          1           0       -4.368930    1.105124    2.342263
     18          1           0       -2.761559    0.514051    2.769544
     19          1           0       -3.973182   -0.595876    2.116791
     20          1           0       -2.860611    1.831118    0.577998
     21          1           0       -3.898471    0.598861   -0.097539
     22          1           0       -1.048231    0.188500    0.900363
     23          1           0       -2.998197   -1.713239   -0.489194
     24          1           0       -2.411449   -1.841231    1.175394
     25          1           0        0.244380   -3.372793    0.819775
     26          1           0       -0.004591   -1.699134    1.316890
     27          1           0        1.294494   -2.636192   -1.281251
     28          1           0        2.193117   -2.108194    0.143393
     29          1           0        2.073528   -0.519987   -1.740843
     30          1           0        0.981898    0.674335    0.835429
     31          1           0        1.859254    1.517377   -0.446413
     32          1           0        4.067159   -0.427851   -0.951326
     33          1           0        5.050749   -0.021955    0.456479
     34          1           0        4.330164    1.279667   -0.520778
     35          1           0        2.326708    0.867733    2.624552
     36          1           0        3.293889    2.074479    1.743370
     37          1           0        4.080268    0.659193    2.479367
     38          1           0       -0.220670   -0.972481   -2.396870
     39          1           0        0.353376    0.668029   -2.519220
     40          1           0       -2.093880    0.110451   -1.955581
     41          1           0       -1.212798    2.207979   -2.284467
     42          1           0        0.279916    2.403891   -0.655577
 ---------------------------------------------------------------------

 SCF Done:  E(RB3LYP) =  -732.836378332     A.U. after    1 cycles

 The electronic state is 1-A.
 Alpha  occ. eigenvalues --  -19.15517 -19.12981 -14.35598 -14.32669 -10.22008
 Alpha  occ. eigenvalues --  -10.21881 -10.21221 -10.21040 -10.20416 -10.20346
 Alpha  occ. eigenvalues --  -10.19150 -10.18372 -10.18013 -10.17247 -10.16691
 Alpha  occ. eigenvalues --  -10.16633  -1.04882  -1.02334  -0.92579  -0.84273
 Alpha  occ. eigenvalues --   -0.80242  -0.78165  -0.73974  -0.70932  -0.70776
 Alpha  occ. eigenvalues --   -0.69430  -0.66685  -0.61922  -0.60261  -0.59485
 Alpha  occ. eigenvalues --   -0.56481  -0.53376  -0.52348  -0.49724  -0.48945
 Alpha  occ. eigenvalues --   -0.48132  -0.47336  -0.46204  -0.45456  -0.44209
 Alpha  occ. eigenvalues --   -0.42938  -0.42331  -0.41994  -0.40947  -0.39694
 Alpha  occ. eigenvalues --   -0.39254  -0.38976  -0.38069  -0.37200  -0.37066
 Alpha  occ. eigenvalues --   -0.36785  -0.36357  -0.34996  -0.33770  -0.33353
 Alpha  occ. eigenvalues --   -0.32560  -0.31945  -0.30952  -0.30485  -0.29511
 Alpha  occ. eigenvalues --   -0.27923  -0.23890  -0.22958  -0.21813
 Alpha virt. eigenvalues --    0.05350   0.07235   0.08486   0.10098   0.10383
 Alpha virt. eigenvalues --    0.10727   0.11370   0.11881   0.13235   0.13599
 Alpha virt. eigenvalues --    0.14451   0.14641   0.15103   0.15472   0.16014

 Mulliken charges:
               1
     1  C   -0.400375
     2  C   -0.173091
     3  C   -0.021865
     4  C   -0.076079
     5  O   -0.249893
     6  C   -0.083520
     7  C   -0.199791
     8  C   -0.006728
     9  C   -0.172396
    10  N   -0.042003
    11  C   -0.321264
    12  C   -0.316401
    13  C   -0.271731
    14  C    0.051791
    15  N   -0.217005
    16  O   -0.419826
    17  H    0.112158
    18  H    0.109857
    19  H    0.114707
    20  H    0.138715
    21  H    0.086641
    22  H    0.079054
    23  H    0.099248
    24  H    0.090182
    25  H    0.093275
    26  H    0.092297
    27  H    0.096757
    28  H    0.107729
    29  H    0.078033
    30  H    0.117305
    31  H    0.056250
    32  H    0.124227
    33  H    0.120092
    34  H    0.091013
    35  H    0.120576
    36  H    0.092585
    37  H    0.118070
    38  H    0.120129
    39  H    0.071959
    40  H    0.085202
    41  H    0.222815
    42  H    0.281299
 Sum of Mulliken charges =  -0.00000

 Dipole moment (field-independent basis, Debye):
    X=              2.2039    Y=             -0.3597    Z=             -0.4860  Tot=              2.2853
 Quadrupole moment (field-independent basis, Debye-Ang):
   XX=            -98.3546   YY=           -110.1895   ZZ=            -96.2975
   XY=              4.0312   XZ=             -0.2869   YZ=             -2.7001

  Exact polarizability: 173.834  -1.903 144.342  -0.829  -0.241 140.987
 Approx polarizability: 222.921  -2.100 213.020   4.313   2.159 212.983

                      1                      2                      3
                      A                      A                      A
 Frequencies --     30.8527                46.8459                61.4376
 Red. masses --      3.8406                 2.6353                 2.6974
 Frc consts  --      0.0022                 0.0034                 0.0060
 IR Inten    --      0.2566                 0.1987                 0.5376

                      4                      5                      6
                      A                      A                      A
 Frequencies --     79.6148                86.3372               116.0807
 Red. masses --      3.1518                 2.3799                 4.0939
 Frc consts  --      0.0118                 0.0105                 0.0325
 IR Inten    --      0.1098                 0.1364                 6.0087

                      7                      8                      9
                      A                      A                      A
 Frequencies --    126.6071               165.7884               192.3146
 Red. masses --      2.5498                 2.9977                 3.7247
 Frc consts  --      0.0241                 0.0485                 0.0812
 IR Inten    --      1.3181                 0.1803                 1.5668

                     10                     11                     12
                      A                      A                      A
 Frequencies --    199.2378               212.7537               227.0113
 Red. masses --      2.3343                 4.2524                 1.9654
 Frc consts  --      0.0546                 0.1134                 0.0597
 IR Inten    --      2.0186                 6.2346                 1.7394

                     13                     14                     15
                      A                      A                      A
 Frequencies --    243.3580               249.8525               255.2400
 Red. masses --      1.2718                 1.3942                 1.2125
 Frc consts  --      0.0444                 0.0513                 0.0465
 IR Inten    --      0.6201                 0.7482                 0.6453

                     16                     17                     18
                      A                      A                      A
 Frequencies --    274.4636               307.1720               347.5426
 Red. masses --      2.0776                 3.5389                 2.5685
 Frc consts  --      0.0922                 0.1967                 0.1828
 IR Inten    --      2.0771                 1.2883                12.6063

                     19                     20                     21
                      A                      A                      A
 Frequencies --    364.7847               391.1616               398.7431
 Red. masses --      2.5752                 2.1820                 2.0078
 Frc consts  --      0.2019                 0.1967                 0.1881
 IR Inten    --      3.8960                 5.3121                 0.3364

                     22                     23                     24
                      A                      A                      A
 Frequencies --    403.5050               420.6107               443.7520
 Red. masses --      2.5671                 2.2795                 2.1150
 Frc consts  --      0.2463                 0.2376                 0.2454
 IR Inten    --      0.2444                55.0226                11.3300

                     25                     26                     27
                      A                      A                      A
 Frequencies --    452.5887               496.1248               524.3905
 Red. masses --      1.6722                 2.3142                 2.0834
 Frc consts  --      0.2018                 0.3356                 0.3375
 IR Inten    --     35.8687                33.7425                11.8751

                     28                     29                     30
                      A                      A                      A
 Frequencies --    565.0234               606.4922               673.5395
 Red. masses --      3.3120                 2.8314                 3.1037
 Frc consts  --      0.6230                 0.6136                 0.8296
 IR Inten    --      2.5915                 4.2585                 0.5587

                     31                     32                     33
                      A                      A                      A
 Frequencies --    738.0753               765.6480               778.0252
 Red. masses --      2.5630                 1.6726                 1.9309
 Frc consts  --      0.8226                 0.5777                 0.6887
 IR Inten    --      6.1360                 2.4333                 3.8524

                     34                     35                     36
                      A                      A                      A
 Frequencies --    837.1420               848.8241               873.6549
 Red. masses --      2.2822                 2.6476                 3.1240
 Frc consts  --      0.9423                 1.1239                 1.4049
 IR Inten    --     31.3017                18.4380                16.9442

                     37                     38                     39
                      A                      A                      A
 Frequencies --    884.7413               911.4930               923.6594
 Red. masses --      2.3861                 2.1179                 1.8903
 Frc consts  --      1.1005                 1.0367                 0.9502
 IR Inten    --      8.0830                 1.7243                 5.4892

                     40                     41                     42
                      A                      A                      A
 Frequencies --    971.2453               986.5803               990.7822
 Red. masses --      2.0056                 1.9230                 1.7912
 Frc consts  --      1.1147                 1.1028                 1.0360
 IR Inten    --      9.2453                 3.1537                 3.5140

                     43                     44                     45
                      A                      A                      A
 Frequencies --   1014.1554              1015.2870              1039.8842
 Red. masses --      2.2280                 1.9767                 2.3496
 Frc consts  --      1.3501                 1.2005                 1.4970
 IR Inten    --      3.4482                26.8831                 5.7840

                     46                     47                     48
                      A                      A                      A
 Frequencies --   1058.5636              1067.1698              1073.6710
 Red. masses --      2.1366                 2.1634                 2.3726
 Frc consts  --      1.4106                 1.4516                 1.6115
 IR Inten    --     64.5620                13.4557                10.7429

                     49                     50                     51
                      A                      A                      A
 Frequencies --   1074.2083              1109.7023              1119.3438
 Red. masses --      2.6539                 2.3468                 1.3598
 Frc consts  --      1.8043                 1.7027                 1.0038
 IR Inten    --     11.1308                 8.4496                 5.2208

                     52                     53                     54
                      A                      A                      A
 Frequencies --   1130.0967              1148.4415              1151.0624
 Red. masses --      1.9590                 2.4451                 2.8954
 Frc consts  --      1.4741                 1.9000                 2.2603
 IR Inten    --      7.1075                 5.2166               114.5810

                     55                     56                     57
                      A                      A                      A
 Frequencies --   1156.7078              1163.4294              1190.4929
 Red. masses --      2.0060                 1.8437                 1.8768
 Frc consts  --      1.5813                 1.4703                 1.5672
 IR Inten    --      5.9282                 7.0097                25.2994

                     58                     59                     60
                      A                      A                      A
 Frequencies --   1210.1647              1247.8200              1264.3942
 Red. masses --      1.9886                 1.3287                 1.1932
 Frc consts  --      1.7158                 1.2190                 1.1239
 IR Inten    --      3.1570                21.6151                 9.7405

                     61                     62                     63
                      A                      A                      A
 Frequencies --   1279.9126              1284.8398              1296.1154
 Red. masses --      1.3614                 1.3438                 1.6759
 Frc consts  --      1.3140                 1.3071                 1.6588
 IR Inten    --      9.6985                 6.3882                14.7942

                     64                     65                     66
                      A                      A                      A
 Frequencies --   1311.2875              1320.2854              1329.0469
 Red. masses --      1.4830                 1.3125                 1.1999
 Frc consts  --      1.5024                 1.3480                 1.2487
 IR Inten    --      7.8990                 8.4498                 0.3743

                     67                     68                     69
                      A                      A                      A
 Frequencies --   1340.0975              1345.2802              1358.3811
 Red. masses --      1.2222                 1.1896                 1.2542
 Frc consts  --      1.2932                 1.2685                 1.3635
 IR Inten    --      2.1199                 5.7253                10.1563

                     70                     71                     72
                      A                      A                      A
 Frequencies --   1363.9123              1372.5158              1378.4338
 Red. masses --      1.2168                 1.3063                 1.3618
 Frc consts  --      1.3337                 1.4499                 1.5245
 IR Inten    --      3.3027                22.8425                 1.7876

                     73                     74                     75
                      A                      A                      A
 Frequencies --   1383.0031              1397.1574              1408.0964
 Red. masses --      1.3009                 1.2949                 1.4198
 Frc consts  --      1.4660                 1.4892                 1.6586
 IR Inten    --      0.8660                 2.1061                 4.1697

                     76                     77                     78
                      A                      A                      A
 Frequencies --   1410.5916              1414.9428              1420.2966
 Red. masses --      1.2657                 1.2570                 1.3239
 Frc consts  --      1.4839                 1.4827                 1.5735
 IR Inten    --     12.3798                 7.3035                 3.2276

                     79                     80                     81
                      A                      A                      A
 Frequencies --   1425.7517              1445.2937              1463.2865
 Red. masses --      1.3344                 1.1579                 1.1015
 Frc consts  --      1.5982                 1.4251                 1.3896
 IR Inten    --      0.2186                 1.2673                 4.9547

                     82                     83                     84
                      A                      A                      A
 Frequencies --   1469.2170              1473.9391              1482.9034
 Red. masses --      1.1199                 1.1110                 1.0687
 Frc consts  --      1.4243                 1.4221                 1.3846
 IR Inten    --      5.9728                 8.1459                 1.3831

                     85                     86                     87
                      A                      A                      A
 Frequencies --   1483.5453              1490.0130              1495.5648
 Red. masses --      1.0471                 1.0737                 1.0809
 Frc consts  --      1.3578                 1.4044                 1.4244
 IR Inten    --      8.1653                 6.3347                 3.8588

                     88                     89                     90
                      A                      A                      A
 Frequencies --   1499.6522              1501.6963              1504.2299
 Red. masses --      1.0531                 1.0968                 1.1007
 Frc consts  --      1.3954                 1.4572                 1.4674
 IR Inten    --      7.7780                 0.4288                 9.6948

                     91                     92                     93
                      A                      A                      A
 Frequencies --   1506.0827              1510.3256              1512.8665
 Red. masses --      1.1221                 1.0653                 1.0662
 Frc consts  --      1.4997                 1.4318                 1.4378
 IR Inten    --      3.1077                 3.7915                 9.3625

                     94                     95                     96
                      A                      A                      A
 Frequencies --   1514.4399              2829.0981              2914.3190
 Red. masses --      1.0762                 1.0719                 1.0610
 Frc consts  --      1.4543                 5.0547                 5.3094
 IR Inten    --      3.7732               120.8637                44.7629

                     97                     98                     99
                      A                      A                      A
 Frequencies --   2926.1478              2978.8821              2989.7264
 Red. masses --      1.0614                 1.0736                 1.0826
 Frc consts  --      5.3546                 5.6132                 5.7015
 IR Inten    --    127.8027                29.5549                19.0486

                    100                    101                    102
                      A                      A                      A
 Frequencies --   2992.0036              2999.2601              3005.8835
 Red. masses --      1.0604                 1.0640                 1.0796
 Frc consts  --      5.5928                 5.6391                 5.7474
 IR Inten    --     41.9456                79.7939                36.2709

                    103                    104                    105
                      A                      A                      A
 Frequencies --   3018.4147              3028.7630              3029.3817
 Red. masses --      1.0725                 1.0764                 1.0376
 Frc consts  --      5.7571                 5.8180                 5.6104
 IR Inten    --     13.0334                 3.9651                31.6987

                    106                    107                    108
                      A                      A                      A
 Frequencies --   3040.1140              3045.8505              3060.1771
 Red. masses --      1.0865                 1.0906                 1.0705
 Frc consts  --      5.9167                 5.9613                 5.9067
 IR Inten    --     19.2202                43.1863                35.5486

                    109                    110                    111
                      A                      A                      A
 Frequencies --   3061.4872              3071.9985              3084.4152
 Red. masses --      1.0918                 1.0700                 1.0918
 Frc consts  --      6.0293                 5.9495                 6.1198
 IR Inten    --     59.2709                32.1808                 8.3078

                    112                    113                    114
                      A                      A                      A
 Frequencies --   3086.0294              3090.6069              3091.7676
 Red. masses --      1.0945                 1.0867                 1.0964
 Frc consts  --      6.1413                 6.1156                 6.1750
 IR Inten    --     27.8767                22.4120                35.9751

                    115                    116                    117
                      A                      A                      A
 Frequencies --   3097.7743              3106.0598              3115.7036
 Red. masses --      1.1001                 1.1020                 1.1015
 Frc consts  --      6.2198                 6.2642                 6.3002
 IR Inten    --     23.6054                32.3829                30.4858

                    118                    119                    120
                      A                      A                      A
 Frequencies --   3130.6932              3442.9109              3677.9784
 Red. masses --      1.0917                 1.0756                 1.0668
 Frc consts  --      6.3044                 7.5117                 8.5029
 IR Inten    --     19.5121                 4.4473                34.5510

 - Thermochemistry -
 -------------------
 Temperature   298.150 Kelvin.  Pressure   1.00000 Atm.
 Atom     1 has atomic number  6 and mass  12.00000

 Molecular mass:   230.19943 amu.
 Principal axes and moments of inertia in atomic units:
                           1         2         3
     Eigenvalues --  2718.162415176.042265896.41314
           X            0.99991   0.00732  -0.01118
           Y           -0.00718   0.99990   0.01228
           Z            0.01127  -0.01220   0.99986
 This molecule is an asymmetric top.
 Rotational symmetry number  1.
 Warning -- assumption of classical behavior for rotation
           may cause significant error
 Rotational temperatures (Kelvin)      0.03186     0.01673     0.01469
 Rotational constants (GHZ):           0.66396     0.34867     0.30607
 Zero-point vibrational energy    1003763.4 (Joules/Mol)
                                  239.90522 (Kcal/Mol)
 Warning -- explicit consideration of  29 degrees of freedom as
           vibrations may cause significant error
 Vibrational temperatures:     44.39    67.40    88.39   114.55   124.22
          (Kelvin)            167.01   182.16   238.53   276.70   286.66
                              306.11   326.62   350.14   359.48   367.23
                              394.89   441.95   500.04   524.84   562.79
                              573.70   580.55   605.17   638.46   651.17
                              713.81   754.48   812.94   872.61   969.07
                             1061.93  1101.60  1119.40  1204.46  1221.27
                             1256.99  1272.95  1311.44  1328.94  1397.41
                             1419.47  1425.51  1459.14  1460.77  1496.16
                             1523.04  1535.42  1544.77  1545.55  1596.61
                             1610.49  1625.96  1652.35  1656.12  1664.24
                             1673.92  1712.85  1741.16  1795.33  1819.18
                             1841.51  1848.60  1864.82  1886.65  1899.60
                             1912.20  1928.10  1935.56  1954.41  1962.37
                             1974.74  1983.26  1989.83  2010.20  2025.94
                             2029.53  2035.79  2043.49  2051.34  2079.46
                             2105.34  2113.88  2120.67  2133.57  2134.49
                             2143.80  2151.78  2157.66  2160.61  2164.25
                             2166.92  2173.02  2176.68  2178.94  4070.44
                             4193.06  4210.07  4285.95  4301.55  4304.83
                             4315.27  4324.80  4342.83  4357.71  4358.60
                             4374.05  4382.30  4402.91  4404.80  4419.92
                             4437.79  4440.11  4446.69  4448.36  4457.01
                             4468.93  4482.80  4504.37  4953.58  5291.79

 Zero-point correction=                           0.382313 (Hartree/Particle)
 Thermal correction to Energy=                    0.400508
 Thermal correction to Enthalpy=                  0.401452
 Thermal correction to Gibbs Free Energy=         0.336519
 Sum of electronic and zero-point Energies=           -732.454065
 Sum of electronic and thermal Energies=              -732.435871
 Sum of electronic and thermal Enthalpies=            -732.434927
 Sum of electronic and thermal Free Energies=         -732.499859

                     E (Thermal)             CV                S
                      KCal/Mol        Cal/Mol-Kelvin    Cal/Mol-Kelvin
 Total                  251.322             69.511            136.663
 Electronic               0.000              0.000              0.000
 Translational            0.889              2.981             42.203
 Rotational               0.889              2.981             32.784
 Vibrational            249.545             63.549             61.676
 Vibration     1          0.594              1.984              5.774
 Vibration     2          0.595              1.979              4.946
 Vibration     3          0.597              1.973              4.410
 Vibration     4          0.600              1.963              3.900
 Vibration     5          0.601              1.959              3.741
 Vibration     6          0.608              1.936              3.165
 Vibration     7          0.611              1.927              2.997
 Vibration     8          0.624              1.885              2.483
 Vibration     9          0.634              1.851              2.205
 Vibration    10          0.637              1.841              2.140
 Vibration    11          0.644              1.821              2.020
 Vibration    12          0.651              1.800              1.902
 Vibration    13          0.659              1.774              1.778
 Vibration    14          0.663              1.763              1.732
 Vibration    15          0.666              1.754              1.694
 Vibration    16          0.677              1.721              1.568
 Vibration    17          0.697              1.660              1.378
 Vibration    18          0.725              1.580              1.177
 Vibration    19          0.738              1.545              1.102
 Vibration    20          0.759              1.489              0.996
 Vibration    21          0.765              1.473              0.967
 Vibration    22          0.769              1.463              0.950
 Vibration    23          0.783              1.425              0.890
 Vibration    24          0.803              1.375              0.815
 Vibration    25          0.811              1.355              0.788
 Vibration    26          0.852              1.259              0.668
 Vibration    27          0.879              1.196              0.600
 Vibration    28          0.921              1.107              0.514
 Vibration    29          0.965              1.018              0.439

 Optimization completed.
    -- Stationary point found.
 Normal termination of Gaussian 16 at Tue May 23 10:02:59 2023.
