 Gaussian 16, Revision A.03,
 Gaussian 16:  ES64L-G16RevA.03 25-Dec-2016

 -----------------------------
 # opt freq b3lyp/6-31g(2df,p)
 -----------------------------

 -------------------
 Title Card Required
 -------------------
 Symbolic Z-matrix:
 Charge =  0 Multiplicity = 1

 SCF Done:  E(RB3LYP) =  -351.313058549     A.U. after   12 cycles
 SCF Done:  E(RB3LYP) =  -351.329507899     A.U. after   10 cycles
 SCF Done:  E(RB3LYP) =  -351.332673063     A.U. after   10 cycles
 SCF Done:  E(RB3LYP) =  -351.335723600     A.U. after   11 cycles
 SCF Done:  E(RB3LYP) =  -351.335886001     A.U. after   11 cycles
 SCF Done:  E(RB3LYP) =  -351.336712055     A.U. after   11 cycles
 SCF Done:  E(RB3LYP) =  -351.336920411     A.U. after    9 cycles
 SCF Done:  E(RB3LYP) =  -351.336942395     A.U. after    8 cycles
 SCF Done:  E(RB3LYP) =  -351.336941983     A.U. after    7 cycles
 SCF Done:  E(RB3LYP) =  -351.336942591     A.U. after    6 cycles
 Optimization completed.
    -- Stationary point found.
 Normal termination of Gaussian 16 at Sun May 28 06:45:21 2023.

 ----------------------------------------------------------------------
 #N Geom=AllCheck Guess=TCheck SCRF=Check GenChk RB3LYP/6-31G(2df,p) Fr
 eq
 ----------------------------------------------------------------------

 Structure from the checkpoint file:  "CCC1CC2C3CC2C13.chk"
 -------------------
 Title Card Required
 -------------------
 Charge =  0 Multiplicity = 1

                         Standard orientation:
 ---------------------------------------------------------------------
 Center     Atomic      Atomic             Coordinates (Angstroms)
 Number     Number       Type             X           Y           Z
 ---------------------------------------------------------------------
      1          6           0       -2.986181   -0.862988    0.063152
      2          6           0       -2.078353    0.283090   -0.395361
      3          6           0       -0.817133    0.463813    0.459439
      4          6           0        0.085198    1.656991    0.014958
      5          6           0        1.402467    0.925109   -0.230164
      6          6           0        1.593858   -0.165711    0.873827
      7          6           0        2.302561   -1.070315   -0.160412
      8          6           0        1.106296   -0.447986   -0.917546
      9          6           0        0.210802   -0.669486    0.348358
     10          1           0       -3.887436   -0.925344   -0.554942
     11          1           0       -3.305319   -0.721644    1.102097
     12          1           0       -2.478265   -1.830967    0.003273
     13          1           0       -2.648580    1.221006   -0.381449
     14          1           0       -1.784201    0.124508   -1.441773
     15          1           0       -1.125391    0.584821    1.506602
     16          1           0        0.174566    2.430019    0.785319
     17          1           0       -0.293058    2.141792   -0.892453
     18          1           0        2.271494    1.499778   -0.558608
     19          1           0        1.868669    0.005047    1.917361
     20          1           0        2.265338   -2.148905    0.019783
     21          1           0        3.302088   -0.761873   -0.481634
     22          1           0        0.821221   -0.606739   -1.959796
     23          1           0       -0.098221   -1.686600    0.598715
 ---------------------------------------------------------------------

 SCF Done:  E(RB3LYP) =  -351.336942591     A.U. after    1 cycles

 The electronic state is 1-A.
 Alpha  occ. eigenvalues --  -10.18955 -10.18925 -10.18417 -10.18245 -10.17794
 Alpha  occ. eigenvalues --  -10.17631 -10.17420 -10.17009 -10.16916  -0.91668
 Alpha  occ. eigenvalues --   -0.79002  -0.73456  -0.67854  -0.63742  -0.62059
 Alpha  occ. eigenvalues --   -0.59752  -0.54736  -0.51148  -0.49033  -0.47283
 Alpha  occ. eigenvalues --   -0.44109  -0.42279  -0.41006  -0.39772  -0.36903
 Alpha  occ. eigenvalues --   -0.35610  -0.33740  -0.32362  -0.31547  -0.31172
 Alpha  occ. eigenvalues --   -0.29915  -0.29305  -0.28951  -0.28347
 Alpha virt. eigenvalues --    0.09215   0.11582   0.11829   0.12631   0.13507
 Alpha virt. eigenvalues --    0.14056   0.14795   0.15483   0.16003   0.16576
 Alpha virt. eigenvalues --    0.17469   0.18439   0.18721   0.18860   0.19866

 Mulliken charges:
               1
     1  C   -0.385724
     2  C   -0.185974
     3  C    0.017096
     4  C   -0.279502
     5  C    0.010523
     6  C   -0.061811
     7  C   -0.241328
     8  C   -0.052077
     9  C    0.004693
    10  H    0.109925
    11  H    0.112339
    12  H    0.117080
    13  H    0.092065
    14  H    0.092327
    15  H    0.060153
    16  H    0.092748
    17  H    0.091829
    18  H    0.055968
    19  H    0.060308
    20  H    0.085011
    21  H    0.085228
    22  H    0.061773
    23  H    0.057350
 Sum of Mulliken charges =  -0.00000

 Dipole moment (field-independent basis, Debye):
    X=             -0.1276    Y=              0.1100    Z=              0.0347  Tot=              0.1720
 Quadrupole moment (field-independent basis, Debye-Ang):
   XX=            -57.0986   YY=            -56.5863   ZZ=            -56.1296
   XY=              0.1733   XZ=              0.0294   YZ=              0.1140

  Exact polarizability: 102.334  -1.430  87.141  -0.468  -0.029  78.820
 Approx polarizability: 131.012  -0.866 128.579  -0.418   0.113 126.899

                      1                      2                      3
                      A                      A                      A
 Frequencies --     83.1061               132.8856               185.7218
 Red. masses --      2.5222                 1.8905                 2.2324
 Frc consts  --      0.0103                 0.0197                 0.0454
 IR Inten    --      0.0006                 0.0120                 0.0280

                      4                      5                      6
                      A                      A                      A
 Frequencies --    247.7707               322.3597               376.6097
 Red. masses --      1.2601                 2.1046                 2.5527
 Frc consts  --      0.0456                 0.1289                 0.2133
 IR Inten    --      0.0301                 0.3234                 0.2405

                      7                      8                      9
                      A                      A                      A
 Frequencies --    436.1080               474.8712               646.8898
 Red. masses --      2.5458                 2.3535                 3.1504
 Frc consts  --      0.2853                 0.3127                 0.7767
 IR Inten    --      0.2783                 0.0946                 0.0296

                     10                     11                     12
                      A                      A                      A
 Frequencies --    699.5256               755.4768               802.8864
 Red. masses --      3.2908                 2.6073                 1.4678
 Frc consts  --      0.9488                 0.8767                 0.5575
 IR Inten    --      1.4048                 0.1943                 2.2698

                     13                     14                     15
                      A                      A                      A
 Frequencies --    813.0231               840.0545               873.9494
 Red. masses --      2.1051                 2.3534                 2.2952
 Frc consts  --      0.8198                 0.9785                 1.0328
 IR Inten    --      0.3447                 1.4700                 0.4265

                     16                     17                     18
                      A                      A                      A
 Frequencies --    886.0551               913.7740               948.0184
 Red. masses --      2.0295                 2.3358                 3.3155
 Frc consts  --      0.9388                 1.1491                 1.7556
 IR Inten    --      0.7972                 0.2462                 0.2553

                     19                     20                     21
                      A                      A                      A
 Frequencies --    958.4331               969.7572               983.1077
 Red. masses --      1.4013                 1.8747                 2.0268
 Frc consts  --      0.7584                 1.0387                 1.1541
 IR Inten    --      1.3882                 1.2469                 1.0568

                     22                     23                     24
                      A                      A                      A
 Frequencies --   1002.8701              1026.9257              1044.6740
 Red. masses --      1.0559                 1.8759                 1.1725
 Frc consts  --      0.6257                 1.1656                 0.7539
 IR Inten    --      0.1305                 0.7092                 0.0302

                     25                     26                     27
                      A                      A                      A
 Frequencies --   1061.0553              1071.2094              1090.6376
 Red. masses --      1.5314                 1.7266                 1.3077
 Frc consts  --      1.0158                 1.1673                 0.9165
 IR Inten    --      0.0307                 0.2719                 1.8366

                     28                     29                     30
                      A                      A                      A
 Frequencies --   1110.1590              1134.1518              1138.2554
 Red. masses --      3.4289                 1.5868                 1.6981
 Frc consts  --      2.4898                 1.2026                 1.2963
 IR Inten    --      0.1573                 0.5050                 0.7576

                     31                     32                     33
                      A                      A                      A
 Frequencies --   1166.9731              1196.7557              1215.8534
 Red. masses --      1.7985                 1.4997                 1.4601
 Frc consts  --      1.4431                 1.2655                 1.2718
 IR Inten    --      2.7896                 0.0969                 2.0276

                     34                     35                     36
                      A                      A                      A
 Frequencies --   1236.1328              1249.0811              1255.3850
 Red. masses --      1.7051                 1.4807                 1.5728
 Frc consts  --      1.5350                 1.3611                 1.4604
 IR Inten    --      2.2236                 1.6639                 8.0131

                     37                     38                     39
                      A                      A                      A
 Frequencies --   1270.2304              1288.3325              1293.0780
 Red. masses --      1.7072                 1.7262                 1.3963
 Frc consts  --      1.6230                 1.6881                 1.3756
 IR Inten    --      1.9756                 0.4484                 2.3273

                     40                     41                     42
                      A                      A                      A
 Frequencies --   1303.2899              1358.5578              1367.9907
 Red. masses --      1.3365                 1.4332                 1.5483
 Frc consts  --      1.3376                 1.5585                 1.7071
 IR Inten    --      1.6913                12.0936                 4.2052

                     43                     44                     45
                      A                      A                      A
 Frequencies --   1391.5429              1411.7558              1486.3439
 Red. masses --      1.5729                 1.2355                 1.0644
 Frc consts  --      1.7946                 1.4508                 1.3855
 IR Inten    --      0.7946                 2.5875                 0.4185

                     46                     47                     48
                      A                      A                      A
 Frequencies --   1496.2432              1500.1124              1507.1998
 Red. masses --      1.0953                 1.0439                 1.0659
 Frc consts  --      1.4447                 1.3841                 1.4266
 IR Inten    --      1.0171                 3.8294                 3.4427

                     49                     50                     51
                      A                      A                      A
 Frequencies --   1518.1846              3005.5112              3013.3594
 Red. masses --      1.1318                 1.0766                 1.0662
 Frc consts  --      1.5369                 5.7296                 5.7044
 IR Inten    --      0.0251                 7.8625                29.2390

                     52                     53                     54
                      A                      A                      A
 Frequencies --   3030.2164              3034.7517              3039.9240
 Red. masses --      1.0366                 1.0605                 1.0540
 Frc consts  --      5.6080                 5.7545                 5.7387
 IR Inten    --     26.2747                39.1288                70.6811

                     55                     56                     57
                      A                      A                      A
 Frequencies --   3045.0064              3075.0982              3078.3801
 Red. masses --      1.1004                 1.1040                 1.0875
 Frc consts  --      6.0115                 6.1508                 6.0720
 IR Inten    --     26.1608                18.1258                48.2896

                     58                     59                     60
                      A                      A                      A
 Frequencies --   3081.1884              3088.0382              3095.6376
 Red. masses --      1.0882                 1.0879                 1.1004
 Frc consts  --      6.0868                 6.1122                 6.2130
 IR Inten    --     83.4479                80.2362                42.3997

                     61                     62                     63
                      A                      A                      A
 Frequencies --   3098.9873              3099.0725              3103.9501
 Red. masses --      1.0991                 1.1064                 1.0990
 Frc consts  --      6.2191                 6.2609                 6.2384
 IR Inten    --     13.6911                49.2006                50.5022

 - Thermochemistry -
 -------------------
 Temperature   298.150 Kelvin.  Pressure   1.00000 Atm.
 Atom     1 has atomic number  6 and mass  12.00000

 Molecular mass:   122.10955 amu.
 Principal axes and moments of inertia in atomic units:
                           1         2         3
     Eigenvalues --   527.050151469.343781695.73727
           X            0.99997   0.00725  -0.00032
           Y           -0.00725   0.99996  -0.00592
           Z            0.00028   0.00592   0.99998
 This molecule is an asymmetric top.
 Rotational symmetry number  1.
 Warning -- assumption of classical behavior for rotation
           may cause significant error
 Rotational temperatures (Kelvin)      0.16434     0.05895     0.05108
 Rotational constants (GHZ):           3.42423     1.22826     1.06428
 Zero-point vibrational energy     546887.7 (Joules/Mol)
                                  130.70930 (Kcal/Mol)
 Warning -- explicit consideration of   8 degrees of freedom as
           vibrations may cause significant error
 Vibrational temperatures:    119.57   191.19   267.21   356.49   463.80
          (Kelvin)            541.86   627.46   683.23   930.73  1006.46
                             1086.96  1155.17  1169.76  1208.65  1257.42
                             1274.84  1314.72  1363.99  1378.97  1395.26
                             1414.47  1442.91  1477.52  1503.05  1526.62
                             1541.23  1569.18  1597.27  1631.79  1637.70
                             1679.01  1721.86  1749.34  1778.52  1797.15
                             1806.22  1827.58  1853.62  1860.45  1875.14
                             1954.66  1968.23  2002.12  2031.20  2138.52
                             2152.76  2158.33  2168.52  2184.33  4324.26
                             4335.55  4359.81  4366.33  4373.77  4381.09
                             4424.38  4429.10  4433.14  4443.00  4453.93
                             4458.75  4458.87  4465.89

 Zero-point correction=                           0.208299 (Hartree/Particle)
 Thermal correction to Energy=                    0.216235
 Thermal correction to Enthalpy=                  0.217180
 Thermal correction to Gibbs Free Energy=         0.175789
 Sum of electronic and zero-point Energies=           -351.128644
 Sum of electronic and thermal Energies=              -351.120707
 Sum of electronic and thermal Enthalpies=            -351.119763
 Sum of electronic and thermal Free Energies=         -351.161153

                     E (Thermal)             CV                S
                      KCal/Mol        Cal/Mol-Kelvin    Cal/Mol-Kelvin
 Total                  135.690             32.211             87.113
 Electronic               0.000              0.000              0.000
 Translational            0.889              2.981             40.313
 Rotational               0.889              2.981             28.664
 Vibrational            133.912             26.249             18.136
 Vibration     1          0.600              1.961              3.816
 Vibration     2          0.613              1.920              2.904
 Vibration     3          0.632              1.859              2.270
 Vibration     4          0.661              1.766              1.746
 Vibration     5          0.707              1.631              1.298
 Vibration     6          0.747              1.520              1.053
 Vibration     7          0.797              1.392              0.839
 Vibration     8          0.832              1.306              0.724

                           ! Non-Optimized Parameters !
 Normal termination of Gaussian 16 at Sun May 28 07:26:12 2023.
