 Gaussian 16, Revision A.03,
 Gaussian 16:  ES64L-G16RevA.03 25-Dec-2016

 -----------------------------
 # opt freq b3lyp/6-31g(2df,p)
 -----------------------------

 -------------------
 Title Card Required
 -------------------
 Symbolic Z-matrix:
 Charge =  0 Multiplicity = 1

 SCF Done:  E(RB3LYP) =  -352.521228154     A.U. after   12 cycles
 SCF Done:  E(RB3LYP) =  -352.544868298     A.U. after   10 cycles
 SCF Done:  E(RB3LYP) =  -352.550440524     A.U. after   10 cycles
 SCF Done:  E(RB3LYP) =  -352.551594550     A.U. after   10 cycles
 SCF Done:  E(RB3LYP) =  -352.552173030     A.U. after   10 cycles
 SCF Done:  E(RB3LYP) =  -352.552442566     A.U. after    9 cycles
 SCF Done:  E(RB3LYP) =  -352.553489600     A.U. after   10 cycles
 SCF Done:  E(RB3LYP) =  -352.552782524     A.U. after   11 cycles
 SCF Done:  E(RB3LYP) =  -352.554682358     A.U. after    9 cycles
 SCF Done:  E(RB3LYP) =  -352.555227676     A.U. after    9 cycles
 SCF Done:  E(RB3LYP) =  -352.556159379     A.U. after   10 cycles
 SCF Done:  E(RB3LYP) =  -352.556314300     A.U. after    9 cycles
 SCF Done:  E(RB3LYP) =  -352.556324245     A.U. after    8 cycles
 SCF Done:  E(RB3LYP) =  -352.556329012     A.U. after    8 cycles
 SCF Done:  E(RB3LYP) =  -352.556331815     A.U. after    8 cycles
 SCF Done:  E(RB3LYP) =  -352.556332390     A.U. after    6 cycles
 SCF Done:  E(RB3LYP) =  -352.556332489     A.U. after    6 cycles
 Optimization completed.
    -- Stationary point found.
 Normal termination of Gaussian 16 at Sun May 28 22:28:08 2023.

 ----------------------------------------------------------------------
 #N Geom=AllCheck Guess=TCheck SCRF=Check GenChk RB3LYP/6-31G(2df,p) Fr
 eq
 ----------------------------------------------------------------------

 Structure from the checkpoint file:  "CCC12CCqCCrqC1rC2.chk"
 -------------------
 Title Card Required
 -------------------
 Charge =  0 Multiplicity = 1

                         Standard orientation:
 ---------------------------------------------------------------------
 Center     Atomic      Atomic             Coordinates (Angstroms)
 Number     Number       Type             X           Y           Z
 ---------------------------------------------------------------------
      1          6           0       -3.081550   -1.033330   -0.000040
      2          6           0       -2.456721    0.366456    0.000105
      3          6           0       -0.947629    0.353122   -0.000050
      4          6           0        0.000003   -0.268701    1.074034
      5          6           0        0.947665    0.353136   -0.000022
      6          6           0        2.456729    0.366464   -0.000006
      7          6           0        3.081499   -1.033355    0.000054
      8          6           0        0.000028   -0.268324   -1.074308
      9          6           0       -0.000005    1.589776    0.000192
     10          1           0       -4.174405   -0.977976    0.000062
     11          1           0       -2.775854   -1.603223    0.883699
     12          1           0       -2.776009   -1.602960   -0.884004
     13          1           0       -2.806109    0.926331    0.877972
     14          1           0       -2.806381    0.926614   -0.877472
     15          1           0        0.000012   -1.359660    1.158808
     16          1           0       -0.000023    0.206968    2.060424
     17          1           0        2.806240    0.926510    0.877705
     18          1           0        2.806282    0.926444   -0.877739
     19          1           0        2.775663   -1.603142    0.883816
     20          1           0        4.174352   -0.978051    0.000287
     21          1           0        2.776027   -1.603057   -0.883885
     22          1           0        0.000050   -1.359252   -1.159489
     23          1           0        0.000042    0.207679   -2.060541
     24          1           0        0.000016    2.207806   -0.903826
     25          1           0       -0.000015    2.207500    0.904416
 ---------------------------------------------------------------------

 SCF Done:  E(RB3LYP) =  -352.556332489     A.U. after    1 cycles

 The electronic state is 1-A.
 Alpha  occ. eigenvalues --  -10.19568 -10.19566 -10.17517 -10.17517 -10.17506
 Alpha  occ. eigenvalues --  -10.17505 -10.17415 -10.16992 -10.16992  -0.90402
 Alpha  occ. eigenvalues --   -0.76871  -0.75111  -0.65866  -0.65751  -0.64801
 Alpha  occ. eigenvalues --   -0.61916  -0.53118  -0.52642  -0.45498  -0.44750
 Alpha  occ. eigenvalues --   -0.44400  -0.43792  -0.42775  -0.40762  -0.37369
 Alpha  occ. eigenvalues --   -0.37056  -0.35607  -0.35392  -0.34568  -0.34022
 Alpha  occ. eigenvalues --   -0.29907  -0.29899  -0.29297  -0.29040  -0.27865
 Alpha virt. eigenvalues --    0.08762   0.09931   0.12257   0.14057   0.14144
 Alpha virt. eigenvalues --    0.14217   0.14274   0.15033   0.15448   0.16386
 Alpha virt. eigenvalues --    0.16856   0.17585   0.18277   0.19058   0.19539

 Mulliken charges:
               1
     1  C   -0.379721
     2  C   -0.306143
     3  C    0.359522
     4  C   -0.292877
     5  C    0.359533
     6  C   -0.306147
     7  C   -0.379721
     8  C   -0.292900
     9  C   -0.321354
    10  H    0.110277
    11  H    0.117592
    12  H    0.117591
    13  H    0.094921
    14  H    0.094918
    15  H    0.084010
    16  H    0.080373
    17  H    0.094920
    18  H    0.094920
    19  H    0.117595
    20  H    0.110276
    21  H    0.117592
    22  H    0.084012
    23  H    0.080373
    24  H    0.080217
    25  H    0.080219
 Sum of Mulliken charges =   0.00000

 Dipole moment (field-independent basis, Debye):
    X=              0.0000    Y=              0.0253    Z=              0.0000  Tot=              0.0253
 Quadrupole moment (field-independent basis, Debye-Ang):
   XX=            -58.0396   YY=            -58.5439   ZZ=            -57.6040
   XY=              0.0000   XZ=             -0.0001   YZ=              0.0001

  Exact polarizability: 107.117  -0.000  89.547  -0.000   0.000  85.141
 Approx polarizability: 131.465  -0.000 132.531  -0.000  -0.000 133.158

                      1                      2                      3
                      A                      A                      A
 Frequencies --     79.9617                85.8997               112.5808
 Red. masses --      1.8683                 2.6185                 3.0074
 Frc consts  --      0.0070                 0.0114                 0.0225
 IR Inten    --      0.0000                 0.0032                 0.0338

                      4                      5                      6
                      A                      A                      A
 Frequencies --    174.0036               217.9417               220.5127
 Red. masses --      1.2955                 2.8317                 1.1197
 Frc consts  --      0.0231                 0.0792                 0.0321
 IR Inten    --      0.0238                 0.0213                 0.0000

                      7                      8                      9
                      A                      A                      A
 Frequencies --    281.2340               340.6693               374.7590
 Red. masses --      1.4819                 3.2811                 1.9877
 Frc consts  --      0.0691                 0.2244                 0.1645
 IR Inten    --      0.0483                 0.0144                 0.0000

                     10                     11                     12
                      A                      A                      A
 Frequencies --    451.0825               541.6585               543.5704
 Red. masses --      2.7730                 2.0439                 1.7579
 Frc consts  --      0.3324                 0.3533                 0.3060
 IR Inten    --      0.4798                 0.2755                 0.2333

                     13                     14                     15
                      A                      A                      A
 Frequencies --    601.3344               634.1658               739.9005
 Red. masses --      2.5936                 2.6514                 1.8648
 Frc consts  --      0.5526                 0.6283                 0.6015
 IR Inten    --      0.0043                 0.2269                 0.0000

                     16                     17                     18
                      A                      A                      A
 Frequencies --    780.2898               813.7944               822.6145
 Red. masses --      1.2077                 2.5880                 1.4464
 Frc consts  --      0.4332                 1.0098                 0.5767
 IR Inten    --      3.4322                 0.7386                 0.0000

                     19                     20                     21
                      A                      A                      A
 Frequencies --    919.5599               956.2409               960.0447
 Red. masses --      4.3179                 1.9380                 1.2728
 Frc consts  --      2.1512                 1.0441                 0.6912
 IR Inten    --      0.1359                 5.0322                 0.0001

                     22                     23                     24
                      A                      A                      A
 Frequencies --    966.3131               973.6087               993.5906
 Red. masses --      2.0129                 1.7071                 1.0082
 Frc consts  --      1.1074                 0.9534                 0.5864
 IR Inten    --      0.8157                 0.3952                 0.0000

                     25                     26                     27
                      A                      A                      A
 Frequencies --   1013.7843              1058.0489              1070.1380
 Red. masses --      3.9892                 1.1499                 1.6930
 Frc consts  --      2.4156                 0.7584                 1.1423
 IR Inten    --      0.1337                 0.0000                 2.3980

                     28                     29                     30
                      A                      A                      A
 Frequencies --   1093.6693              1097.5958              1106.9660
 Red. masses --      1.8535                 1.6339                 1.5657
 Frc consts  --      1.3062                 1.1597                 1.1304
 IR Inten    --      0.4424                 1.4406                 0.2377

                     31                     32                     33
                      A                      A                      A
 Frequencies --   1143.4070              1144.4962              1170.1346
 Red. masses --      1.3472                 1.3842                 1.5810
 Frc consts  --      1.0378                 1.0683                 1.2754
 IR Inten    --      0.0000                 0.2161                 4.8166

                     34                     35                     36
                      A                      A                      A
 Frequencies --   1184.3119              1186.3239              1207.9082
 Red. masses --      2.5312                 1.6886                 2.1967
 Frc consts  --      2.0918                 1.4002                 1.8884
 IR Inten    --      0.1468                 0.0000                 0.1913

                     37                     38                     39
                      A                      A                      A
 Frequencies --   1299.6111              1301.2307              1312.1325
 Red. masses --      1.1871                 2.0804                 1.2769
 Frc consts  --      1.1813                 2.0754                 1.2953
 IR Inten    --      0.0007                67.4999                 0.0249

                     40                     41                     42
                      A                      A                      A
 Frequencies --   1325.1797              1369.0079              1386.4293
 Red. masses --      1.9150                 1.8601                 2.4425
 Frc consts  --      1.9813                 2.0540                 2.7662
 IR Inten    --      0.8472                 0.3664                 0.8589

                     43                     44                     45
                      A                      A                      A
 Frequencies --   1409.6010              1410.7678              1480.0232
 Red. masses --      1.2311                 1.2439                 1.0697
 Frc consts  --      1.4413                 1.4586                 1.3805
 IR Inten    --      0.5347                 3.5237                 1.6911

                     46                     47                     48
                      A                      A                      A
 Frequencies --   1480.5623              1495.9337              1495.9828
 Red. masses --      1.0686                 1.0949                 1.0956
 Frc consts  --      1.3801                 1.4436                 1.4446
 IR Inten    --      0.0001                 0.1014                 0.3636

                     49                     50                     51
                      A                      A                      A
 Frequencies --   1499.0017              1499.3128              1506.6662
 Red. masses --      1.0393                 1.0401                 1.0678
 Frc consts  --      1.3759                 1.3775                 1.4281
 IR Inten    --      0.0003                10.9022                 5.7203

                     52                     53                     54
                      A                      A                      A
 Frequencies --   1507.2882              1560.0840              3010.9100
 Red. masses --      1.0710                 1.2640                 1.0591
 Frc consts  --      1.4336                 1.8125                 5.6572
 IR Inten    --      0.1233                 0.0054                35.5157

                     55                     56                     57
                      A                      A                      A
 Frequencies --   3011.0394              3027.5667              3030.2569
 Red. masses --      1.0594                 1.0530                 1.0534
 Frc consts  --      5.6589                 5.6868                 5.6992
 IR Inten    --     24.9549                50.9665                66.2346

                     58                     59                     60
                      A                      A                      A
 Frequencies --   3033.4291              3033.4752              3041.4225
 Red. masses --      1.0361                 1.0349                 1.0543
 Frc consts  --      5.6174                 5.6109                 5.7462
 IR Inten    --     47.0181                13.6238                 0.3670

                     61                     62                     63
                      A                      A                      A
 Frequencies --   3041.8509              3042.0404              3090.2071
 Red. masses --      1.1015                 1.1017                 1.1118
 Frc consts  --      6.0048                 6.0070                 6.2554
 IR Inten    --     25.4414                 0.0060                 1.9930

                     64                     65                     66
                      A                      A                      A
 Frequencies --   3096.8077              3098.1138              3101.5822
 Red. masses --      1.1093                 1.1082                 1.1018
 Frc consts  --      6.2680                 6.2673                 6.2449
 IR Inten    --     74.1621                44.3547                 0.0002

                     67                     68                     69
                      A                      A                      A
 Frequencies --   3102.1435              3104.1328              3105.1471
 Red. masses --      1.1021                 1.1014                 1.1020
 Frc consts  --      6.2488                 6.2527                 6.2604
 IR Inten    --     57.7896                68.3862                24.6905

 - Thermochemistry -
 -------------------
 Temperature   298.150 Kelvin.  Pressure   1.00000 Atm.
 Atom     1 has atomic number  6 and mass  12.00000

 Molecular mass:   124.12520 amu.
 Principal axes and moments of inertia in atomic units:
                           1         2         3
     Eigenvalues --   500.288371925.154792090.75773
           X            1.00000  -0.00000  -0.00000
           Y            0.00000   1.00000   0.00000
           Z            0.00000  -0.00000   1.00000
 This molecule is an asymmetric top.
 Rotational symmetry number  1.
 Warning -- assumption of classical behavior for rotation
           may cause significant error
 Rotational temperatures (Kelvin)      0.17313     0.04499     0.04143
 Rotational constants (GHZ):           3.60740     0.93745     0.86320
 Zero-point vibrational energy     600352.2 (Joules/Mol)
                                  143.48763 (Kcal/Mol)
 Warning -- explicit consideration of  13 degrees of freedom as
           vibrations may cause significant error
 Vibrational temperatures:    115.05   123.59   161.98   250.35   313.57
          (Kelvin)            317.27   404.63   490.15   539.19   649.01
                              779.33   782.08   865.19   912.42  1064.55
                             1122.66  1170.87  1183.56  1323.04  1375.82
                             1381.29  1390.31  1400.81  1429.56  1458.61
                             1522.30  1539.69  1573.55  1579.20  1592.68
                             1645.11  1646.67  1683.56  1703.96  1706.86
                             1737.91  1869.85  1872.18  1887.87  1906.64
                             1969.70  1994.76  2028.10  2029.78  2129.42
                             2130.20  2152.31  2152.39  2156.73  2157.18
                             2167.76  2168.65  2244.61  4332.03  4332.21
                             4355.99  4359.86  4364.43  4364.49  4375.93
                             4376.55  4376.82  4446.12  4455.62  4457.49
                             4462.49  4463.29  4466.15  4467.61

 Zero-point correction=                           0.228662 (Hartree/Particle)
 Thermal correction to Energy=                    0.238493
 Thermal correction to Enthalpy=                  0.239437
 Thermal correction to Gibbs Free Energy=         0.193966
 Sum of electronic and zero-point Energies=           -352.327670
 Sum of electronic and thermal Energies=              -352.317839
 Sum of electronic and thermal Enthalpies=            -352.316895
 Sum of electronic and thermal Free Energies=         -352.362367

                     E (Thermal)             CV                S
                      KCal/Mol        Cal/Mol-Kelvin    Cal/Mol-Kelvin
 Total                  149.657             37.869             95.704
 Electronic               0.000              0.000              0.000
 Translational            0.889              2.981             40.362
 Rotational               0.889              2.981             29.089
 Vibrational            147.879             31.908             26.252
 Vibration     1          0.600              1.963              3.892
 Vibration     2          0.601              1.959              3.751
 Vibration     3          0.607              1.939              3.224
 Vibration     4          0.627              1.874              2.392
 Vibration     5          0.646              1.814              1.976
 Vibration     6          0.647              1.810              1.955
 Vibration     7          0.681              1.708              1.526
 Vibration     8          0.720              1.594              1.209
 Vibration     9          0.746              1.524              1.060
 Vibration    10          0.810              1.358              0.793
 Vibration    11          0.897              1.158              0.562
 Vibration    12          0.899              1.154              0.558
 Vibration    13          0.960              1.029              0.447

 Optimization completed.
    -- Stationary point found.
 Normal termination of Gaussian 16 at Sun May 28 23:08:51 2023.
