 Gaussian 16, Revision A.03,
 Gaussian 16:  ES64L-G16RevA.03 25-Dec-2016

 -----------------------------
 # opt freq b3lyp/6-31g(2df,p)
 -----------------------------

 -------------------
 Title Card Required
 -------------------
 Symbolic Z-matrix:
 Charge =  0 Multiplicity = 1

 SCF Done:  E(RB3LYP) =  -637.036200015     A.U. after   12 cycles
 SCF Done:  E(RB3LYP) =  -637.044429697     A.U. after   11 cycles
 SCF Done:  E(RB3LYP) =  -637.046552540     A.U. after   10 cycles
 SCF Done:  E(RB3LYP) =  -637.047696557     A.U. after   10 cycles
 SCF Done:  E(RB3LYP) =  -637.047845900     A.U. after    9 cycles
 SCF Done:  E(RB3LYP) =  -637.047886968     A.U. after    9 cycles
 SCF Done:  E(RB3LYP) =  -637.047903397     A.U. after    9 cycles
 SCF Done:  E(RB3LYP) =  -637.047913244     A.U. after    9 cycles
 SCF Done:  E(RB3LYP) =  -637.047917341     A.U. after    8 cycles
 SCF Done:  E(RB3LYP) =  -637.047918547     A.U. after    7 cycles
 SCF Done:  E(RB3LYP) =  -637.047919305     A.U. after    7 cycles
 SCF Done:  E(RB3LYP) =  -637.047919381     A.U. after    6 cycles
 Optimization completed.
    -- Stationary point found.
 Normal termination of Gaussian 16 at Tue May 23 04:18:04 2023.

 ----------------------------------------------------------------------
 #N Geom=AllCheck Guess=TCheck SCRF=Check GenChk RB3LYP/6-31G(2df,p) Fr
 eq
 ----------------------------------------------------------------------

 Structure from the checkpoint file:  "CCC1OC2COCqCrC2C1CCN.chk"
 -------------------
 Title Card Required
 -------------------
 Charge =  0 Multiplicity = 1

                         Standard orientation:
 ---------------------------------------------------------------------
 Center     Atomic      Atomic             Coordinates (Angstroms)
 Number     Number       Type             X           Y           Z
 ---------------------------------------------------------------------
      1          6           0        0.968065    2.849319   -1.215813
      2          6           0       -0.019390    2.280562   -0.192533
      3          6           0        0.516341    1.055907    0.562725
      4          8           0       -0.324988    0.730160    1.674908
      5          6           0       -1.190078   -0.356526    1.373647
      6          6           0       -2.629395    0.083889    1.078379
      7          8           0       -2.694581    0.303199   -0.323720
      8          6           0       -1.872828   -0.685445   -0.955729
      9          6           0       -2.685184   -1.931460   -1.313634
     10          6           0       -0.710434   -0.972958    0.032248
     11          6           0        0.628302   -0.251981   -0.258180
     12          6           0        1.835935   -1.107313    0.163214
     13          6           0        3.184030   -0.571270   -0.322514
     14          7           0        4.266827   -1.468653    0.096334
     15          1           0        0.565190    3.751398   -1.685938
     16          1           0        1.189613    2.135584   -2.016657
     17          1           0        1.920049    3.119528   -0.744007
     18          1           0       -0.973488    2.030558   -0.667937
     19          1           0       -0.243254    3.043504    0.562216
     20          1           0        1.489283    1.324427    0.994592
     21          1           0       -1.152930   -1.050449    2.220231
     22          1           0       -2.886448    1.015345    1.587610
     23          1           0       -3.339359   -0.699065    1.390398
     24          1           0       -1.504516   -0.224159   -1.878377
     25          1           0       -3.056868   -2.439442   -0.417314
     26          1           0       -2.068270   -2.644085   -1.871384
     27          1           0       -3.543805   -1.657351   -1.932476
     28          1           0       -0.550369   -2.050167    0.115184
     29          1           0        0.714330   -0.032222   -1.328108
     30          1           0        1.724050   -2.126334   -0.224253
     31          1           0        1.849260   -1.192455    1.259410
     32          1           0        3.317740    0.471044    0.014403
     33          1           0        3.181593   -0.542497   -1.419955
     34          1           0        4.350543   -1.447835    1.109401
     35          1           0        5.154225   -1.127976   -0.261743
 ---------------------------------------------------------------------

 SCF Done:  E(RB3LYP) =  -637.047919381     A.U. after    1 cycles

 The electronic state is 1-A.
 Alpha  occ. eigenvalues --  -19.13457 -19.12962 -14.30645 -10.23043 -10.22718
 Alpha  occ. eigenvalues --  -10.22251 -10.21849 -10.20390 -10.18811 -10.18763
 Alpha  occ. eigenvalues --  -10.17814 -10.17561 -10.17253 -10.16875  -1.04045
 Alpha  occ. eigenvalues --   -1.01794  -0.87711  -0.80924  -0.78039  -0.75707
 Alpha  occ. eigenvalues --   -0.74263  -0.69973  -0.66834  -0.62952  -0.59308
 Alpha  occ. eigenvalues --   -0.57930  -0.57150  -0.56378  -0.50466  -0.48545
 Alpha  occ. eigenvalues --   -0.47722  -0.47158  -0.46283  -0.44539  -0.43535
 Alpha  occ. eigenvalues --   -0.43022  -0.41834  -0.41003  -0.39949  -0.39675
 Alpha  occ. eigenvalues --   -0.38494  -0.37110  -0.37028  -0.35554  -0.35302
 Alpha  occ. eigenvalues --   -0.34954  -0.34240  -0.32655  -0.32208  -0.31428
 Alpha  occ. eigenvalues --   -0.30553  -0.29601  -0.25690  -0.23830  -0.23223
 Alpha virt. eigenvalues --    0.08005   0.08095   0.08336   0.09711   0.10477
 Alpha virt. eigenvalues --    0.11524   0.12494   0.12799   0.13511   0.14270
 Alpha virt. eigenvalues --    0.15066   0.15777   0.16190   0.16968   0.17274

 Mulliken charges:
               1
     1  C   -0.391175
     2  C   -0.213897
     3  C    0.110891
     4  O   -0.284831
     5  C    0.101489
     6  C   -0.119810
     7  O   -0.256316
     8  C    0.106792
     9  C   -0.406099
    10  C   -0.088782
    11  C   -0.027729
    12  C   -0.192900
    13  C   -0.161478
    14  N   -0.509446
    15  H    0.117197
    16  H    0.113699
    17  H    0.112420
    18  H    0.124959
    19  H    0.098953
    20  H    0.069725
    21  H    0.075652
    22  H    0.117895
    23  H    0.085189
    24  H    0.078645
    25  H    0.116210
    26  H    0.114671
    27  H    0.124352
    28  H    0.074786
    29  H    0.074070
    30  H    0.103293
    31  H    0.099180
    32  H    0.084085
    33  H    0.100436
    34  H    0.223020
    35  H    0.224855
 Sum of Mulliken charges =  -0.00000

 Dipole moment (field-independent basis, Debye):
    X=              1.1034    Y=             -0.5398    Z=             -0.2494  Tot=              1.2534
 Quadrupole moment (field-independent basis, Debye-Ang):
   XX=            -84.4368   YY=            -89.7369   ZZ=            -86.5752
   XY=              7.0618   XZ=             -0.0154   YZ=             -1.8750

  Exact polarizability: 143.940   3.298 125.588  -3.268  -1.303 115.434
 Approx polarizability: 181.733   1.386 177.728  -4.043  -0.787 180.374

                      1                      2                      3
                      A                      A                      A
 Frequencies --     37.1388                70.0419                73.9998
 Red. masses --      3.5642                 3.8224                 2.7271
 Frc consts  --      0.0029                 0.0110                 0.0088
 IR Inten    --      0.3169                 2.0401                 2.0624

                      4                      5                      6
                      A                      A                      A
 Frequencies --     87.6564                99.1343               134.5996
 Red. masses --      2.6128                 2.2054                 2.0768
 Frc consts  --      0.0118                 0.0128                 0.0222
 IR Inten    --      0.8936                 2.2361                 0.9307

                      7                      8                      9
                      A                      A                      A
 Frequencies --    166.8838               203.6330               220.4349
 Red. masses --      2.6834                 1.6089                 2.2752
 Frc consts  --      0.0440                 0.0393                 0.0651
 IR Inten    --      1.4321                 0.4349                 3.0716

                     10                     11                     12
                      A                      A                      A
 Frequencies --    234.8259               247.5790               254.8687
 Red. masses --      1.8393                 1.2221                 1.6277
 Frc consts  --      0.0598                 0.0441                 0.0623
 IR Inten    --      6.2328                 5.2741                14.4934

                     13                     14                     15
                      A                      A                      A
 Frequencies --    271.9390               278.1834               353.9535
 Red. masses --      2.0977                 2.5106                 2.9881
 Frc consts  --      0.0914                 0.1145                 0.2206
 IR Inten    --     11.5102                 0.9188                 1.2926

                     16                     17                     18
                      A                      A                      A
 Frequencies --    375.2426               401.4446               423.5782
 Red. masses --      2.9823                 2.2842                 4.4492
 Frc consts  --      0.2474                 0.2169                 0.4703
 IR Inten    --      5.0757                 3.1959                 6.9684

                     19                     20                     21
                      A                      A                      A
 Frequencies --    462.9610               549.1804               637.0015
 Red. masses --      3.2013                 2.8740                 4.2525
 Frc consts  --      0.4043                 0.5107                 1.0167
 IR Inten    --     10.0400                 6.5366                 0.2263

                     22                     23                     24
                      A                      A                      A
 Frequencies --    714.0619               744.6114               757.5250
 Red. masses --      4.3223                 2.6223                 1.4057
 Frc consts  --      1.2985                 0.8566                 0.4753
 IR Inten    --      5.2015                 7.9788                 0.6915

                     25                     26                     27
                      A                      A                      A
 Frequencies --    808.2146               815.3555               847.2853
 Red. masses --      1.5576                 2.6884                 2.8791
 Frc consts  --      0.5995                 1.0530                 1.2178
 IR Inten    --     12.3587                17.7091                 0.6204

                     28                     29                     30
                      A                      A                      A
 Frequencies --    848.5041               861.4948               881.7347
 Red. masses --      2.6484                 1.4852                 2.2839
 Frc consts  --      1.1234                 0.6494                 1.0462
 IR Inten    --      8.7847                79.8522                 4.1159

                     31                     32                     33
                      A                      A                      A
 Frequencies --    895.1479               934.8199               943.9142
 Red. masses --      1.8345                 1.8331                 2.2787
 Frc consts  --      0.8661                 0.9438                 1.1962
 IR Inten    --     39.4918                11.6757                18.6389

                     34                     35                     36
                      A                      A                      A
 Frequencies --    980.1373               994.6070              1005.4320
 Red. masses --      2.2934                 2.7702                 2.4680
 Frc consts  --      1.2981                 1.6146                 1.4700
 IR Inten    --     16.4788                10.8582                 7.5934

                     37                     38                     39
                      A                      A                      A
 Frequencies --   1028.8634              1041.9823              1053.6063
 Red. masses --      2.2741                 2.3088                 1.9693
 Frc consts  --      1.4183                 1.4769                 1.2880
 IR Inten    --     24.8833                 4.9685                 0.2260

                     40                     41                     42
                      A                      A                      A
 Frequencies --   1057.3699              1063.9881              1090.3313
 Red. masses --      1.9638                 2.1387                 2.4831
 Frc consts  --      1.2936                 1.4265                 1.7392
 IR Inten    --      6.7587                10.2491                42.9348

                     43                     44                     45
                      A                      A                      A
 Frequencies --   1095.9858              1116.2866              1125.5729
 Red. masses --      1.9164                 2.1729                 1.9563
 Frc consts  --      1.3563                 1.5953                 1.4602
 IR Inten    --      5.0954                17.7741                16.8018

                     46                     47                     48
                      A                      A                      A
 Frequencies --   1137.5101              1146.3305              1154.1674
 Red. masses --      2.7435                 2.8610                 1.8340
 Frc consts  --      2.0915                 2.2151                 1.4395
 IR Inten    --     33.1184                89.2539                 9.6515

                     49                     50                     51
                      A                      A                      A
 Frequencies --   1192.8875              1219.8248              1247.5612
 Red. masses --      1.9232                 1.5170                 1.2674
 Frc consts  --      1.6124                 1.3299                 1.1622
 IR Inten    --      1.7997                15.1520                 9.3608

                     52                     53                     54
                      A                      A                      A
 Frequencies --   1259.1185              1270.0280              1284.0519
 Red. masses --      1.4304                 1.2828                 1.2737
 Frc consts  --      1.3361                 1.2191                 1.2373
 IR Inten    --      4.6522                 1.6414                 0.0219

                     55                     56                     57
                      A                      A                      A
 Frequencies --   1292.5184              1312.5128              1317.4564
 Red. masses --      1.3304                 1.3678                 1.2960
 Frc consts  --      1.3095                 1.3883                 1.3253
 IR Inten    --      1.0513                 0.4926                 1.1638

                     58                     59                     60
                      A                      A                      A
 Frequencies --   1334.7380              1336.5725              1348.7327
 Red. masses --      1.2849                 1.2680                 1.2135
 Frc consts  --      1.3487                 1.3346                 1.3006
 IR Inten    --      0.9222                 4.1251                 0.9705

                     61                     62                     63
                      A                      A                      A
 Frequencies --   1360.5057              1376.1900              1378.8419
 Red. masses --      1.3305                 1.3377                 1.3293
 Frc consts  --      1.4510                 1.4927                 1.4890
 IR Inten    --      1.0798                 0.3617                 7.5029

                     64                     65                     66
                      A                      A                      A
 Frequencies --   1390.2932              1398.4336              1403.8893
 Red. masses --      1.3605                 1.3344                 1.3052
 Frc consts  --      1.5494                 1.5376                 1.5156
 IR Inten    --      4.9089                 0.7680                13.7752

                     67                     68                     69
                      A                      A                      A
 Frequencies --   1409.2597              1414.7139              1432.1254
 Red. masses --      1.3299                 1.2916                 1.4514
 Frc consts  --      1.5562                 1.5230                 1.7539
 IR Inten    --      1.4686                10.7286                12.7218

                     70                     71                     72
                      A                      A                      A
 Frequencies --   1486.8711              1488.5297              1494.3997
 Red. masses --      1.0567                 1.0804                 1.0497
 Frc consts  --      1.3764                 1.4104                 1.3811
 IR Inten    --      2.1295                 1.2066                 2.9252

                     73                     74                     75
                      A                      A                      A
 Frequencies --   1495.7525              1500.9038              1504.9072
 Red. masses --      1.0496                 1.0405                 1.0860
 Frc consts  --      1.3835                 1.3811                 1.4491
 IR Inten    --      2.0204                 4.6586                 1.3898

                     76                     77                     78
                      A                      A                      A
 Frequencies --   1511.9256              1516.3376              1659.0362
 Red. masses --      1.0882                 1.0891                 1.0885
 Frc consts  --      1.4656                 1.4754                 1.7651
 IR Inten    --      4.7587                 2.2238                22.4793

                     79                     80                     81
                      A                      A                      A
 Frequencies --   2948.3535              2972.6682              3007.7034
 Red. masses --      1.0712                 1.0708                 1.0663
 Frc consts  --      5.4863                 5.5751                 5.6832
 IR Inten    --     70.2302                64.1060                10.4983

                     82                     83                     84
                      A                      A                      A
 Frequencies --   3015.1691              3028.2644              3033.1375
 Red. masses --      1.0825                 1.0385                 1.0859
 Frc consts  --      5.7985                 5.6108                 5.8858
 IR Inten    --     41.4942                28.8525                19.6048

                     85                     86                     87
                      A                      A                      A
 Frequencies --   3033.8027              3039.0031              3039.7420
 Red. masses --      1.0358                 1.0833                 1.0629
 Frc consts  --      5.6169                 5.8949                 5.7865
 IR Inten    --     15.3735                 1.8451                18.7304

                     88                     89                     90
                      A                      A                      A
 Frequencies --   3044.8160              3049.2042              3066.8313
 Red. masses --      1.0859                 1.0856                 1.0992
 Frc consts  --      5.9316                 5.9467                 6.0914
 IR Inten    --     78.1659                11.5424                37.1651

                     91                     92                     93
                      A                      A                      A
 Frequencies --   3077.2495              3080.7673              3099.9049
 Red. masses --      1.0979                 1.0867                 1.1019
 Frc consts  --      6.1254                 6.0769                 6.2384
 IR Inten    --      1.7761                33.3742                38.2125

                     94                     95                     96
                      A                      A                      A
 Frequencies --   3102.0737              3103.1211              3106.7269
 Red. masses --      1.1001                 1.0998                 1.0933
 Frc consts  --      6.2371                 6.2399                 6.2175
 IR Inten    --     42.6464                34.9014                14.1212

                     97                     98                     99
                      A                      A                      A
 Frequencies --   3118.1485              3482.6821              3560.2142
 Red. masses --      1.1017                 1.0496                 1.0917
 Frc consts  --      6.3110                 7.5008                 8.1525
 IR Inten    --     23.5686                 0.9262                 0.1686

 - Thermochemistry -
 -------------------
 Temperature   298.150 Kelvin.  Pressure   1.00000 Atm.
 Atom     1 has atomic number  6 and mass  12.00000

 Molecular mass:   199.15723 amu.
 Principal axes and moments of inertia in atomic units:
                           1         2         3
     Eigenvalues --  1957.344573917.948604621.19211
           X            0.99974   0.02280  -0.00039
           Y           -0.02281   0.99941  -0.02579
           Z           -0.00019   0.02579   0.99967
 This molecule is an asymmetric top.
 Rotational symmetry number  1.
 Warning -- assumption of classical behavior for rotation
           may cause significant error
 Rotational temperatures (Kelvin)      0.04425     0.02211     0.01874
 Rotational constants (GHZ):           0.92204     0.46063     0.39054
 Zero-point vibrational energy     827682.0 (Joules/Mol)
                                  197.82074 (Kcal/Mol)
 Warning -- explicit consideration of  20 degrees of freedom as
           vibrations may cause significant error
 Vibrational temperatures:     53.43   100.77   106.47   126.12   142.63
          (Kelvin)            193.66   240.11   292.98   317.16   337.86
                              356.21   366.70   391.26   400.24   509.26
                              539.89   577.59   609.43   666.10   790.15
                              916.50  1027.38  1071.33  1089.91  1162.84
                             1173.11  1219.05  1220.81  1239.50  1268.62
                             1287.92  1345.00  1358.08  1410.20  1431.02
                             1446.59  1480.31  1499.18  1515.90  1521.32
                             1530.84  1568.74  1576.88  1606.09  1619.45
                             1636.62  1649.31  1660.59  1716.30  1755.06
                             1794.96  1811.59  1827.29  1847.46  1859.65
                             1888.41  1895.53  1920.39  1923.03  1940.53
                             1957.46  1980.03  1983.85  2000.32  2012.03
                             2019.88  2027.61  2035.46  2060.51  2139.28
                             2141.66  2150.11  2152.05  2159.47  2165.23
                             2175.32  2181.67  2386.98  4242.02  4277.01
                             4327.41  4338.16  4357.00  4364.01  4364.97
                             4372.45  4373.51  4380.81  4387.12  4412.49
                             4427.48  4432.54  4460.07  4463.19  4464.70
                             4469.89  4486.32  5010.80  5122.35

 Zero-point correction=                           0.315247 (Hartree/Particle)
 Thermal correction to Energy=                    0.330163
 Thermal correction to Enthalpy=                  0.331108
 Thermal correction to Gibbs Free Energy=         0.273156
 Sum of electronic and zero-point Energies=           -636.732672
 Sum of electronic and thermal Energies=              -636.717756
 Sum of electronic and thermal Enthalpies=            -636.716812
 Sum of electronic and thermal Free Energies=         -636.774763

                     E (Thermal)             CV                S
                      KCal/Mol        Cal/Mol-Kelvin    Cal/Mol-Kelvin
 Total                  207.181             56.668            121.970
 Electronic               0.000              0.000              0.000
 Translational            0.889              2.981             41.772
 Rotational               0.889              2.981             31.939
 Vibrational            205.403             50.706             48.260
 Vibration     1          0.594              1.982              5.406
 Vibration     2          0.598              1.968              4.152
 Vibration     3          0.599              1.966              4.044
 Vibration     4          0.601              1.958              3.712
 Vibration     5          0.604              1.950              3.471
 Vibration     6          0.613              1.919              2.879
 Vibration     7          0.624              1.883              2.470
 Vibration     8          0.639              1.835              2.100
 Vibration     9          0.647              1.810              1.956
 Vibration    10          0.655              1.788              1.842
 Vibration    11          0.661              1.767              1.748
 Vibration    12          0.665              1.755              1.697
 Vibration    13          0.675              1.725              1.584
 Vibration    14          0.679              1.714              1.545
 Vibration    15          0.730              1.567              1.149
 Vibration    16          0.746              1.523              1.058
 Vibration    17          0.767              1.467              0.957
 Vibration    18          0.786              1.419              0.880
 Vibration    19          0.821              1.332              0.758
 Vibration    20          0.904              1.141              0.546

                           ! Non-Optimized Parameters !
 Normal termination of Gaussian 16 at Tue May 23 07:08:29 2023.
