 Gaussian 16, Revision A.03,
 Gaussian 16:  ES64L-G16RevA.03 25-Dec-2016

 -----------------------------
 # opt freq b3lyp/6-31g(2df,p)
 -----------------------------

 -------------------
 Title Card Required
 -------------------
 Symbolic Z-matrix:
 Charge =  0 Multiplicity = 1

 SCF Done:  E(RB3LYP) =  -588.405152674     A.U. after   12 cycles
 SCF Done:  E(RB3LYP) =  -588.436348296     A.U. after   10 cycles
 SCF Done:  E(RB3LYP) =  -588.455108447     A.U. after   10 cycles
 SCF Done:  E(RB3LYP) =  -588.463080915     A.U. after   10 cycles
 SCF Done:  E(RB3LYP) =  -588.471541168     A.U. after   10 cycles
 SCF Done:  E(RB3LYP) =  -588.474167468     A.U. after   10 cycles
 SCF Done:  E(RB3LYP) =  -588.475351876     A.U. after   10 cycles
 SCF Done:  E(RB3LYP) =  -588.476352355     A.U. after   10 cycles
 SCF Done:  E(RB3LYP) =  -588.477074206     A.U. after   10 cycles
 SCF Done:  E(RB3LYP) =  -588.476751324     A.U. after   10 cycles
 SCF Done:  E(RB3LYP) =  -588.477563063     A.U. after    8 cycles
 SCF Done:  E(RB3LYP) =  -588.477564453     A.U. after    6 cycles
 SCF Done:  E(RB3LYP) =  -588.477572404     A.U. after    7 cycles
 SCF Done:  E(RB3LYP) =  -588.477581592     A.U. after    8 cycles
 SCF Done:  E(RB3LYP) =  -588.477590947     A.U. after    8 cycles
 SCF Done:  E(RB3LYP) =  -588.477593610     A.U. after    7 cycles
 SCF Done:  E(RB3LYP) =  -588.477594694     A.U. after    8 cycles
 SCF Done:  E(RB3LYP) =  -588.477594798     A.U. after    6 cycles
 SCF Done:  E(RB3LYP) =  -588.477594811     A.U. after    5 cycles
 Optimization completed.
    -- Stationary point found.
 Normal termination of Gaussian 16 at Mon May 22 11:39:06 2023.

 ----------------------------------------------------------------------
 #N Geom=AllCheck Guess=TCheck SCRF=Check GenChk RB3LYP/6-31G(2df,p) Fr
 eq
 ----------------------------------------------------------------------

 Structure from the checkpoint file:  "CCC1CCC2CCC2qCrCCCqCrC1.chk"
 -------------------
 Title Card Required
 -------------------
 Charge =  0 Multiplicity = 1

                         Standard orientation:
 ---------------------------------------------------------------------
 Center     Atomic      Atomic             Coordinates (Angstroms)
 Number     Number       Type             X           Y           Z
 ---------------------------------------------------------------------
      1          6           0       -3.839068   -1.610701    0.726190
      2          6           0       -3.197999   -0.768290   -0.381094
      3          6           0       -1.680382   -0.521003   -0.213499
      4          6           0       -0.884462   -1.803721   -0.516740
      5          6           0        0.493185   -1.943168    0.154439
      6          6           0        1.685235   -1.176116   -0.437030
      7          6           0        3.033617   -1.709741    0.138796
      8          6           0        3.134434   -0.448833    1.024996
      9          6           0        2.091979    0.263425    0.109553
     10          6           0        2.833381    1.022499   -1.001119
     11          6           0        1.129154    1.185108    0.898047
     12          6           0        0.367750    2.311346    0.154454
     13          6           0       -1.060381    2.052123   -0.391104
     14          6           0       -2.129539    2.350269    0.673458
     15          6           0       -1.225788    0.677533   -1.091133
     16          1           0       -4.910327   -1.746202    0.545726
     17          1           0       -3.726643   -1.124969    1.702256
     18          1           0       -3.393408   -2.607703    0.801987
     19          1           0       -3.715838    0.195888   -0.426635
     20          1           0       -3.368446   -1.243700   -1.357625
     21          1           0       -1.510817   -0.280588    0.842850
     22          1           0       -0.774625   -1.915199   -1.605122
     23          1           0       -1.478380   -2.666086   -0.191969
     24          1           0        0.764251   -3.005598    0.091416
     25          1           0        0.397979   -1.735694    1.229393
     26          1           0        1.615977   -1.214528   -1.530702
     27          1           0        3.826669   -1.770377   -0.610305
     28          1           0        2.981881   -2.671626    0.656187
     29          1           0        4.109739    0.037733    1.124944
     30          1           0        2.734562   -0.625423    2.028621
     31          1           0        3.643897    0.415460   -1.416053
     32          1           0        3.279421    1.948207   -0.618960
     33          1           0        2.171331    1.286069   -1.832177
     34          1           0        1.771150    1.683845    1.637051
     35          1           0        0.440985    0.576321    1.494749
     36          1           0        0.990796    2.662078   -0.673132
     37          1           0        0.298869    3.168429    0.835715
     38          1           0       -1.204712    2.806466   -1.176200
     39          1           0       -2.043268    1.698716    1.549185
     40          1           0       -3.142819    2.238525    0.274911
     41          1           0       -2.028892    3.381685    1.027301
     42          1           0       -0.280474    0.436953   -1.588959
     43          1           0       -1.955559    0.786941   -1.903732
 ---------------------------------------------------------------------

 SCF Done:  E(RB3LYP) =  -588.477594811     A.U. after    1 cycles

 The electronic state is 1-A.
 Alpha  occ. eigenvalues --  -10.18578 -10.17891 -10.17643 -10.17489 -10.17264
 Alpha  occ. eigenvalues --  -10.17167 -10.17099 -10.16942 -10.16929 -10.16821
 Alpha  occ. eigenvalues --  -10.16814 -10.16814 -10.16786 -10.16733 -10.16592
 Alpha  occ. eigenvalues --   -0.84828  -0.81403  -0.78785  -0.74921  -0.73326
 Alpha  occ. eigenvalues --   -0.70803  -0.69010  -0.66320  -0.64123  -0.62728
 Alpha  occ. eigenvalues --   -0.59343  -0.58323  -0.55642  -0.53489  -0.50065
 Alpha  occ. eigenvalues --   -0.46791  -0.46708  -0.45962  -0.44367  -0.43857
 Alpha  occ. eigenvalues --   -0.43488  -0.41625  -0.41296  -0.39994  -0.39220
 Alpha  occ. eigenvalues --   -0.38481  -0.38016  -0.37819  -0.37283  -0.36335
 Alpha  occ. eigenvalues --   -0.35689  -0.35011  -0.34580  -0.33457  -0.32812
 Alpha  occ. eigenvalues --   -0.32447  -0.31971  -0.31682  -0.29908  -0.29172
 Alpha  occ. eigenvalues --   -0.28841  -0.28626  -0.27036  -0.26947
 Alpha virt. eigenvalues --    0.07413   0.08340   0.09286   0.10036   0.10422
 Alpha virt. eigenvalues --    0.11694   0.12388   0.13065   0.13252   0.13683
 Alpha virt. eigenvalues --    0.13991   0.14794   0.14951   0.15936   0.16144

 Mulliken charges:
               1
     1  C   -0.391478
     2  C   -0.188316
     3  C    0.085843
     4  C   -0.231792
     5  C   -0.218714
     6  C   -0.010018
     7  C   -0.245070
     8  C   -0.247263
     9  C    0.349368
    10  C   -0.442810
    11  C   -0.279642
    12  C   -0.220217
    13  C    0.037021
    14  C   -0.398780
    15  C   -0.243824
    16  H    0.110395
    17  H    0.113030
    18  H    0.117494
    19  H    0.092969
    20  H    0.090694
    21  H    0.062404
    22  H    0.087942
    23  H    0.086850
    24  H    0.091996
    25  H    0.089806
    26  H    0.054877
    27  H    0.096756
    28  H    0.088387
    29  H    0.086693
    30  H    0.091354
    31  H    0.108180
    32  H    0.109023
    33  H    0.116002
    34  H    0.093130
    35  H    0.092955
    36  H    0.092653
    37  H    0.085523
    38  H    0.069006
    39  H    0.116417
    40  H    0.112556
    41  H    0.106745
    42  H    0.096337
    43  H    0.085518
 Sum of Mulliken charges =  -0.00000

 Dipole moment (field-independent basis, Debye):
    X=              0.0067    Y=              0.0694    Z=             -0.0625  Tot=              0.0936
 Quadrupole moment (field-independent basis, Debye-Ang):
   XX=            -98.8449   YY=            -98.0970   ZZ=            -97.9020
   XY=              0.2205   XZ=              0.0046   YZ=              0.0422

  Exact polarizability: 176.946  -0.233 160.412   0.180   0.291 132.857
 Approx polarizability: 223.576   0.229 224.641   0.799   0.713 218.675

                      1                      2                      3
                      A                      A                      A
 Frequencies --     30.3322                48.4426                86.9824
 Red. masses --      2.6687                 3.0071                 2.1731
 Frc consts  --      0.0014                 0.0042                 0.0097
 IR Inten    --      0.0164                 0.0019                 0.0129

                      4                      5                      6
                      A                      A                      A
 Frequencies --    102.6876               153.8707               183.3544
 Red. masses --      2.6803                 2.0149                 2.5191
 Frc consts  --      0.0167                 0.0281                 0.0499
 IR Inten    --      0.0022                 0.0075                 0.0534

                      7                      8                      9
                      A                      A                      A
 Frequencies --    187.9621               204.8116               221.4680
 Red. masses --      2.2142                 2.3136                 2.1370
 Frc consts  --      0.0461                 0.0572                 0.0618
 IR Inten    --      0.0081                 0.0743                 0.0347

                     10                     11                     12
                      A                      A                      A
 Frequencies --    247.1298               256.3368               281.9934
 Red. masses --      1.4054                 1.9114                 1.6664
 Frc consts  --      0.0506                 0.0740                 0.0781
 IR Inten    --      0.0585                 0.0305                 0.0733

                     13                     14                     15
                      A                      A                      A
 Frequencies --    297.8883               301.1607               305.0103
 Red. masses --      1.9230                 1.8976                 1.1765
 Frc consts  --      0.1005                 0.1014                 0.0645
 IR Inten    --      0.0835                 0.0148                 0.0185

                     16                     17                     18
                      A                      A                      A
 Frequencies --    337.4206               351.4354               372.7822
 Red. masses --      2.1241                 2.3605                 2.3106
 Frc consts  --      0.1425                 0.1718                 0.1892
 IR Inten    --      0.2581                 0.1043                 0.1303

                     19                     20                     21
                      A                      A                      A
 Frequencies --    377.9003               416.1357               433.7191
 Red. masses --      2.3621                 2.1509                 2.1221
 Frc consts  --      0.1987                 0.2195                 0.2352
 IR Inten    --      0.0276                 0.3978                 0.1071

                     22                     23                     24
                      A                      A                      A
 Frequencies --    458.9401               473.4322               513.6551
 Red. masses --      2.0812                 2.4037                 2.2371
 Frc consts  --      0.2583                 0.3174                 0.3478
 IR Inten    --      0.2342                 0.0649                 0.3188

                     25                     26                     27
                      A                      A                      A
 Frequencies --    604.9229               617.7468               717.9640
 Red. masses --      2.7902                 2.4904                 1.7925
 Frc consts  --      0.6016                 0.5599                 0.5444
 IR Inten    --      0.5008                 1.5492                 2.1913

                     28                     29                     30
                      A                      A                      A
 Frequencies --    734.2512               754.3384               782.1319
 Red. masses --      1.9747                 1.9208                 1.4592
 Frc consts  --      0.6273                 0.6440                 0.5259
 IR Inten    --      0.3540                 0.0530                 3.1272

                     31                     32                     33
                      A                      A                      A
 Frequencies --    823.3875               845.4902               855.6210
 Red. masses --      2.2153                 1.9517                 1.8211
 Frc consts  --      0.8849                 0.8220                 0.7855
 IR Inten    --      1.0877                 0.2448                 1.6702

                     34                     35                     36
                      A                      A                      A
 Frequencies --    879.0760               888.6940               900.3644
 Red. masses --      2.0730                 1.8513                 1.9116
 Frc consts  --      0.9439                 0.8614                 0.9130
 IR Inten    --      0.3877                 1.1543                 0.3924

                     37                     38                     39
                      A                      A                      A
 Frequencies --    935.3597               938.2904               953.7054
 Red. masses --      1.9031                 1.9484                 1.7960
 Frc consts  --      0.9810                 1.0106                 0.9625
 IR Inten    --      0.4713                 0.2159                 2.8047

                     40                     41                     42
                      A                      A                      A
 Frequencies --    966.4963               974.0148               976.1566
 Red. masses --      1.8175                 1.9248                 2.0065
 Frc consts  --      1.0003                 1.0759                 1.1265
 IR Inten    --      0.9623                 0.2122                 0.3548

                     43                     44                     45
                      A                      A                      A
 Frequencies --    986.7174              1002.1617              1018.3819
 Red. masses --      1.5848                 1.8756                 2.3383
 Frc consts  --      0.9091                 1.1098                 1.4288
 IR Inten    --      0.7395                 3.2886                 0.2668

                     46                     47                     48
                      A                      A                      A
 Frequencies --   1027.0656              1056.7473              1077.8001
 Red. masses --      1.7721                 2.4147                 1.8845
 Frc consts  --      1.1014                 1.5887                 1.2898
 IR Inten    --      2.9965                 0.1077                 1.8296

                     49                     50                     51
                      A                      A                      A
 Frequencies --   1084.8604              1093.3845              1100.5581
 Red. masses --      1.9742                 1.7049                 1.7118
 Frc consts  --      1.3689                 1.2009                 1.2216
 IR Inten    --      0.7729                 0.7593                 1.2960

                     52                     53                     54
                      A                      A                      A
 Frequencies --   1132.4308              1143.9116              1157.1726
 Red. masses --      1.7451                 1.8415                 2.2287
 Frc consts  --      1.3185                 1.4197                 1.7583
 IR Inten    --      2.6495                 1.8223                 2.8054

                     55                     56                     57
                      A                      A                      A
 Frequencies --   1167.0685              1182.0104              1199.0181
 Red. masses --      1.8329                 2.1571                 1.6659
 Frc consts  --      1.4709                 1.7757                 1.4111
 IR Inten    --      1.3395                 1.4793                 2.9143

                     58                     59                     60
                      A                      A                      A
 Frequencies --   1217.7324              1229.3187              1251.2806
 Red. masses --      1.3860                 1.6220                 1.4234
 Frc consts  --      1.2110                 1.4442                 1.3130
 IR Inten    --      2.8654                 0.8796                 1.1494

                     61                     62                     63
                      A                      A                      A
 Frequencies --   1257.0180              1271.1139              1282.0829
 Red. masses --      1.2561                 1.4008                 1.4437
 Frc consts  --      1.1694                 1.3335                 1.3982
 IR Inten    --      1.5872                 0.8197                 1.1883

                     64                     65                     66
                      A                      A                      A
 Frequencies --   1285.4121              1289.6714              1301.3984
 Red. masses --      1.3017                 1.3565                 1.3882
 Frc consts  --      1.2672                 1.3293                 1.3853
 IR Inten    --      0.9122                 1.0667                 0.0522

                     67                     68                     69
                      A                      A                      A
 Frequencies --   1305.2116              1325.9236              1341.3457
 Red. masses --      1.2114                 1.2410                 1.2283
 Frc consts  --      1.2159                 1.2854                 1.3021
 IR Inten    --      0.3934                 7.2634                 1.0821

                     70                     71                     72
                      A                      A                      A
 Frequencies --   1350.9692              1360.5460              1367.1514
 Red. masses --      1.3286                 1.3282                 1.3192
 Frc consts  --      1.4287                 1.4486                 1.4527
 IR Inten    --      3.0554                 5.6658                 0.7024

                     73                     74                     75
                      A                      A                      A
 Frequencies --   1374.2902              1383.8810              1386.5638
 Red. masses --      1.3708                 1.3789                 1.4586
 Frc consts  --      1.5254                 1.5559                 1.6522
 IR Inten    --      1.1117                 1.4697                 0.1167

                     76                     77                     78
                      A                      A                      A
 Frequencies --   1398.1043              1399.4567              1403.4573
 Red. masses --      1.3369                 1.3671                 1.3881
 Frc consts  --      1.5397                 1.5776                 1.6109
 IR Inten    --      0.2749                 3.3721                 3.2551

                     79                     80                     81
                      A                      A                      A
 Frequencies --   1411.2596              1413.7589              1416.3554
 Red. masses --      1.2431                 1.2471                 1.2655
 Frc consts  --      1.4587                 1.4686                 1.4957
 IR Inten    --      1.5737                 7.6070                 8.4116

                     82                     83                     84
                      A                      A                      A
 Frequencies --   1473.1547              1479.1753              1481.1295
 Red. masses --      1.0839                 1.0790                 1.0694
 Frc consts  --      1.3860                 1.3909                 1.3822
 IR Inten    --      1.6070                 0.0937                 1.5399

                     85                     86                     87
                      A                      A                      A
 Frequencies --   1484.6338              1485.3390              1486.9054
 Red. masses --      1.0758                 1.0796                 1.0773
 Frc consts  --      1.3970                 1.4033                 1.4033
 IR Inten    --      2.4822                 1.3653                 7.2201

                     88                     89                     90
                      A                      A                      A
 Frequencies --   1495.6751              1498.6471              1499.8079
 Red. masses --      1.0705                 1.0825                 1.0586
 Frc consts  --      1.4109                 1.4324                 1.4030
 IR Inten    --      2.3692                 0.9560                 1.3460

                     91                     92                     93
                      A                      A                      A
 Frequencies --   1501.6728              1503.7379              1504.6889
 Red. masses --      1.0818                 1.0555                 1.0544
 Frc consts  --      1.4373                 1.4062                 1.4065
 IR Inten    --      3.5485                 3.7514                10.1621

                     94                     95                     96
                      A                      A                      A
 Frequencies --   1508.0722              1514.6141              2994.7334
 Red. masses --      1.0621                 1.0629                 1.0806
 Frc consts  --      1.4232                 1.4366                 5.7098
 IR Inten    --      7.1267                 8.6311                13.9951

                     97                     98                     99
                      A                      A                      A
 Frequencies --   3001.4945              3003.4313              3004.6852
 Red. masses --      1.0614                 1.0673                 1.0695
 Frc consts  --      5.6337                 5.6727                 5.6887
 IR Inten    --      6.9199                10.6297                22.9556

                    100                    101                    102
                      A                      A                      A
 Frequencies --   3008.2827              3018.1488              3020.4166
 Red. masses --      1.0688                 1.0736                 1.0816
 Frc consts  --      5.6987                 5.7623                 5.8136
 IR Inten    --      6.3136                 7.8435                37.5707

                    103                    104                    105
                      A                      A                      A
 Frequencies --   3024.5588              3028.4319              3029.8861
 Red. masses --      1.0415                 1.0600                 1.0436
 Frc consts  --      5.6134                 5.7279                 5.6446
 IR Inten    --     18.1438                39.5299                 4.3694

                    106                    107                    108
                      A                      A                      A
 Frequencies --   3030.6468              3035.2163              3038.7802
 Red. masses --      1.0623                 1.0548                 1.0708
 Frc consts  --      5.7486                 5.7252                 5.8259
 IR Inten    --     33.4491                35.3201                 1.2525

                    109                    110                    111
                      A                      A                      A
 Frequencies --   3041.1496              3052.0701              3057.3009
 Red. masses --      1.0797                 1.0953                 1.0613
 Frc consts  --      5.8835                 6.0115                 5.8450
 IR Inten    --    120.1859                41.2001                44.6986

                    112                    113                    114
                      A                      A                      A
 Frequencies --   3060.0174              3062.5854              3065.3947
 Red. masses --      1.0925                 1.0914                 1.0947
 Frc consts  --      6.0275                 6.0311                 6.0605
 IR Inten    --     18.4482                13.9307                38.1599

                    115                    116                    117
                      A                      A                      A
 Frequencies --   3080.2975              3084.0543              3090.7886
 Red. masses --      1.0924                 1.1066                 1.0996
 Frc consts  --      6.1070                 6.2012                 6.1892
 IR Inten    --     36.7087                22.6893                27.3148

                    118                    119                    120
                      A                      A                      A
 Frequencies --   3094.2971              3096.1366              3098.3213
 Red. masses --      1.1009                 1.1005                 1.1000
 Frc consts  --      6.2103                 6.2156                 6.2217
 IR Inten    --     78.9690                11.7674                36.7574

                    121                    122                    123
                      A                      A                      A
 Frequencies --   3100.7074              3103.5392              3108.7707
 Red. masses --      1.1006                 1.0999                 1.1056
 Frc consts  --      6.2343                 6.2421                 6.2952
 IR Inten    --     18.7269                67.5371                53.2513

 - Thermochemistry -
 -------------------
 Temperature   298.150 Kelvin.  Pressure   1.00000 Atm.
 Atom     1 has atomic number  6 and mass  12.00000

 Molecular mass:   208.21910 amu.
 Principal axes and moments of inertia in atomic units:
                           1         2         3
     Eigenvalues --  2186.741754150.850405528.15700
           X            0.99994   0.00858  -0.00641
           Y           -0.00860   0.99996  -0.00239
           Z            0.00639   0.00245   0.99998
 This molecule is an asymmetric top.
 Rotational symmetry number  1.
 Warning -- assumption of classical behavior for rotation
           may cause significant error
 Rotational temperatures (Kelvin)      0.03961     0.02087     0.01567
 Rotational constants (GHZ):           0.82531     0.43479     0.32646
 Zero-point vibrational energy    1056283.7 (Joules/Mol)
                                  252.45787 (Kcal/Mol)
 Warning -- explicit consideration of  26 degrees of freedom as
           vibrations may cause significant error
 Vibrational temperatures:     43.64    69.70   125.15   147.74   221.39
          (Kelvin)            263.81   270.44   294.68   318.64   355.56
                              368.81   405.73   428.59   433.30   438.84
                              485.47   505.64   536.35   543.71   598.73
                              624.03   660.31   681.16   739.04   870.35
                              888.80  1032.99  1056.42  1085.32  1125.31
                             1184.67  1216.47  1231.05  1264.79  1278.63
                             1295.42  1345.77  1349.99  1372.17  1390.57
                             1401.39  1404.47  1419.67  1441.89  1465.22
                             1477.72  1520.42  1550.71  1560.87  1573.14
                             1583.46  1629.32  1645.83  1664.91  1679.15
                             1700.65  1725.12  1752.05  1768.72  1800.31
                             1808.57  1828.85  1844.63  1849.42  1855.55
                             1872.42  1877.91  1907.71  1929.90  1943.74
                             1957.52  1967.03  1977.30  1991.10  1994.96
                             2011.56  2013.51  2019.26  2030.49  2034.08
                             2037.82  2119.54  2128.20  2131.01  2136.06
                             2137.07  2139.33  2151.94  2156.22  2157.89
                             2160.57  2163.54  2164.91  2169.78  2179.19
                             4308.75  4318.48  4321.27  4323.07  4328.25
                             4342.44  4345.71  4351.67  4357.24  4359.33
                             4360.42  4367.00  4372.13  4375.54  4391.25
                             4398.77  4402.68  4406.38  4410.42  4431.86
                             4437.27  4446.96  4452.00  4454.65  4457.79
                             4461.23  4465.30  4472.83

 Zero-point correction=                           0.402317 (Hartree/Particle)
 Thermal correction to Energy=                    0.418622
 Thermal correction to Enthalpy=                  0.419566
 Thermal correction to Gibbs Free Energy=         0.359685
 Sum of electronic and zero-point Energies=           -588.075278
 Sum of electronic and thermal Energies=              -588.058973
 Sum of electronic and thermal Enthalpies=            -588.058029
 Sum of electronic and thermal Free Energies=         -588.117910

                     E (Thermal)             CV                S
                      KCal/Mol        Cal/Mol-Kelvin    Cal/Mol-Kelvin
 Total                  262.689             65.733            126.031
 Electronic               0.000              0.000              0.000
 Translational            0.889              2.981             41.904
 Rotational               0.889              2.981             32.284
 Vibrational            260.912             59.772             51.843
 Vibration     1          0.594              1.984              5.808
 Vibration     2          0.595              1.978              4.880
 Vibration     3          0.601              1.958              3.727
 Vibration     4          0.605              1.947              3.403
 Vibration     5          0.619              1.898              2.624
 Vibration     6          0.631              1.862              2.294
 Vibration     7          0.633              1.856              2.248
 Vibration     8          0.640              1.833              2.089
 Vibration     9          0.648              1.808              1.947
 Vibration    10          0.661              1.768              1.751
 Vibration    11          0.666              1.752              1.687
 Vibration    12          0.681              1.707              1.522
 Vibration    13          0.691              1.678              1.429
 Vibration    14          0.693              1.671              1.410
 Vibration    15          0.696              1.664              1.389
 Vibration    16          0.718              1.601              1.224
 Vibration    17          0.728              1.572              1.160
 Vibration    18          0.744              1.528              1.068
 Vibration    19          0.748              1.517              1.048
 Vibration    20          0.779              1.435              0.905
 Vibration    21          0.794              1.397              0.847
 Vibration    22          0.817              1.341              0.769
 Vibration    23          0.830              1.309              0.728
 Vibration    24          0.869              1.220              0.625
 Vibration    25          0.963              1.021              0.441
 Vibration    26          0.978              0.994              0.420

 Optimization completed on the basis of negligible forces.
    -- Stationary point found.
 Normal termination of Gaussian 16 at Mon May 22 16:30:04 2023.
