 Gaussian 16, Revision A.03,
 Gaussian 16:  ES64L-G16RevA.03 25-Dec-2016

 -----------------------------
 # opt freq b3lyp/6-31g(2df,p)
 -----------------------------

 -------------------
 Title Card Required
 -------------------
 Symbolic Z-matrix:
 Charge =  0 Multiplicity = 1

 SCF Done:  E(RB3LYP) =  -920.603469708     A.U. after   12 cycles
 SCF Done:  E(RB3LYP) =  -920.620251462     A.U. after   11 cycles
 SCF Done:  E(RB3LYP) =  -920.637241247     A.U. after   11 cycles
 SCF Done:  E(RB3LYP) =  -920.643205030     A.U. after   10 cycles
 SCF Done:  E(RB3LYP) =  -920.646789815     A.U. after   11 cycles
 SCF Done:  E(RB3LYP) =  -920.648581923     A.U. after   11 cycles
 SCF Done:  E(RB3LYP) =  -920.649743744     A.U. after   10 cycles
 SCF Done:  E(RB3LYP) =  -920.650875730     A.U. after   11 cycles
 SCF Done:  E(RB3LYP) =  -920.651655008     A.U. after   12 cycles
 SCF Done:  E(RB3LYP) =  -920.652367174     A.U. after   10 cycles
 SCF Done:  E(RB3LYP) =  -920.662531624     A.U. after   12 cycles
 SCF Done:  E(RB3LYP) =  -920.662782225     A.U. after   11 cycles
 SCF Done:  E(RB3LYP) =  -920.662849779     A.U. after    9 cycles
 SCF Done:  E(RB3LYP) =  -920.662854751     A.U. after   10 cycles
 SCF Done:  E(RB3LYP) =  -920.662863742     A.U. after    9 cycles
 SCF Done:  E(RB3LYP) =  -920.662861359     A.U. after    9 cycles
 SCF Done:  E(RB3LYP) =  -920.662865167     A.U. after    9 cycles
 SCF Done:  E(RB3LYP) =  -920.662865499     A.U. after    7 cycles
 SCF Done:  E(RB3LYP) =  -920.662865537     A.U. after    6 cycles
 Optimization completed.
    -- Stationary point found.
 Normal termination of Gaussian 16 at Mon May 22 20:06:16 2023.

 ----------------------------------------------------------------------
 #N Geom=AllCheck Guess=TCheck SCRF=Check GenChk RB3LYP/6-31G(2df,p) Fr
 eq
 ----------------------------------------------------------------------

 Structure from the checkpoint file:  "CCC1CSC1NC1COC1CC.chk"
 -------------------
 Title Card Required
 -------------------
 Charge =  0 Multiplicity = 1

                         Standard orientation:
 ---------------------------------------------------------------------
 Center     Atomic      Atomic             Coordinates (Angstroms)
 Number     Number       Type             X           Y           Z
 ---------------------------------------------------------------------
      1          6           0       -1.340853    2.995755   -0.026008
      2          6           0       -2.338891    1.945696   -0.525774
      3          6           0       -2.258617    0.609304    0.213795
      4          6           0       -3.286700   -0.469386   -0.192367
      5         16           0       -2.069250   -1.841492    0.013078
      6          6           0       -0.992169   -0.248673   -0.010590
      7          7           0        0.053323   -0.080269    0.929137
      8          6           0        1.342867   -0.700769    0.711148
      9          6           0        1.527406   -2.102385    0.063105
     10          8           0        2.550180   -1.582436   -0.810071
     11          6           0        2.233705   -0.215262   -0.460779
     12          6           0        3.464683    0.620272   -0.159781
     13          6           0        3.117708    2.064452    0.216296
     14          1           0       -1.428497    3.924377   -0.598335
     15          1           0       -0.310472    2.639156   -0.109106
     16          1           0       -1.518096    3.235510    1.028243
     17          1           0       -2.187861    1.766599   -1.598878
     18          1           0       -3.360945    2.334833   -0.426457
     19          1           0       -2.346841    0.784930    1.293702
     20          1           0       -3.605684   -0.382271   -1.234280
     21          1           0       -4.166305   -0.555999    0.446658
     22          1           0       -0.596580   -0.145439   -1.023511
     23          1           0       -0.279264   -0.223596    1.874722
     24          1           0        1.894075   -0.632623    1.652792
     25          1           0        0.656245   -2.464143   -0.498768
     26          1           0        1.899867   -2.908682    0.704283
     27          1           0        1.643357    0.261988   -1.259758
     28          1           0        4.115194    0.604608   -1.042854
     29          1           0        4.026884    0.136447    0.648431
     30          1           0        2.598420    2.574109   -0.602788
     31          1           0        4.020413    2.638305    0.444683
     32          1           0        2.464560    2.103103    1.094316
 ---------------------------------------------------------------------

 SCF Done:  E(RB3LYP) =  -920.662865537     A.U. after    1 cycles

 The electronic state is 1-A.
 Alpha  occ. eigenvalues --  -88.85087 -19.12846 -14.33900 -10.24427 -10.22959
 Alpha  occ. eigenvalues --  -10.22357 -10.22303 -10.20896 -10.20177 -10.18826
 Alpha  occ. eigenvalues --  -10.18201 -10.17891 -10.17689  -7.91495  -5.87908
 Alpha  occ. eigenvalues --   -5.87668  -5.87035  -1.03520  -0.92916  -0.83741
 Alpha  occ. eigenvalues --   -0.78189  -0.76403  -0.72440  -0.68292  -0.66889
 Alpha  occ. eigenvalues --   -0.66018  -0.60912  -0.59896  -0.57744  -0.54931
 Alpha  occ. eigenvalues --   -0.50910  -0.49950  -0.47160  -0.45884  -0.44973
 Alpha  occ. eigenvalues --   -0.44150  -0.43633  -0.42389  -0.41035  -0.39978
 Alpha  occ. eigenvalues --   -0.39170  -0.38580  -0.37788  -0.36837  -0.36059
 Alpha  occ. eigenvalues --   -0.35395  -0.34261  -0.33822  -0.32907  -0.32576
 Alpha  occ. eigenvalues --   -0.30649  -0.28977  -0.24407  -0.23075  -0.21310
 Alpha virt. eigenvalues --    0.00513   0.06158   0.07031   0.07510   0.08784
 Alpha virt. eigenvalues --    0.09935   0.10738   0.11580   0.11983   0.13900
 Alpha virt. eigenvalues --    0.14210   0.15317   0.15594   0.15941   0.16648

 Mulliken charges:
               1
     1  C   -0.385668
     2  C   -0.203779
     3  C    0.026289
     4  C   -0.240159
     5  S   -0.243173
     6  C    0.034175
     7  N   -0.296488
     8  C   -0.035931
     9  C   -0.111341
    10  O   -0.298872
    11  C    0.167049
    12  C   -0.210219
    13  C   -0.385590
    14  H    0.111965
    15  H    0.133157
    16  H    0.113444
    17  H    0.097907
    18  H    0.099648
    19  H    0.078208
    20  H    0.123926
    21  H    0.124190
    22  H    0.119954
    23  H    0.231746
    24  H    0.087405
    25  H    0.123193
    26  H    0.103029
    27  H    0.067162
    28  H    0.108829
    29  H    0.098207
    30  H    0.119699
    31  H    0.116932
    32  H    0.125105
 Sum of Mulliken charges =  -0.00000

 Dipole moment (field-independent basis, Debye):
    X=             -0.6128    Y=              2.6966    Z=              1.4329  Tot=              3.1145
 Quadrupole moment (field-independent basis, Debye-Ang):
   XX=            -87.9149   YY=            -94.2118   ZZ=            -86.2578
   XY=             -1.5128   XZ=              3.3475   YZ=             -3.5010

  Exact polarizability: 156.288   5.665 145.048   3.681  -1.879 105.850
 Approx polarizability: 208.493   6.564 206.115   4.082  -0.568 176.642

                      1                      2                      3
                      A                      A                      A
 Frequencies --     27.6077                48.9387                60.1974
 Red. masses --      3.8814                 3.7480                 2.9960
 Frc consts  --      0.0017                 0.0053                 0.0064
 IR Inten    --      0.1360                 0.0837                 1.4030

                      4                      5                      6
                      A                      A                      A
 Frequencies --     80.3591                89.4020               114.8904
 Red. masses --      3.6027                 2.6197                 2.5218
 Frc consts  --      0.0137                 0.0123                 0.0196
 IR Inten    --      1.9208                 0.1352                 0.9654

                      7                      8                      9
                      A                      A                      A
 Frequencies --    128.7523               172.2368               179.5009
 Red. masses --      3.7414                 1.7148                 1.8277
 Frc consts  --      0.0365                 0.0300                 0.0347
 IR Inten    --      3.0538                 0.4146                 0.4822

                     10                     11                     12
                      A                      A                      A
 Frequencies --    221.8285               238.9044               269.2654
 Red. masses --      1.4790                 1.4453                 3.6912
 Frc consts  --      0.0429                 0.0486                 0.1577
 IR Inten    --      0.1586                 0.4731                15.3372

                     13                     14                     15
                      A                      A                      A
 Frequencies --    291.8519               333.5839               382.3566
 Red. masses --      2.7179                 2.4497                 3.0833
 Frc consts  --      0.1364                 0.1606                 0.2656
 IR Inten    --      0.3506                 0.7786                 6.8635

                     16                     17                     18
                      A                      A                      A
 Frequencies --    403.2098               439.5809               443.8615
 Red. masses --      2.6228                 3.6845                 3.9087
 Frc consts  --      0.2512                 0.4195                 0.4537
 IR Inten    --      0.9386                15.2786                 0.4611

                     19                     20                     21
                      A                      A                      A
 Frequencies --    520.3293               587.6889               617.3101
 Red. masses --      3.4206                 2.6552                 2.1955
 Frc consts  --      0.5456                 0.5403                 0.4929
 IR Inten    --     12.0913                10.6714                12.2471

                     22                     23                     24
                      A                      A                      A
 Frequencies --    682.1203               730.6258               741.0466
 Red. masses --      3.8027                 3.2146                 3.5746
 Frc consts  --      1.0425                 1.0110                 1.1566
 IR Inten    --     58.2390                49.9970                36.1640

                     25                     26                     27
                      A                      A                      A
 Frequencies --    775.3780               787.2863               845.1525
 Red. masses --      1.3636                 1.1924                 1.6214
 Frc consts  --      0.4830                 0.4355                 0.6824
 IR Inten    --     12.0657                 1.7154                 4.0321

                     28                     29                     30
                      A                      A                      A
 Frequencies --    865.3158               918.0695               924.8005
 Red. masses --      1.7393                 1.9466                 1.4644
 Frc consts  --      0.7673                 0.9667                 0.7379
 IR Inten    --      5.9348                15.0490                 3.1115

                     31                     32                     33
                      A                      A                      A
 Frequencies --    959.2537               978.2888               998.8526
 Red. masses --      1.7153                 1.7459                 2.0231
 Frc consts  --      0.9299                 0.9845                 1.1893
 IR Inten    --      7.3455                 3.9721                 0.4657

                     34                     35                     36
                      A                      A                      A
 Frequencies --   1002.0646              1019.7209              1035.1613
 Red. masses --      3.1903                 8.1023                 2.3200
 Frc consts  --      1.8874                 4.9639                 1.4647
 IR Inten    --      8.2298                90.1389                 2.9826

                     37                     38                     39
                      A                      A                      A
 Frequencies --   1039.1603              1073.2252              1094.6836
 Red. masses --      1.6576                 2.5000                 1.8781
 Frc consts  --      1.0546                 1.6966                 1.3260
 IR Inten    --      0.4642                 5.3019                35.6031

                     40                     41                     42
                      A                      A                      A
 Frequencies --   1100.1080              1126.3707              1139.5508
 Red. masses --      1.8623                 1.7567                 1.6461
 Frc consts  --      1.3279                 1.3131                 1.2594
 IR Inten    --      2.5320                18.8017                30.8885

                     43                     44                     45
                      A                      A                      A
 Frequencies --   1148.4475              1161.8341              1175.3089
 Red. masses --      2.0006                 1.8804                 1.2080
 Frc consts  --      1.5546                 1.4955                 0.9831
 IR Inten    --      3.2355                 0.8248                 8.2325

                     46                     47                     48
                      A                      A                      A
 Frequencies --   1198.9148              1224.9326              1231.1111
 Red. masses --      1.8155                 1.6200                 1.6084
 Frc consts  --      1.5376                 1.4322                 1.4363
 IR Inten    --     41.1266                18.3943                43.7549

                     49                     50                     51
                      A                      A                      A
 Frequencies --   1242.1581              1272.7992              1276.9725
 Red. masses --      1.6990                 1.2669                 1.3290
 Frc consts  --      1.5445                 1.2093                 1.2768
 IR Inten    --     53.5621                 2.5899                11.4322

                     52                     53                     54
                      A                      A                      A
 Frequencies --   1284.8573              1304.5987              1325.4305
 Red. masses --      1.2322                 1.3040                 1.2394
 Frc consts  --      1.1986                 1.3076                 1.2829
 IR Inten    --      2.8194                 1.4580                 1.5654

                     55                     56                     57
                      A                      A                      A
 Frequencies --   1330.4355              1354.1198              1371.0230
 Red. masses --      1.3285                 1.4103                 1.4721
 Frc consts  --      1.3855                 1.5236                 1.6304
 IR Inten    --      4.9522                 0.8637                10.7990

                     58                     59                     60
                      A                      A                      A
 Frequencies --   1391.8745              1393.4530              1411.7044
 Red. masses --      1.4687                 1.4909                 1.2332
 Frc consts  --      1.6764                 1.7057                 1.4480
 IR Inten    --      9.2184                 2.3098                 0.6924

                     61                     62                     63
                      A                      A                      A
 Frequencies --   1415.3229              1434.9195              1485.0020
 Red. masses --      1.2282                 1.5023                 1.0645
 Frc consts  --      1.4495                 1.8225                 1.3831
 IR Inten    --      2.8616                20.0040                 0.1945

                     64                     65                     66
                      A                      A                      A
 Frequencies --   1488.0448              1492.1549              1497.0547
 Red. masses --      1.0611                 1.0976                 1.0442
 Frc consts  --      1.3843                 1.4398                 1.3788
 IR Inten    --      1.5797                 3.1520                 7.2511

                     67                     68                     69
                      A                      A                      A
 Frequencies --   1499.3921              1505.9174              1507.6348
 Red. masses --      1.0409                 1.0705                 1.0806
 Frc consts  --      1.3788                 1.4303                 1.4472
 IR Inten    --      5.4541                 1.5278                11.9334

                     70                     71                     72
                      A                      A                      A
 Frequencies --   1518.4176              1524.9022              2968.3536
 Red. masses --      1.1770                 1.2082                 1.0819
 Frc consts  --      1.5988                 1.6553                 5.6166
 IR Inten    --     19.1956                18.9753                45.3281

                     73                     74                     75
                      A                      A                      A
 Frequencies --   3011.0927              3014.0378              3022.6210
 Red. masses --      1.0607                 1.0586                 1.0829
 Frc consts  --      5.6662                 5.6663                 5.8293
 IR Inten    --     17.2997                45.5032                13.8366

                     76                     77                     78
                      A                      A                      A
 Frequencies --   3026.9582              3034.0798              3035.5917
 Red. masses --      1.0592                 1.0359                 1.0396
 Frc consts  --      5.7177                 5.6187                 5.6444
 IR Inten    --     21.0424                26.3796                21.2042

                     79                     80                     81
                      A                      A                      A
 Frequencies --   3046.3730              3060.1583              3062.2314
 Red. masses --      1.0973                 1.0996                 1.0975
 Frc consts  --      6.0001                 6.0671                 6.0634
 IR Inten    --     27.5849                19.1092                11.3654

                     82                     83                     84
                      A                      A                      A
 Frequencies --   3062.6387              3078.2147              3087.8857
 Red. masses --      1.0633                 1.0937                 1.0856
 Frc consts  --      5.8761                 6.1060                 6.0990
 IR Inten    --     32.6312                57.7279                10.5142

                     85                     86                     87
                      A                      A                      A
 Frequencies --   3099.8600              3100.4331              3108.8913
 Red. masses --      1.1012                 1.1011                 1.1013
 Frc consts  --      6.2347                 6.2361                 6.2714
 IR Inten    --      4.0772                74.3003                40.6851

                     88                     89                     90
                      A                      A                      A
 Frequencies --   3117.1931              3123.6560              3552.6830
 Red. masses --      1.1010                 1.1077                 1.0744
 Frc consts  --      6.3034                 6.3678                 7.9893
 IR Inten    --     28.8774                16.0795                 5.1104

 - Thermochemistry -
 -------------------
 Temperature   298.150 Kelvin.  Pressure   1.00000 Atm.
 Atom     1 has atomic number  6 and mass  12.00000

 Molecular mass:   201.11874 amu.
 Principal axes and moments of inertia in atomic units:
                           1         2         3
     Eigenvalues --  1989.452153886.504945468.98728
           X            0.99996  -0.00568   0.00736
           Y            0.00573   0.99996  -0.00656
           Z           -0.00733   0.00660   0.99995
 This molecule is an asymmetric top.
 Rotational symmetry number  1.
 Warning -- assumption of classical behavior for rotation
           may cause significant error
 Rotational temperatures (Kelvin)      0.04354     0.02229     0.01584
 Rotational constants (GHZ):           0.90715     0.46436     0.33000
 Zero-point vibrational energy     739110.2 (Joules/Mol)
                                  176.65159 (Kcal/Mol)
 Warning -- explicit consideration of  21 degrees of freedom as
           vibrations may cause significant error
 Vibrational temperatures:     39.72    70.41    86.61   115.62   128.63
          (Kelvin)            165.30   185.25   247.81   258.26   319.16
                              343.73   387.41   419.91   479.95   550.13
                              580.13   632.46   638.62   748.64   845.55
                              888.17   981.42  1051.21  1066.20  1115.60
                             1132.73  1215.99  1245.00  1320.90  1330.58
                             1380.15  1407.54  1437.13  1441.75  1467.15
                             1489.37  1495.12  1544.13  1575.01  1582.81
                             1620.60  1639.56  1652.36  1671.62  1691.01
                             1724.97  1762.40  1771.29  1787.19  1831.27
                             1837.28  1848.62  1877.03  1907.00  1914.20
                             1948.28  1972.60  2002.60  2004.87  2031.13
                             2036.33  2064.53  2136.59  2140.96  2146.88
                             2153.93  2157.29  2166.68  2169.15  2184.66
                             2193.99  4270.80  4332.29  4336.53  4348.88
                             4355.12  4365.36  4367.54  4383.05  4402.89
                             4405.87  4406.45  4428.86  4442.78  4460.01
                             4460.83  4473.00  4484.95  4494.24  5111.52

 Zero-point correction=                           0.281512 (Hartree/Particle)
 Thermal correction to Energy=                    0.296369
 Thermal correction to Enthalpy=                  0.297313
 Thermal correction to Gibbs Free Energy=         0.238208
 Sum of electronic and zero-point Energies=           -920.381353
 Sum of electronic and thermal Energies=              -920.366496
 Sum of electronic and thermal Enthalpies=            -920.365552
 Sum of electronic and thermal Free Energies=         -920.424657

                     E (Thermal)             CV                S
                      KCal/Mol        Cal/Mol-Kelvin    Cal/Mol-Kelvin
 Total                  185.975             54.607            124.398
 Electronic               0.000              0.000              0.000
 Translational            0.889              2.981             41.801
 Rotational               0.889              2.981             32.114
 Vibrational            184.197             48.645             50.483
 Vibration     1          0.593              1.984              5.994
 Vibration     2          0.595              1.978              4.860
 Vibration     3          0.597              1.973              4.451
 Vibration     4          0.600              1.962              3.882
 Vibration     5          0.602              1.957              3.673
 Vibration     6          0.608              1.937              3.185
 Vibration     7          0.611              1.924              2.965
 Vibration     8          0.626              1.877              2.411
 Vibration     9          0.629              1.867              2.334
 Vibration    10          0.648              1.808              1.944
 Vibration    11          0.657              1.781              1.811
 Vibration    12          0.674              1.730              1.601
 Vibration    13          0.687              1.689              1.463
 Vibration    14          0.715              1.608              1.243
 Vibration    15          0.752              1.508              1.030
 Vibration    16          0.769              1.463              0.951
 Vibration    17          0.800              1.384              0.828
 Vibration    18          0.803              1.374              0.815
 Vibration    19          0.875              1.205              0.609
 Vibration    20          0.945              1.058              0.471
 Vibration    21          0.977              0.995              0.421

 Optimization completed.
    -- Stationary point found.
 Normal termination of Gaussian 16 at Mon May 22 22:00:30 2023.
