 Gaussian 16, Revision A.03,
 Gaussian 16:  ES64L-G16RevA.03 25-Dec-2016

 -----------------------------
 # opt freq b3lyp/6-31g(2df,p)
 -----------------------------

 -------------------
 Title Card Required
 -------------------
 Symbolic Z-matrix:
 Charge =  0 Multiplicity = 1

 SCF Done:  E(RB3LYP) =  -562.975686582     A.U. after   12 cycles
 SCF Done:  E(RB3LYP) =  -562.989828353     A.U. after   11 cycles
 SCF Done:  E(RB3LYP) =  -562.997830756     A.U. after   10 cycles
 SCF Done:  E(RB3LYP) =  -563.001230802     A.U. after   11 cycles
 SCF Done:  E(RB3LYP) =  -563.003471117     A.U. after   10 cycles
 SCF Done:  E(RB3LYP) =  -563.005190375     A.U. after   10 cycles
 SCF Done:  E(RB3LYP) =  -563.006341156     A.U. after   10 cycles
 SCF Done:  E(RB3LYP) =  -563.006949178     A.U. after   10 cycles
 SCF Done:  E(RB3LYP) =  -563.007265522     A.U. after   10 cycles
 SCF Done:  E(RB3LYP) =  -563.007326858     A.U. after   11 cycles
 SCF Done:  E(RB3LYP) =  -563.007405625     A.U. after    9 cycles
 SCF Done:  E(RB3LYP) =  -563.007412940     A.U. after    7 cycles
 SCF Done:  E(RB3LYP) =  -563.007415428     A.U. after    7 cycles
 SCF Done:  E(RB3LYP) =  -563.007416493     A.U. after    7 cycles
 SCF Done:  E(RB3LYP) =  -563.007417150     A.U. after    7 cycles
 SCF Done:  E(RB3LYP) =  -563.007417459     A.U. after    6 cycles
 SCF Done:  E(RB3LYP) =  -563.007417585     A.U. after    6 cycles
 SCF Done:  E(RB3LYP) =  -563.007417611     A.U. after    6 cycles
 Optimization completed.
    -- Stationary point found.
 Normal termination of Gaussian 16 at Mon May 22 18:39:13 2023.

 ----------------------------------------------------------------------
 #N Geom=AllCheck Guess=TCheck SCRF=Check GenChk RB3LYP/6-31G(2df,p) Fr
 eq
 ----------------------------------------------------------------------

 Structure from the checkpoint file:  "CCC1CCqNrCCqCrCCCO1.chk"
 -------------------
 Title Card Required
 -------------------
 Charge =  0 Multiplicity = 1

                         Standard orientation:
 ---------------------------------------------------------------------
 Center     Atomic      Atomic             Coordinates (Angstroms)
 Number     Number       Type             X           Y           Z
 ---------------------------------------------------------------------
      1          6           0        3.835727   -0.370668   -0.544252
      2          6           0        2.436864    0.163052   -0.882664
      3          6           0        1.668090    0.740165    0.328558
      4          6           0        0.751251    1.958589   -0.011160
      5          6           0       -0.774995    1.719647   -0.046279
      6          7           0       -1.264822    1.627744    1.333700
      7          6           0       -1.155509    0.615164   -1.101090
      8          6           0       -2.101485   -0.563815   -0.768950
      9          6           0       -3.542811   -0.136454   -0.448380
     10          6           0       -1.583287   -1.583497    0.270402
     11          6           0       -0.174483   -2.151063   -0.018524
     12          6           0        0.929596   -1.602255    0.899233
     13          8           0        0.886990   -0.198600    1.087316
     14          1           0        4.338679   -0.747514   -1.440629
     15          1           0        3.811626   -1.182791    0.188460
     16          1           0        4.458951    0.425676   -0.122876
     17          1           0        1.847564   -0.608921   -1.387391
     18          1           0        2.552753    0.970072   -1.613539
     19          1           0        2.439366    1.114993    1.018216
     20          1           0        1.065591    2.372064   -0.975994
     21          1           0        0.920379    2.740330    0.735129
     22          1           0       -1.196728    2.658828   -0.426186
     23          1           0       -0.878784    0.805456    1.780090
     24          1           0       -2.275002    1.569599    1.361675
     25          1           0       -0.233196    0.179284   -1.494696
     26          1           0       -1.602706    1.129996   -1.961779
     27          1           0       -2.159787   -1.121307   -1.717048
     28          1           0       -3.631943    0.327384    0.538340
     29          1           0       -4.213006   -1.003294   -0.454193
     30          1           0       -3.918036    0.578513   -1.188365
     31          1           0       -2.303996   -2.409968    0.292091
     32          1           0       -1.606771   -1.144884    1.272812
     33          1           0        0.084690   -1.984755   -1.070531
     34          1           0       -0.172486   -3.240181    0.115934
     35          1           0        1.909992   -1.944050    0.551448
     36          1           0        0.786930   -2.023126    1.903245
 ---------------------------------------------------------------------

 SCF Done:  E(RB3LYP) =  -563.007417611     A.U. after    1 cycles

 The electronic state is 1-A.
 Alpha  occ. eigenvalues --  -19.13200 -14.28230 -10.23033 -10.22552 -10.19780
 Alpha  occ. eigenvalues --  -10.18390 -10.18243 -10.17788 -10.17749 -10.17306
 Alpha  occ. eigenvalues --  -10.16858 -10.16700 -10.16574  -1.01936  -0.86213
 Alpha  occ. eigenvalues --   -0.80439  -0.78901  -0.75554  -0.72905  -0.69898
 Alpha  occ. eigenvalues --   -0.66938  -0.64093  -0.60332  -0.58945  -0.54965
 Alpha  occ. eigenvalues --   -0.53733  -0.49409  -0.48062  -0.46834  -0.45654
 Alpha  occ. eigenvalues --   -0.44434  -0.43332  -0.42713  -0.41701  -0.40904
 Alpha  occ. eigenvalues --   -0.40478  -0.39622  -0.37665  -0.37561  -0.36845
 Alpha  occ. eigenvalues --   -0.35942  -0.35317  -0.34314  -0.33771  -0.33076
 Alpha  occ. eigenvalues --   -0.32588  -0.30815  -0.30178  -0.29523  -0.28332
 Alpha  occ. eigenvalues --   -0.24193  -0.21123
 Alpha virt. eigenvalues --    0.07042   0.08360   0.09639   0.10604   0.11181
 Alpha virt. eigenvalues --    0.11255   0.12160   0.12323   0.13553   0.14342
 Alpha virt. eigenvalues --    0.15118   0.15778   0.16798   0.17489   0.17740

 Mulliken charges:
               1
     1  C   -0.397331
     2  C   -0.206346
     3  C    0.149614
     4  C   -0.232968
     5  C    0.050415
     6  N   -0.525532
     7  C   -0.228283
     8  C    0.039737
     9  C   -0.405520
    10  C   -0.172403
    11  C   -0.225789
    12  C   -0.072840
    13  O   -0.280872
    14  H    0.113896
    15  H    0.123953
    16  H    0.119539
    17  H    0.110705
    18  H    0.102706
    19  H    0.076278
    20  H    0.087837
    21  H    0.108134
    22  H    0.068984
    23  H    0.240217
    24  H    0.217719
    25  H    0.089935
    26  H    0.083253
    27  H    0.070775
    28  H    0.108919
    29  H    0.108763
    30  H    0.108384
    31  H    0.087473
    32  H    0.089937
    33  H    0.098270
    34  H    0.092207
    35  H    0.099065
    36  H    0.101168
 Sum of Mulliken charges =   0.00000

 Dipole moment (field-independent basis, Debye):
    X=              0.5905    Y=             -1.5016    Z=             -1.3659  Tot=              2.1140
 Quadrupole moment (field-independent basis, Debye-Ang):
   XX=            -80.0218   YY=            -84.3530   ZZ=            -85.4845
   XY=              0.8205   XZ=             -0.5825   YZ=             -3.7114

  Exact polarizability: 146.439   0.812 128.129  -0.564  -2.521 110.515
 Approx polarizability: 182.008   1.427 182.434  -2.289  -1.871 177.132

                      1                      2                      3
                      A                      A                      A
 Frequencies --     38.1254                98.4073               113.3266
 Red. masses --      3.0268                 3.5109                 2.7447
 Frc consts  --      0.0026                 0.0200                 0.0208
 IR Inten    --      0.1315                 0.9848                 0.1106

                      4                      5                      6
                      A                      A                      A
 Frequencies --    126.6127               158.8158               169.5325
 Red. masses --      1.9776                 2.5256                 2.0285
 Frc consts  --      0.0187                 0.0375                 0.0343
 IR Inten    --      1.1590                 0.2618                 0.4512

                      7                      8                      9
                      A                      A                      A
 Frequencies --    187.5502               218.7126               240.1801
 Red. masses --      1.4118                 1.3445                 2.7666
 Frc consts  --      0.0293                 0.0379                 0.0940
 IR Inten    --      0.2445                 1.5785                 0.7570

                     10                     11                     12
                      A                      A                      A
 Frequencies --    247.7087               282.5396               294.1290
 Red. masses --      2.7182                 2.3136                 2.1810
 Frc consts  --      0.0983                 0.1088                 0.1112
 IR Inten    --      0.4929                 1.8178                 7.0267

                     13                     14                     15
                      A                      A                      A
 Frequencies --    295.8339               325.6377               351.7829
 Red. masses --      2.7654                 1.9576                 1.9946
 Frc consts  --      0.1426                 0.1223                 0.1454
 IR Inten    --      0.7736                 2.7517                 0.2708

                     16                     17                     18
                      A                      A                      A
 Frequencies --    368.2555               380.5724               420.6690
 Red. masses --      1.4386                 2.4986                 2.8666
 Frc consts  --      0.1149                 0.2132                 0.2989
 IR Inten    --     35.2317                 5.7297                 0.2256

                     19                     20                     21
                      A                      A                      A
 Frequencies --    463.1821               472.4263               520.6982
 Red. masses --      1.9935                 2.0403                 2.5216
 Frc consts  --      0.2520                 0.2683                 0.4028
 IR Inten    --     10.3208                 1.2148                 2.2658

                     22                     23                     24
                      A                      A                      A
 Frequencies --    605.5763               674.3569               721.6040
 Red. masses --      2.4708                 2.7856                 3.0105
 Frc consts  --      0.5339                 0.7464                 0.9236
 IR Inten    --      7.3074                 1.3601                 0.4151

                     25                     26                     27
                      A                      A                      A
 Frequencies --    738.9997               770.1268               793.1178
 Red. masses --      1.7707                 2.1425                 1.6821
 Frc consts  --      0.5698                 0.7487                 0.6234
 IR Inten    --      2.2365                 1.0058                12.0704

                     28                     29                     30
                      A                      A                      A
 Frequencies --    825.3779               859.4448               865.6963
 Red. masses --      2.1296                 1.6363                 1.6037
 Frc consts  --      0.8548                 0.7121                 0.7081
 IR Inten    --     69.4534                18.6159                70.8582

                     31                     32                     33
                      A                      A                      A
 Frequencies --    890.0951               906.2061               930.9953
 Red. masses --      2.1468                 2.1621                 2.3105
 Frc consts  --      1.0021                 1.0461                 1.1799
 IR Inten    --      5.6157                 0.6839                 4.2866

                     34                     35                     36
                      A                      A                      A
 Frequencies --    952.4239               978.4593               992.6655
 Red. masses --      1.7005                 1.9326                 2.1325
 Frc consts  --      0.9089                 1.0901                 1.2381
 IR Inten    --     15.3660                13.5496                10.4810

                     37                     38                     39
                      A                      A                      A
 Frequencies --   1027.8814              1033.5758              1047.5555
 Red. masses --      1.6686                 1.8886                 2.2874
 Frc consts  --      1.0387                 1.1887                 1.4790
 IR Inten    --      4.2548                11.2850                31.0483

                     40                     41                     42
                      A                      A                      A
 Frequencies --   1066.0708              1079.3551              1095.2736
 Red. masses --      2.4294                 2.3345                 1.9352
 Frc consts  --      1.6267                 1.6024                 1.3678
 IR Inten    --      8.9002                16.7777                 1.5747

                     43                     44                     45
                      A                      A                      A
 Frequencies --   1107.7653              1115.7480              1143.6015
 Red. masses --      1.8470                 2.1329                 1.8836
 Frc consts  --      1.3354                 1.5644                 1.4514
 IR Inten    --      5.5926                31.9058                33.5079

                     46                     47                     48
                      A                      A                      A
 Frequencies --   1172.5634              1187.8234              1192.0697
 Red. masses --      2.4743                 2.5128                 1.3846
 Frc consts  --      2.0043                 2.0889                 1.1592
 IR Inten    --     56.3751                 5.1587                21.5304

                     49                     50                     51
                      A                      A                      A
 Frequencies --   1230.1983              1258.3456              1273.0821
 Red. masses --      1.3024                 1.2926                 1.2282
 Frc consts  --      1.1613                 1.2059                 1.1728
 IR Inten    --      3.1926                12.1293                 4.1718

                     52                     53                     54
                      A                      A                      A
 Frequencies --   1286.4834              1299.1400              1308.5207
 Red. masses --      1.2344                 1.2209                 1.1676
 Frc consts  --      1.2037                 1.2141                 1.1779
 IR Inten    --      1.3387                 6.1554                 3.8045

                     55                     56                     57
                      A                      A                      A
 Frequencies --   1330.8469              1338.4158              1345.9757
 Red. masses --      1.2651                 1.3256                 1.3554
 Frc consts  --      1.3201                 1.3991                 1.4467
 IR Inten    --      9.4656                 9.7279                 1.5976

                     58                     59                     60
                      A                      A                      A
 Frequencies --   1361.1344              1373.2948              1376.2374
 Red. masses --      1.3413                 1.3077                 1.3566
 Frc consts  --      1.4642                 1.4531                 1.5139
 IR Inten    --      4.0273                 4.1161                 3.4638

                     61                     62                     63
                      A                      A                      A
 Frequencies --   1390.4088              1394.5384              1400.3099
 Red. masses --      1.3350                 1.3447                 1.2687
 Frc consts  --      1.5206                 1.5408                 1.4657
 IR Inten    --      0.2738                 8.1681                 0.6518

                     64                     65                     66
                      A                      A                      A
 Frequencies --   1403.6477              1413.2005              1414.7227
 Red. masses --      1.2824                 1.2428                 1.2650
 Frc consts  --      1.4886                 1.4624                 1.4917
 IR Inten    --      4.2131                 4.5545                 3.1150

                     67                     68                     69
                      A                      A                      A
 Frequencies --   1419.1421              1434.8452              1476.9768
 Red. masses --      1.2162                 1.2499                 1.0719
 Frc consts  --      1.4432                 1.5161                 1.3776
 IR Inten    --      8.9309                 3.8682                 2.9916

                     70                     71                     72
                      A                      A                      A
 Frequencies --   1481.4359              1483.9489              1491.2908
 Red. masses --      1.0827                 1.0829                 1.0720
 Frc consts  --      1.3999                 1.4050                 1.4046
 IR Inten    --      5.5534                 1.3771                 3.3965

                     73                     74                     75
                      A                      A                      A
 Frequencies --   1493.2050              1496.3681              1498.2696
 Red. masses --      1.0706                 1.0544                 1.0625
 Frc consts  --      1.4064                 1.3911                 1.4052
 IR Inten    --      0.1605                 2.6429                 3.3195

                     76                     77                     78
                      A                      A                      A
 Frequencies --   1503.2882              1506.1471              1509.3094
 Red. masses --      1.0742                 1.0578                 1.0660
 Frc consts  --      1.4302                 1.4139                 1.4307
 IR Inten    --      4.7648                 2.9867                 7.7719

                     79                     80                     81
                      A                      A                      A
 Frequencies --   1643.1915              2969.7460              2971.0663
 Red. masses --      1.0923                 1.0819                 1.0840
 Frc consts  --      1.7377                 5.6218                 5.6377
 IR Inten    --     20.9378                19.0891                47.6936

                     82                     83                     84
                      A                      A                      A
 Frequencies --   2999.5882              3015.1449              3020.8486
 Red. masses --      1.0819                 1.0664                 1.0651
 Frc consts  --      5.7356                 5.7118                 5.7268
 IR Inten    --     14.8062                34.9993                24.0674

                     85                     86                     87
                      A                      A                      A
 Frequencies --   3022.5550              3029.6909              3034.0637
 Red. masses --      1.0720                 1.0453                 1.0382
 Frc consts  --      5.7705                 5.6529                 5.6308
 IR Inten    --     34.9090                27.8293                11.5425

                     88                     89                     90
                      A                      A                      A
 Frequencies --   3034.4231              3039.3362              3050.3813
 Red. masses --      1.0545                 1.0665                 1.0622
 Frc consts  --      5.7204                 5.8045                 5.8232
 IR Inten    --     65.1630                26.9169                31.2711

                     91                     92                     93
                      A                      A                      A
 Frequencies --   3059.4817              3073.7837              3077.5182
 Red. masses --      1.0948                 1.0992                 1.0951
 Frc consts  --      6.0381                 6.1192                 6.1110
 IR Inten    --     56.3210                39.1289                24.3920

                     94                     95                     96
                      A                      A                      A
 Frequencies --   3078.9136              3084.6506              3087.4980
 Red. masses --      1.0957                 1.0952                 1.0968
 Frc consts  --      6.1196                 6.1400                 6.1604
 IR Inten    --     31.0150                 5.5820                39.5805

                     97                     98                     99
                      A                      A                      A
 Frequencies --   3091.7579              3102.8555              3105.2874
 Red. masses --      1.1006                 1.1005                 1.0991
 Frc consts  --      6.1984                 6.2423                 6.2442
 IR Inten    --     37.8812                37.9676                47.9284

                    100                    101                    102
                      A                      A                      A
 Frequencies --   3109.8991              3532.1336              3625.2788
 Red. masses --      1.1009                 1.0476                 1.0931
 Frc consts  --      6.2733                 7.7008                 8.4647
 IR Inten    --     41.6078                10.4188                 7.8908

 - Thermochemistry -
 -------------------
 Temperature   298.150 Kelvin.  Pressure   1.00000 Atm.
 Atom     1 has atomic number  6 and mass  12.00000

 Molecular mass:   185.17796 amu.
 Principal axes and moments of inertia in atomic units:
                           1         2         3
     Eigenvalues --  1570.005903074.458183752.29130
           X            0.99999  -0.00097  -0.00526
           Y            0.00090   0.99991  -0.01331
           Z            0.00528   0.01330   0.99990
 This molecule is an asymmetric top.
 Rotational symmetry number  1.
 Warning -- assumption of classical behavior for rotation
           may cause significant error
 Rotational temperatures (Kelvin)      0.05517     0.02817     0.02308
 Rotational constants (GHZ):           1.14951     0.58701     0.48097
 Zero-point vibrational energy     875672.2 (Joules/Mol)
                                  209.29067 (Kcal/Mol)
 Warning -- explicit consideration of  22 degrees of freedom as
           vibrations may cause significant error
 Vibrational temperatures:     54.85   141.59   163.05   182.17   228.50
          (Kelvin)            243.92   269.84   314.68   345.57   356.40
                              406.51   423.19   425.64   468.52   506.14
                              529.84   547.56   605.25   666.42   679.72
                              749.17   871.29   970.25  1038.23  1063.26
                             1108.04  1141.12  1187.53  1236.55  1245.54
                             1280.65  1303.83  1339.49  1370.33  1407.78
                             1428.22  1478.89  1487.09  1507.20  1533.84
                             1552.95  1575.85  1593.83  1605.31  1645.39
                             1687.06  1709.01  1715.12  1769.98  1810.48
                             1831.68  1850.96  1869.17  1882.67  1914.79
                             1925.68  1936.56  1958.37  1975.86  1980.10
                             2000.49  2006.43  2014.73  2019.54  2033.28
                             2035.47  2041.83  2064.42  2125.04  2131.46
                             2135.07  2145.63  2148.39  2152.94  2155.68
                             2162.90  2167.01  2171.56  2364.19  4272.80
                             4274.70  4315.74  4338.12  4346.33  4348.78
                             4359.05  4365.34  4365.86  4372.93  4388.82
                             4401.91  4422.49  4427.86  4429.87  4438.12
                             4442.22  4448.35  4464.32  4467.82  4474.45
                             5081.95  5215.97

 Zero-point correction=                           0.333526 (Hartree/Particle)
 Thermal correction to Energy=                    0.348066
 Thermal correction to Enthalpy=                  0.349010
 Thermal correction to Gibbs Free Energy=         0.293452
 Sum of electronic and zero-point Energies=           -562.673892
 Sum of electronic and thermal Energies=              -562.659352
 Sum of electronic and thermal Enthalpies=            -562.658408
 Sum of electronic and thermal Free Energies=         -562.713966

                     E (Thermal)             CV                S
                      KCal/Mol        Cal/Mol-Kelvin    Cal/Mol-Kelvin
 Total                  218.415             57.227            116.932
 Electronic               0.000              0.000              0.000
 Translational            0.889              2.981             41.555
 Rotational               0.889              2.981             31.272
 Vibrational            216.637             51.265             44.105
 Vibration     1          0.594              1.982              5.354
 Vibration     2          0.604              1.950              3.486
 Vibration     3          0.607              1.938              3.211
 Vibration     4          0.611              1.927              2.997
 Vibration     5          0.621              1.893              2.564
 Vibration     6          0.625              1.880              2.441
 Vibration     7          0.632              1.857              2.252
 Vibration     8          0.646              1.813              1.970
 Vibration     9          0.657              1.779              1.802
 Vibration    10          0.661              1.767              1.747
 Vibration    11          0.682              1.706              1.518
 Vibration    12          0.689              1.685              1.450
 Vibration    13          0.690              1.682              1.440
 Vibration    14          0.710              1.624              1.282
 Vibration    15          0.728              1.572              1.158
 Vibration    16          0.741              1.537              1.087
 Vibration    17          0.750              1.512              1.037
 Vibration    18          0.783              1.425              0.890
 Vibration    19          0.821              1.332              0.757
 Vibration    20          0.829              1.311              0.731
 Vibration    21          0.876              1.204              0.608
 Vibration    22          0.964              1.020              0.440

 Optimization completed.
    -- Stationary point found.
 Normal termination of Gaussian 16 at Mon May 22 21:22:53 2023.
