 Gaussian 16, Revision A.03,
 Gaussian 16:  ES64L-G16RevA.03 25-Dec-2016

 -----------------------------
 # opt freq b3lyp/6-31g(2df,p)
 -----------------------------

 -------------------
 Title Card Required
 -------------------
 Symbolic Z-matrix:
 Charge =  0 Multiplicity = 1

 SCF Done:  E(RB3LYP) =  -641.640624015     A.U. after   12 cycles
 SCF Done:  E(RB3LYP) =  -641.649185444     A.U. after   12 cycles
 SCF Done:  E(RB3LYP) =  -641.652542115     A.U. after   10 cycles
 SCF Done:  E(RB3LYP) =  -641.653647155     A.U. after   10 cycles
 SCF Done:  E(RB3LYP) =  -641.654054847     A.U. after   10 cycles
 SCF Done:  E(RB3LYP) =  -641.654239072     A.U. after   10 cycles
 SCF Done:  E(RB3LYP) =  -641.654427237     A.U. after    9 cycles
 SCF Done:  E(RB3LYP) =  -641.654467586     A.U. after   10 cycles
 SCF Done:  E(RB3LYP) =  -641.654567012     A.U. after   10 cycles
 SCF Done:  E(RB3LYP) =  -641.654629198     A.U. after    9 cycles
 SCF Done:  E(RB3LYP) =  -641.654637157     A.U. after    8 cycles
 SCF Done:  E(RB3LYP) =  -641.654640233     A.U. after    8 cycles
 SCF Done:  E(RB3LYP) =  -641.654642548     A.U. after    8 cycles
 SCF Done:  E(RB3LYP) =  -641.654642771     A.U. after    6 cycles
 SCF Done:  E(RB3LYP) =  -641.654642991     A.U. after    6 cycles
 SCF Done:  E(RB3LYP) =  -641.654643087     A.U. after    6 cycles
 SCF Done:  E(RB3LYP) =  -641.654643102     A.U. after    5 cycles
 Optimization completed on the basis of negligible forces.
    -- Stationary point found.
 Normal termination of Gaussian 16 at Thu May 25 04:21:18 2023.

 ----------------------------------------------------------------------
 #N Geom=AllCheck Guess=TCheck SCRF=Check GenChk RB3LYP/6-31G(2df,p) Fr
 eq
 ----------------------------------------------------------------------

 Structure from the checkpoint file:  "CCC1qCCNCOCrCCCqCrCC1.chk"
 -------------------
 Title Card Required
 -------------------
 Charge =  0 Multiplicity = 1

                         Standard orientation:
 ---------------------------------------------------------------------
 Center     Atomic      Atomic             Coordinates (Angstroms)
 Number     Number       Type             X           Y           Z
 ---------------------------------------------------------------------
      1          6           0        0.439177    3.149978   -0.653762
      2          6           0        1.417620    2.357358    0.221096
      3          6           0        1.292451    0.810226    0.266516
      4          6           0       -0.102685    0.373301    0.805019
      5          6           0       -1.260869    0.233470   -0.191003
      6          7           0       -2.472961   -0.163211    0.521038
      7          6           0       -3.618066   -0.325976   -0.337453
      8          8           0       -4.695747   -0.732287    0.467629
      9          6           0       -5.898759   -0.848267   -0.252072
     10          6           0        2.376455    0.323678    1.270241
     11          6           0        2.621828   -1.193229    1.273059
     12          6           0        2.936978   -1.756265   -0.126775
     13          6           0        4.348514   -1.387908   -0.609902
     14          6           0        1.837010   -1.312856   -1.111471
     15          6           0        1.619546    0.209392   -1.123468
     16          1           0        0.723057    4.207605   -0.665347
     17          1           0       -0.586921    3.097238   -0.279192
     18          1           0        0.436807    2.802527   -1.691658
     19          1           0        1.343363    2.731119    1.251584
     20          1           0        2.438627    2.594003   -0.106476
     21          1           0       -0.398244    1.091002    1.584007
     22          1           0       -0.023859   -0.590843    1.316216
     23          1           0       -1.035909   -0.557233   -0.917013
     24          1           0       -1.396391    1.157425   -0.777906
     25          1           0       -2.700306    0.522370    1.235829
     26          1           0       -3.378454   -1.090523   -1.098653
     27          1           0       -3.901237    0.600364   -0.888677
     28          1           0       -6.674012   -1.148686    0.456505
     29          1           0       -5.831284   -1.609464   -1.045785
     30          1           0       -6.193696    0.105419   -0.718913
     31          1           0        2.102430    0.651487    2.281351
     32          1           0        3.317179    0.837401    1.034586
     33          1           0        1.739664   -1.711319    1.668457
     34          1           0        3.440782   -1.424890    1.965024
     35          1           0        2.900385   -2.851432   -0.060329
     36          1           0        4.494093   -0.306950   -0.698779
     37          1           0        4.551338   -1.827158   -1.592721
     38          1           0        5.107053   -1.763091    0.085522
     39          1           0        0.900746   -1.815510   -0.837916
     40          1           0        2.082005   -1.653882   -2.124839
     41          1           0        0.835314    0.458974   -1.845789
     42          1           0        2.528977    0.697408   -1.497529
 ---------------------------------------------------------------------

 SCF Done:  E(RB3LYP) =  -641.654643102     A.U. after    1 cycles

 The electronic state is 1-A.
 Alpha  occ. eigenvalues --  -19.13629 -14.30802 -10.24578 -10.22221 -10.20045
 Alpha  occ. eigenvalues --  -10.18737 -10.17860 -10.17389 -10.17258 -10.17146
 Alpha  occ. eigenvalues --  -10.17097 -10.17081 -10.17028 -10.17000 -10.16728
 Alpha  occ. eigenvalues --   -1.03589  -0.89626  -0.83797  -0.78865  -0.74011
 Alpha  occ. eigenvalues --   -0.73439  -0.72337  -0.68804  -0.66971  -0.62458
 Alpha  occ. eigenvalues --   -0.61965  -0.60360  -0.60098  -0.54952  -0.51125
 Alpha  occ. eigenvalues --   -0.49790  -0.48426  -0.47910  -0.46340  -0.46176
 Alpha  occ. eigenvalues --   -0.44360  -0.44036  -0.43239  -0.41813  -0.40912
 Alpha  occ. eigenvalues --   -0.40508  -0.39570  -0.38954  -0.38673  -0.37984
 Alpha  occ. eigenvalues --   -0.36939  -0.36589  -0.35649  -0.34911  -0.34217
 Alpha  occ. eigenvalues --   -0.33331  -0.32159  -0.31917  -0.31744  -0.31528
 Alpha  occ. eigenvalues --   -0.29683  -0.28319  -0.28040  -0.25403  -0.22036
 Alpha virt. eigenvalues --    0.06913   0.08466   0.09329   0.09597   0.10660
 Alpha virt. eigenvalues --    0.11291   0.12954   0.13682   0.14206   0.14503
 Alpha virt. eigenvalues --    0.14763   0.15100   0.15292   0.15989   0.16452

 Mulliken charges:
               1
     1  C   -0.403387
     2  C   -0.198783
     3  C    0.273884
     4  C   -0.236705
     5  C   -0.158977
     6  N   -0.296246
     7  C    0.007941
     8  O   -0.232958
     9  C   -0.228717
    10  C   -0.212672
    11  C   -0.231212
    12  C    0.046042
    13  C   -0.392214
    14  C   -0.223361
    15  C   -0.224862
    16  H    0.109586
    17  H    0.117481
    18  H    0.116342
    19  H    0.086809
    20  H    0.088188
    21  H    0.084430
    22  H    0.111340
    23  H    0.107334
    24  H    0.083532
    25  H    0.215393
    26  H    0.085876
    27  H    0.057001
    28  H    0.128041
    29  H    0.104088
    30  H    0.102421
    31  H    0.086259
    32  H    0.088321
    33  H    0.097453
    34  H    0.085779
    35  H    0.062625
    36  H    0.115421
    37  H    0.108364
    38  H    0.109139
    39  H    0.095303
    40  H    0.085058
    41  H    0.093638
    42  H    0.087009
 Sum of Mulliken charges =  -0.00000

 Dipole moment (field-independent basis, Debye):
    X=              0.0123    Y=              0.9015    Z=             -1.1011  Tot=              1.4232
 Quadrupole moment (field-independent basis, Debye-Ang):
   XX=            -92.6099   YY=            -97.3780   ZZ=            -97.2994
   XY=             -2.1764   XZ=              4.7393   YZ=              2.5768

  Exact polarizability: 179.688  -3.725 145.683   1.669   1.073 132.930
 Approx polarizability: 217.092   0.786 205.953  -0.848   0.961 207.727

                      1                      2                      3
                      A                      A                      A
 Frequencies --     26.5736                50.1395                64.4786
 Red. masses --      3.6728                 2.0038                 2.8656
 Frc consts  --      0.0015                 0.0030                 0.0070
 IR Inten    --      0.0885                 3.9752                 1.0384

                      4                      5                      6
                      A                      A                      A
 Frequencies --     78.1434                86.3859               115.2505
 Red. masses --      3.1222                 2.6889                 2.4200
 Frc consts  --      0.0112                 0.0118                 0.0189
 IR Inten    --      0.6561                 0.2431                 0.7824

                      7                      8                      9
                      A                      A                      A
 Frequencies --    131.2639               141.4781               155.1797
 Red. masses --      2.1767                 2.5413                 2.5946
 Frc consts  --      0.0221                 0.0300                 0.0368
 IR Inten    --      0.5850                 1.0914                 0.6952

                     10                     11                     12
                      A                      A                      A
 Frequencies --    186.0797               207.1881               214.7137
 Red. masses --      2.8672                 1.1362                 1.9330
 Frc consts  --      0.0585                 0.0287                 0.0525
 IR Inten    --      0.1439                 0.0454                 0.3630

                     13                     14                     15
                      A                      A                      A
 Frequencies --    226.0435               249.0525               268.3493
 Red. masses --      1.2639                 2.4536                 1.7561
 Frc consts  --      0.0380                 0.0897                 0.0745
 IR Inten    --      2.3845                 1.3163                 0.3573

                     16                     17                     18
                      A                      A                      A
 Frequencies --    286.0374               325.9209               346.5180
 Red. masses --      2.0443                 2.2504                 2.2457
 Frc consts  --      0.0985                 0.1408                 0.1589
 IR Inten    --      0.0948                 0.2339                 0.2762

                     19                     20                     21
                      A                      A                      A
 Frequencies --    373.7956               393.2420               401.0577
 Red. masses --      1.9408                 2.4848                 1.9130
 Frc consts  --      0.1598                 0.2264                 0.1813
 IR Inten    --      0.0087                 0.7090                 0.1307

                     22                     23                     24
                      A                      A                      A
 Frequencies --    437.5372               456.9575               490.6841
 Red. masses --      2.2574                 3.0123                 3.0787
 Frc consts  --      0.2546                 0.3706                 0.4367
 IR Inten    --      0.4643                 1.2209                 0.7699

                     25                     26                     27
                      A                      A                      A
 Frequencies --    516.7240               551.9675               636.2492
 Red. masses --      3.1751                 3.1178                 1.9905
 Frc consts  --      0.4995                 0.5597                 0.4747
 IR Inten    --      0.3179                 0.9897                 4.6166

                     28                     29                     30
                      A                      A                      A
 Frequencies --    723.4303               763.6850               775.7591
 Red. masses --      2.4099                 2.4453                 1.4007
 Frc consts  --      0.7431                 0.8403                 0.4966
 IR Inten    --      0.6612                 0.1043                 7.0370

                     31                     32                     33
                      A                      A                      A
 Frequencies --    785.7893               791.4172               802.4327
 Red. masses --      1.4403                 1.3074                 1.2230
 Frc consts  --      0.5240                 0.4825                 0.4640
 IR Inten    --      1.9880                 2.9222                65.0648

                     34                     35                     36
                      A                      A                      A
 Frequencies --    882.1305               901.8759               919.2505
 Red. masses --      2.3087                 2.0460                 2.1194
 Frc consts  --      1.0585                 0.9805                 1.0552
 IR Inten    --      0.9128                 3.9803                 0.3895

                     37                     38                     39
                      A                      A                      A
 Frequencies --    963.0846               964.5099               986.5700
 Red. masses --      1.7464                 1.6413                 2.2730
 Frc consts  --      0.9544                 0.8996                 1.3035
 IR Inten    --      0.6781                 1.1102                11.8774

                     40                     41                     42
                      A                      A                      A
 Frequencies --    998.4587              1012.3338              1019.7107
 Red. masses --      2.3272                 1.8881                 1.9354
 Frc consts  --      1.3669                 1.1400                 1.1857
 IR Inten    --      8.4658                 0.6063                 1.4478

                     43                     44                     45
                      A                      A                      A
 Frequencies --   1028.8388              1052.6354              1057.4780
 Red. masses --      1.7836                 2.3508                 2.6568
 Frc consts  --      1.1124                 1.5347                 1.7505
 IR Inten    --      5.7729                 1.1355                 6.7325

                     46                     47                     48
                      A                      A                      A
 Frequencies --   1068.5533              1082.6424              1096.0275
 Red. masses --      1.6288                 1.9990                 1.7004
 Frc consts  --      1.0957                 1.3805                 1.2035
 IR Inten    --      0.8471                16.8782                 1.3321

                     49                     50                     51
                      A                      A                      A
 Frequencies --   1108.9170              1119.5751              1151.6559
 Red. masses --      1.6839                 1.3421                 2.0825
 Frc consts  --      1.2200                 0.9911                 1.6274
 IR Inten    --      0.8202                 2.6821                 8.7984

                     52                     53                     54
                      A                      A                      A
 Frequencies --   1159.1863              1163.8029              1182.0379
 Red. masses --      3.5945                 3.1615                 1.5214
 Frc consts  --      2.8457                 2.5229                 1.2524
 IR Inten    --      9.1651               248.4616                39.5070

                     55                     56                     57
                      A                      A                      A
 Frequencies --   1191.1541              1202.5854              1206.4959
 Red. masses --      1.5953                 2.0408                 1.3208
 Frc consts  --      1.3336                 1.7389                 1.1328
 IR Inten    --     31.4845                 4.3110                 0.9922

                     58                     59                     60
                      A                      A                      A
 Frequencies --   1227.3395              1243.5825              1244.3037
 Red. masses --      1.6589                 1.3419                 1.8364
 Frc consts  --      1.4723                 1.2227                 1.6752
 IR Inten    --     24.5589                 3.5669                21.9682

                     61                     62                     63
                      A                      A                      A
 Frequencies --   1278.8977              1288.6951              1298.1076
 Red. masses --      1.3575                 1.2865                 1.2355
 Frc consts  --      1.3082                 1.2588                 1.2267
 IR Inten    --      0.8663                 0.4827                 0.5300

                     64                     65                     66
                      A                      A                      A
 Frequencies --   1323.5988              1329.7383              1345.5945
 Red. masses --      1.2831                 1.2581                 1.4807
 Frc consts  --      1.3244                 1.3107                 1.5796
 IR Inten    --      4.1457                 2.9204                 3.6126

                     67                     68                     69
                      A                      A                      A
 Frequencies --   1350.5854              1360.0534              1366.8521
 Red. masses --      1.3888                 1.3814                 1.4453
 Frc consts  --      1.4926                 1.5056                 1.5909
 IR Inten    --      0.5715                 4.5817                 5.8389

                     70                     71                     72
                      A                      A                      A
 Frequencies --   1375.8023              1383.1202              1389.9992
 Red. masses --      1.3519                 1.3675                 1.3961
 Frc consts  --      1.5077                 1.5413                 1.5892
 IR Inten    --      2.4035                 1.6710                 1.7339

                     73                     74                     75
                      A                      A                      A
 Frequencies --   1398.8154              1407.2986              1413.2001
 Red. masses --      1.3332                 1.3664                 1.2884
 Frc consts  --      1.5369                 1.5944                 1.5160
 IR Inten    --     13.3022                 2.6420                 6.8030

                     76                     77                     78
                      A                      A                      A
 Frequencies --   1415.6932              1442.5837              1473.1763
 Red. masses --      1.2927                 1.2814                 1.0781
 Frc consts  --      1.5265                 1.5712                 1.3785
 IR Inten    --     11.6439                25.0201                 2.0072

                     79                     80                     81
                      A                      A                      A
 Frequencies --   1474.1377              1480.1686              1484.9212
 Red. masses --      1.1832                 1.0832                 1.0595
 Frc consts  --      1.5149                 1.3983                 1.3765
 IR Inten    --     30.2095                 0.3852                11.1123

                     82                     83                     84
                      A                      A                      A
 Frequencies --   1486.0894              1487.2410              1493.0938
 Red. masses --      1.0668                 1.0861                 1.0682
 Frc consts  --      1.3881                 1.4155                 1.4030
 IR Inten    --      0.5647                 5.8370                 3.8052

                     85                     86                     87
                      A                      A                      A
 Frequencies --   1494.8571              1501.2150              1503.0693
 Red. masses --      1.1678                 1.0768                 1.0498
 Frc consts  --      1.5375                 1.4298                 1.3974
 IR Inten    --     47.9153                 6.8869                 1.1477

                     88                     89                     90
                      A                      A                      A
 Frequencies --   1506.6472              1508.0534              1511.4497
 Red. masses --      1.0605                 1.0706                 1.0831
 Frc consts  --      1.4183                 1.4346                 1.4578
 IR Inten    --      6.4529                 8.1400                11.9460

                     91                     92                     93
                      A                      A                      A
 Frequencies --   1512.2753              1527.6598              1547.1960
 Red. masses --      1.1005                 1.0936                 1.0920
 Frc consts  --      1.4829                 1.5037                 1.5401
 IR Inten    --      2.4677                 2.6996                 1.1673

                     94                     95                     96
                      A                      A                      A
 Frequencies --   2829.0031              2943.1491              2962.5538
 Red. masses --      1.0726                 1.0809                 1.0694
 Frc consts  --      5.0578                 5.5164                 5.5300
 IR Inten    --     99.0014                56.5902                52.2421

                     97                     98                     99
                      A                      A                      A
 Frequencies --   2967.9729              3001.9473              3003.6390
 Red. masses --      1.0406                 1.0650                 1.0651
 Frc consts  --      5.4009                 5.6547                 5.6617
 IR Inten    --     76.7909                10.9204                15.3361

                    100                    101                    102
                      A                      A                      A
 Frequencies --   3005.2121              3008.8141              3014.2723
 Red. masses --      1.0773                 1.1028                 1.0610
 Frc consts  --      5.7325                 5.8821                 5.6799
 IR Inten    --     11.9027                60.3824                29.4548

                    103                    104                    105
                      A                      A                      A
 Frequencies --   3018.8558              3020.7217              3026.1894
 Red. masses --      1.0627                 1.0638                 1.0569
 Frc consts  --      5.7063                 5.7192                 5.7025
 IR Inten    --     25.0970                43.6961                39.0420

                    106                    107                    108
                      A                      A                      A
 Frequencies --   3034.0521              3035.4035              3037.6862
 Red. masses --      1.0526                 1.0749                 1.0578
 Frc consts  --      5.7088                 5.8354                 5.7507
 IR Inten    --     18.1593                21.7695                12.1848

                    109                    110                    111
                      A                      A                      A
 Frequencies --   3043.8169              3046.9826              3054.8071
 Red. masses --      1.0856                 1.0983                 1.0989
 Frc consts  --      5.9260                 6.0078                 6.0417
 IR Inten    --     27.1567                55.4694                22.6588

                    112                    113                    114
                      A                      A                      A
 Frequencies --   3059.8475              3065.9480              3080.9375
 Red. masses --      1.1009                 1.0969                 1.0914
 Frc consts  --      6.0727                 6.0749                 6.1036
 IR Inten    --     79.0200                73.3877                37.0057

                    115                    116                    117
                      A                      A                      A
 Frequencies --   3093.3339              3097.1304              3103.3392
 Red. masses --      1.1013                 1.0999                 1.0994
 Frc consts  --      6.2088                 6.2161                 6.2385
 IR Inten    --     30.3627                39.3775                42.9533

                    118                    119                    120
                      A                      A                      A
 Frequencies --   3111.8920              3115.9641              3506.4791
 Red. masses --      1.1012                 1.0953                 1.0731
 Frc consts  --      6.2829                 6.2654                 7.7740
 IR Inten    --     38.3534                30.1541                 0.1124

 - Thermochemistry -
 -------------------
 Temperature   298.150 Kelvin.  Pressure   1.00000 Atm.
 Atom     1 has atomic number  6 and mass  12.00000

 Molecular mass:   213.20926 amu.
 Principal axes and moments of inertia in atomic units:
                           1         2         3
     Eigenvalues --  1933.804017337.742978266.90330
           X            0.99998  -0.00408   0.00570
           Y            0.00407   0.99999   0.00222
           Z           -0.00571  -0.00220   0.99998
 This molecule is an asymmetric top.
 Rotational symmetry number  1.
 Warning -- assumption of classical behavior for rotation
           may cause significant error
 Rotational temperatures (Kelvin)      0.04479     0.01180     0.01048
 Rotational constants (GHZ):           0.93326     0.24595     0.21831
 Zero-point vibrational energy    1021276.5 (Joules/Mol)
                                  244.09094 (Kcal/Mol)
 Warning -- explicit consideration of  26 degrees of freedom as
           vibrations may cause significant error
 Vibrational temperatures:     38.23    72.14    92.77   112.43   124.29
          (Kelvin)            165.82   188.86   203.56   223.27   267.73
                              298.10   308.93   325.23   358.33   386.09
                              411.54   468.93   498.56   537.81   565.79
                              577.03   629.52   657.46   705.98   743.45
                              794.16   915.42  1040.85  1098.77  1116.14
                             1130.58  1138.67  1154.52  1269.19  1297.60
                             1322.60  1385.66  1387.71  1419.45  1436.56
                             1456.52  1467.14  1480.27  1514.51  1521.48
                             1537.41  1557.68  1576.94  1595.48  1610.82
                             1656.98  1667.81  1674.45  1700.69  1713.81
                             1730.25  1735.88  1765.87  1789.24  1790.28
                             1840.05  1854.14  1867.69  1904.36  1913.20
                             1936.01  1943.19  1956.81  1966.60  1979.47
                             1990.00  1999.90  2012.58  2024.79  2033.28
                             2036.87  2075.56  2119.57  2120.96  2129.63
                             2136.47  2138.15  2139.81  2148.23  2150.77
                             2159.91  2162.58  2167.73  2169.75  2174.64
                             2175.83  2197.96  2226.07  4070.30  4234.54
                             4262.45  4270.25  4319.13  4321.57  4323.83
                             4329.01  4336.87  4343.46  4346.14  4354.01
                             4365.32  4367.27  4370.55  4379.37  4383.93
                             4395.19  4402.44  4411.22  4432.78  4450.62
                             4456.08  4465.01  4477.32  4483.18  5045.04

 Zero-point correction=                           0.388984 (Hartree/Particle)
 Thermal correction to Energy=                    0.406683
 Thermal correction to Enthalpy=                  0.407627
 Thermal correction to Gibbs Free Energy=         0.343108
 Sum of electronic and zero-point Energies=           -641.265659
 Sum of electronic and thermal Energies=              -641.247961
 Sum of electronic and thermal Enthalpies=            -641.247016
 Sum of electronic and thermal Free Energies=         -641.311536

                     E (Thermal)             CV                S
                      KCal/Mol        Cal/Mol-Kelvin    Cal/Mol-Kelvin
 Total                  255.197             66.740            135.792
 Electronic               0.000              0.000              0.000
 Translational            0.889              2.981             41.975
 Rotational               0.889              2.981             33.128
 Vibrational            253.420             60.779             60.689
 Vibration     1          0.593              1.984              6.070
 Vibration     2          0.595              1.978              4.812
 Vibration     3          0.597              1.971              4.315
 Vibration     4          0.599              1.964              3.937
 Vibration     5          0.601              1.959              3.740
 Vibration     6          0.608              1.937              3.179
 Vibration     7          0.612              1.922              2.927
 Vibration     8          0.615              1.912              2.784
 Vibration     9          0.620              1.897              2.608
 Vibration    10          0.632              1.859              2.267
 Vibration    11          0.641              1.830              2.068
 Vibration    12          0.645              1.819              2.003
 Vibration    13          0.650              1.801              1.910
 Vibration    14          0.662              1.764              1.737
 Vibration    15          0.673              1.731              1.607
 Vibration    16          0.684              1.700              1.497
 Vibration    17          0.710              1.624              1.280
 Vibration    18          0.725              1.582              1.182
 Vibration    19          0.745              1.526              1.064
 Vibration    20          0.760              1.485              0.988
 Vibration    21          0.767              1.468              0.959
 Vibration    22          0.798              1.388              0.834
 Vibration    23          0.815              1.346              0.775
 Vibration    24          0.846              1.271              0.682
 Vibration    25          0.872              1.213              0.618
 Vibration    26          0.907              1.135              0.540

 Optimization completed on the basis of negligible forces.
    -- Stationary point found.
 Normal termination of Gaussian 16 at Thu May 25 08:36:39 2023.
