 Gaussian 16, Revision A.03,
 Gaussian 16:  ES64L-G16RevA.03 25-Dec-2016

 -----------------------------
 # opt freq b3lyp/6-31g(2df,p)
 -----------------------------

 -------------------
 Title Card Required
 -------------------
 Symbolic Z-matrix:
 Charge =  0 Multiplicity = 1

 SCF Done:  E(RB3LYP) =  -311.643338945     A.U. after   14 cycles
 SCF Done:  E(RB3LYP) =  -311.703815578     A.U. after   12 cycles
 SCF Done:  E(RB3LYP) =  -311.772977357     A.U. after   12 cycles
 SCF Done:  E(RB3LYP) =  -311.801693195     A.U. after   11 cycles
 SCF Done:  E(RB3LYP) =  -311.804024237     A.U. after    9 cycles
 SCF Done:  E(RB3LYP) =  -311.805130634     A.U. after    8 cycles
 SCF Done:  E(RB3LYP) =  -311.810212621     A.U. after   10 cycles
 SCF Done:  E(RB3LYP) =  -311.842591895     A.U. after   11 cycles
 SCF Done:  E(RB3LYP) =  -311.867003837     A.U. after   11 cycles
 SCF Done:  E(RB3LYP) =  -311.895976281     A.U. after   11 cycles
 SCF Done:  E(RB3LYP) =  -311.968618568     A.U. after   10 cycles
 SCF Done:  E(RB3LYP) =  -311.969559043     A.U. after   10 cycles
 SCF Done:  E(RB3LYP) =  -311.970483712     A.U. after   10 cycles
 SCF Done:  E(RB3LYP) =  -311.971104154     A.U. after   10 cycles
 SCF Done:  E(RB3LYP) =  -311.971359114     A.U. after    9 cycles
 SCF Done:  E(RB3LYP) =  -311.971500112     A.U. after    9 cycles
 SCF Done:  E(RB3LYP) =  -311.971513907     A.U. after    8 cycles
 SCF Done:  E(RB3LYP) =  -311.971516372     A.U. after    7 cycles
 SCF Done:  E(RB3LYP) =  -311.971516584     A.U. after    6 cycles
 Optimization completed.
    -- Stationary point found.
 Normal termination of Gaussian 16 at Sun May 28 17:50:49 2023.

 ----------------------------------------------------------------------
 #N Geom=AllCheck Guess=TCheck SCRF=Check GenChk RB3LYP/6-31G(2df,p) Fr
 eq
 ----------------------------------------------------------------------

 Structure from the checkpoint file:  "CCC1C2C3CC2C13.chk"
 -------------------
 Title Card Required
 -------------------
 Charge =  0 Multiplicity = 1

                         Standard orientation:
 ---------------------------------------------------------------------
 Center     Atomic      Atomic             Coordinates (Angstroms)
 Number     Number       Type             X           Y           Z
 ---------------------------------------------------------------------
      1          6           0        2.390468    0.938586   -0.000033
      2          6           0        2.042110   -0.554156    0.000130
      3          6           0        0.563365   -0.940587   -0.000209
      4          6           0       -0.481822   -0.297029    0.943965
      5          6           0       -0.753294    0.931330    0.000196
      6          6           0       -2.274341    0.691530    0.000073
      7          6           0       -1.661208   -0.719862   -0.000156
      8          6           0       -0.481853   -0.296698   -0.944002
      9          1           0        3.476736    1.074131    0.000800
     10          1           0        1.995185    1.448024    0.884213
     11          1           0        1.996578    1.447498   -0.885219
     12          1           0        2.511561   -1.026570    0.874107
     13          1           0        2.512182   -1.026924   -0.873308
     14          1           0        0.498097   -2.038076   -0.000417
     15          1           0       -0.515372   -0.284978    2.035792
     16          1           0       -0.223732    1.882583    0.000067
     17          1           0       -2.821739    0.992353   -0.899585
     18          1           0       -2.821766    0.991998    0.899835
     19          1           0       -2.153361   -1.694466   -0.000218
     20          1           0       -0.514918   -0.284257   -2.035846
 ---------------------------------------------------------------------

 SCF Done:  E(RB3LYP) =  -311.971516584     A.U. after    1 cycles

 The electronic state is 1-A.
 Alpha  occ. eigenvalues --  -10.19232 -10.19104 -10.19040 -10.19038 -10.18143
 Alpha  occ. eigenvalues --  -10.17547 -10.17507 -10.16899  -0.93094  -0.77458
 Alpha  occ. eigenvalues --   -0.71619  -0.63802  -0.62459  -0.62274  -0.55810
 Alpha  occ. eigenvalues --   -0.49782  -0.49168  -0.45097  -0.44349  -0.43349
 Alpha  occ. eigenvalues --   -0.41691  -0.36718  -0.35576  -0.35152  -0.30965
 Alpha  occ. eigenvalues --   -0.29838  -0.29441  -0.28698  -0.28591  -0.27914
 Alpha virt. eigenvalues --    0.09177   0.11290   0.12502   0.12912   0.13254
 Alpha virt. eigenvalues --    0.13930   0.15429   0.15432   0.16393   0.16813
 Alpha virt. eigenvalues --    0.18421   0.18549   0.19698   0.20407   0.20888

 Mulliken charges:
               1
     1  C   -0.378600
     2  C   -0.216727
     3  C    0.011078
     4  C   -0.054210
     5  C   -0.026605
     6  C   -0.279293
     7  C   -0.028034
     8  C   -0.054170
     9  H    0.106424
    10  H    0.118372
    11  H    0.118343
    12  H    0.094898
    13  H    0.094884
    14  H    0.058694
    15  H    0.062026
    16  H    0.070207
    17  H    0.088009
    18  H    0.087998
    19  H    0.064702
    20  H    0.062005
 Sum of Mulliken charges =   0.00000

 Dipole moment (field-independent basis, Debye):
    X=              0.1678    Y=             -0.0764    Z=             -0.0000  Tot=              0.1843
 Quadrupole moment (field-independent basis, Debye-Ang):
   XX=            -50.3429   YY=            -50.0404   ZZ=            -49.2281
   XY=              0.0972   XZ=             -0.0004   YZ=             -0.0004

  Exact polarizability:  91.222  -2.413  74.771  -0.001  -0.002  70.874
 Approx polarizability: 117.152  -2.166 113.183  -0.002  -0.001 113.233

                      1                      2                      3
                      A                      A                      A
 Frequencies --     93.4961               189.4339               227.2613
 Red. masses --      2.2039                 3.3009                 1.4789
 Frc consts  --      0.0114                 0.0698                 0.0450
 IR Inten    --      0.0000                 0.0702                 0.1903

                      4                      5                      6
                      A                      A                      A
 Frequencies --    307.1034               310.0778               428.9589
 Red. masses --      3.0915                 1.3426                 1.8547
 Frc consts  --      0.1718                 0.0761                 0.2011
 IR Inten    --      0.5170                 0.1972                 0.1826

                      7                      8                      9
                      A                      A                      A
 Frequencies --    565.4980               720.7089               768.7152
 Red. masses --      3.2280                 3.1247                 3.6961
 Frc consts  --      0.6082                 0.9563                 1.2868
 IR Inten    --      0.3077                 0.1417                 0.4847

                     10                     11                     12
                      A                      A                      A
 Frequencies --    769.3366               831.1791               846.0687
 Red. masses --      1.3251                 2.5189                 2.0009
 Frc consts  --      0.4621                 1.0253                 0.8439
 IR Inten    --      1.2785                 0.7174                 0.2887

                     13                     14                     15
                      A                      A                      A
 Frequencies --    852.8642               889.2205               896.3568
 Red. masses --      2.0734                 1.9726                 1.9736
 Frc consts  --      0.8886                 0.9190                 0.9343
 IR Inten    --      0.3859                 1.0798                 1.0607

                     16                     17                     18
                      A                      A                      A
 Frequencies --    915.6508               943.8977               964.0119
 Red. masses --      2.2257                 2.0842                 1.0681
 Frc consts  --      1.0995                 1.0941                 0.5848
 IR Inten    --      1.4654                 3.3034                 0.0096

                     19                     20                     21
                      A                      A                      A
 Frequencies --   1006.7806              1028.1747              1044.3206
 Red. masses --      3.1169                 1.2910                 1.0978
 Frc consts  --      1.8614                 0.8041                 0.7054
 IR Inten    --      0.9286                 0.0834                 0.0164

                     22                     23                     24
                      A                      A                      A
 Frequencies --   1075.3085              1091.6693              1106.7080
 Red. masses --      1.6035                 2.5980                 1.3263
 Frc consts  --      1.0924                 1.8242                 0.9571
 IR Inten    --      0.3386                 3.5605                 0.2861

                     25                     26                     27
                      A                      A                      A
 Frequencies --   1136.7836              1153.5197              1153.5594
 Red. masses --      2.0475                 1.8512                 2.1012
 Frc consts  --      1.5589                 1.4513                 1.6474
 IR Inten    --      1.3824                 0.3690                 0.5058

                     28                     29                     30
                      A                      A                      A
 Frequencies --   1157.5433              1178.9250              1192.7625
 Red. masses --      1.4336                 1.6009                 1.6124
 Frc consts  --      1.1318                 1.3110                 1.3515
 IR Inten    --      0.0087                 6.5183                 4.3066

                     31                     32                     33
                      A                      A                      A
 Frequencies --   1236.5062              1243.5083              1291.8828
 Red. masses --      1.6103                 1.5787                 1.5799
 Frc consts  --      1.4506                 1.4383                 1.5535
 IR Inten    --      6.5218                10.3403                 3.7509

                     34                     35                     36
                      A                      A                      A
 Frequencies --   1318.2647              1324.4764              1361.9548
 Red. masses --      2.0460                 1.2172                 1.7899
 Frc consts  --      2.0949                 1.2581                 1.9561
 IR Inten    --      0.5122                 1.0817                 0.1887

                     37                     38                     39
                      A                      A                      A
 Frequencies --   1402.7030              1430.2349              1481.7641
 Red. masses --      1.2456                 1.4012                 1.0710
 Frc consts  --      1.4439                 1.6888                 1.3855
 IR Inten    --      2.8101                16.7057                 0.7821

                     40                     41                     42
                      A                      A                      A
 Frequencies --   1501.9479              1509.0037              1510.3297
 Red. masses --      1.0402                 1.0621                 1.1328
 Frc consts  --      1.3825                 1.4250                 1.5224
 IR Inten    --      5.9418                 6.5904                 0.0549

                     43                     44                     45
                      A                      A                      A
 Frequencies --   2993.6688              3012.2978              3031.2823
 Red. masses --      1.0741                 1.0688                 1.0543
 Frc consts  --      5.6715                 5.7138                 5.7077
 IR Inten    --     17.0648                82.8459                65.7171

                     46                     47                     48
                      A                      A                      A
 Frequencies --   3032.9839              3035.8381              3081.2908
 Red. masses --      1.1011                 1.0352                 1.0860
 Frc consts  --      5.9676                 5.6213                 6.0751
 IR Inten    --     21.6193                16.3825                 7.6700

                     49                     50                     51
                      A                      A                      A
 Frequencies --   3082.0140              3086.7471              3095.6309
 Red. masses --      1.0895                 1.1093                 1.0937
 Frc consts  --      6.0972                 6.2271                 6.1752
 IR Inten    --    103.7001                41.6947                86.4863

                     52                     53                     54
                      A                      A                      A
 Frequencies --   3099.8732              3108.3118              3126.0979
 Red. masses --      1.1004                 1.1019                 1.0927
 Frc consts  --      6.2299                 6.2724                 6.2915
 IR Inten    --     30.8998                36.3248                32.8127

 - Thermochemistry -
 -------------------
 Temperature   298.150 Kelvin.  Pressure   1.00000 Atm.
 Atom     1 has atomic number  6 and mass  12.00000

 Molecular mass:   108.09390 amu.
 Principal axes and moments of inertia in atomic units:
                           1         2         3
     Eigenvalues --   371.840051138.576261264.09491
           X            0.99998   0.00608  -0.00000
           Y           -0.00608   0.99998  -0.00002
           Z            0.00000   0.00002   1.00000
 This molecule is an asymmetric top.
 Rotational symmetry number  1.
 Rotational temperatures (Kelvin)      0.23293     0.07607     0.06852
 Rotational constants (GHZ):           4.85354     1.58509     1.42769
 Zero-point vibrational energy     468006.1 (Joules/Mol)
                                  111.85614 (Kcal/Mol)
 Warning -- explicit consideration of   7 degrees of freedom as
           vibrations may cause significant error
 Vibrational temperatures:    134.52   272.55   326.98   441.85   446.13
          (Kelvin)            617.18   813.63  1036.94  1106.01  1106.90
                             1195.88  1217.30  1227.08  1279.39  1289.66
                             1317.42  1358.06  1387.00  1448.53  1479.31
                             1502.54  1547.13  1570.67  1592.31  1635.58
                             1659.66  1659.71  1665.45  1696.21  1716.12
                             1779.06  1789.13  1858.73  1896.69  1905.63
                             1959.55  2018.18  2057.79  2131.93  2160.97
                             2171.12  2173.03  4307.22  4334.02  4361.34
                             4363.79  4367.89  4433.29  4434.33  4441.14
                             4453.92  4460.03  4472.17  4497.76

 Zero-point correction=                           0.178254 (Hartree/Particle)
 Thermal correction to Energy=                    0.185340
 Thermal correction to Enthalpy=                  0.186284
 Thermal correction to Gibbs Free Energy=         0.147103
 Sum of electronic and zero-point Energies=           -311.793262
 Sum of electronic and thermal Energies=              -311.786177
 Sum of electronic and thermal Enthalpies=            -311.785232
 Sum of electronic and thermal Free Energies=         -311.824413

                     E (Thermal)             CV                S
                      KCal/Mol        Cal/Mol-Kelvin    Cal/Mol-Kelvin
 Total                  116.303             28.409             82.463
 Electronic               0.000              0.000              0.000
 Translational            0.889              2.981             39.950
 Rotational               0.889              2.981             27.772
 Vibrational            114.525             22.447             14.741
 Vibration     1          0.603              1.954              3.586
 Vibration     2          0.633              1.854              2.233
 Vibration     3          0.651              1.799              1.900
 Vibration     4          0.697              1.660              1.378
 Vibration     5          0.699              1.655              1.362
 Vibration     6          0.790              1.407              0.862
 Vibration     7          0.921              1.106              0.513

 Optimization completed.
    -- Stationary point found.
 Normal termination of Gaussian 16 at Sun May 28 18:17:19 2023.
