 Gaussian 16, Revision A.03,
 Gaussian 16:  ES64L-G16RevA.03 25-Dec-2016

 -----------------------------
 # opt freq b3lyp/6-31g(2df,p)
 -----------------------------

 -------------------
 Title Card Required
 -------------------
 Symbolic Z-matrix:
 Charge =  0 Multiplicity = 1

 SCF Done:  E(RB3LYP) =  -352.444603011     A.U. after   12 cycles
 SCF Done:  E(RB3LYP) =  -352.474932057     A.U. after   10 cycles
 SCF Done:  E(RB3LYP) =  -352.482499834     A.U. after   11 cycles
 SCF Done:  E(RB3LYP) =  -352.495949939     A.U. after   11 cycles
 SCF Done:  E(RB3LYP) =  -352.495464105     A.U. after   10 cycles
 SCF Done:  E(RB3LYP) =  -352.505883511     A.U. after   10 cycles
 SCF Done:  E(RB3LYP) =  -352.510071869     A.U. after   10 cycles
 SCF Done:  E(RB3LYP) =  -352.511023897     A.U. after   10 cycles
 SCF Done:  E(RB3LYP) =  -352.511550082     A.U. after   10 cycles
 SCF Done:  E(RB3LYP) =  -352.511761741     A.U. after    9 cycles
 SCF Done:  E(RB3LYP) =  -352.527180233     A.U. after    9 cycles
 SCF Done:  E(RB3LYP) =  -352.527250316     A.U. after    9 cycles
 SCF Done:  E(RB3LYP) =  -352.527297904     A.U. after    8 cycles
 SCF Done:  E(RB3LYP) =  -352.527366644     A.U. after    8 cycles
 SCF Done:  E(RB3LYP) =  -352.527371306     A.U. after    7 cycles
 SCF Done:  E(RB3LYP) =  -352.527378848     A.U. after    8 cycles
 SCF Done:  E(RB3LYP) =  -352.527379980     A.U. after    6 cycles
 SCF Done:  E(RB3LYP) =  -352.527380474     A.U. after    6 cycles
 SCF Done:  E(RB3LYP) =  -352.527380560     A.U. after    6 cycles
 Optimization completed.
    -- Stationary point found.
 Normal termination of Gaussian 16 at Sun May 28 17:51:36 2023.

 ----------------------------------------------------------------------
 #N Geom=AllCheck Guess=TCheck SCRF=Check GenChk RB3LYP/6-31G(2df,p) Fr
 eq
 ----------------------------------------------------------------------

 Structure from the checkpoint file:  "CCC1C2CC1C2qCrC.chk"
 -------------------
 Title Card Required
 -------------------
 Charge =  0 Multiplicity = 1

                         Standard orientation:
 ---------------------------------------------------------------------
 Center     Atomic      Atomic             Coordinates (Angstroms)
 Number     Number       Type             X           Y           Z
 ---------------------------------------------------------------------
      1          6           0        2.942270    0.334819   -0.557937
      2          6           0        1.985549    0.106852    0.618726
      3          6           0        0.799663   -0.788911    0.250256
      4          6           0       -0.598070   -0.746045    0.946493
      5          6           0       -1.050171   -1.730611   -0.178212
      6          6           0       -0.267604   -0.593596   -0.898752
      7          6           0       -1.047669    0.438832   -0.003568
      8          6           0       -2.561788    0.626156   -0.203263
      9          6           0       -0.462191    1.858945    0.138380
     10          1           0        3.836757    0.882444   -0.244859
     11          1           0        2.461479    0.908367   -1.358045
     12          1           0        3.268151   -0.617653   -0.990855
     13          1           0        1.686656    1.062519    1.048464
     14          1           0        2.529433   -0.412450    1.419139
     15          1           0        1.195270   -1.811312    0.207954
     16          1           0       -0.800050   -0.837147    2.017491
     17          1           0       -2.111745   -1.831442   -0.388650
     18          1           0       -0.568742   -2.711087   -0.168091
     19          1           0       -0.075712   -0.513741   -1.972149
     20          1           0       -3.155033   -0.286852   -0.159489
     21          1           0       -2.761945    1.108796   -1.167209
     22          1           0       -2.947815    1.297134    0.573242
     23          1           0        0.535546    1.968672   -0.282924
     24          1           0       -0.430121    2.183141    1.184984
     25          1           0       -1.102057    2.571975   -0.391748
 ---------------------------------------------------------------------

 SCF Done:  E(RB3LYP) =  -352.527380560     A.U. after    1 cycles

 The electronic state is 1-A.
 Alpha  occ. eigenvalues --  -10.19508 -10.19120 -10.19116 -10.18372 -10.17687
 Alpha  occ. eigenvalues --  -10.17283 -10.17052 -10.16575 -10.16566  -0.90102
 Alpha  occ. eigenvalues --   -0.76659  -0.75019  -0.68127  -0.64904  -0.61624
 Alpha  occ. eigenvalues --   -0.61243  -0.57471  -0.49333  -0.48591  -0.45660
 Alpha  occ. eigenvalues --   -0.44569  -0.42280  -0.40868  -0.39905  -0.38542
 Alpha  occ. eigenvalues --   -0.37699  -0.36677  -0.35086  -0.34083  -0.32299
 Alpha  occ. eigenvalues --   -0.30743  -0.29613  -0.28845  -0.28767  -0.27595
 Alpha virt. eigenvalues --    0.09018   0.10532   0.11656   0.12583   0.12913
 Alpha virt. eigenvalues --    0.14113   0.14260   0.15030   0.16023   0.16540
 Alpha virt. eigenvalues --    0.16916   0.17710   0.17839   0.18249   0.19877

 Mulliken charges:
               1
     1  C   -0.370667
     2  C   -0.255099
     3  C    0.085072
     4  C   -0.127269
     5  C   -0.238020
     6  C   -0.113455
     7  C    0.404291
     8  C   -0.473273
     9  C   -0.483600
    10  H    0.109770
    11  H    0.116509
    12  H    0.112896
    13  H    0.102717
    14  H    0.089823
    15  H    0.061723
    16  H    0.058261
    17  H    0.089804
    18  H    0.086466
    19  H    0.058695
    20  H    0.112628
    21  H    0.113481
    22  H    0.112465
    23  H    0.125840
    24  H    0.115242
    25  H    0.105701
 Sum of Mulliken charges =  -0.00000

 Dipole moment (field-independent basis, Debye):
    X=              0.0571    Y=              0.1183    Z=              0.0638  Tot=              0.1460
 Quadrupole moment (field-independent basis, Debye-Ang):
   XX=            -58.3194   YY=            -58.3078   ZZ=            -58.0603
   XY=             -0.2899   XZ=              0.2265   YZ=              0.0144

  Exact polarizability: 105.717  -1.088  93.650   0.985   0.176  81.686
 Approx polarizability: 136.495  -1.949 134.896   1.099  -0.058 130.359

                      1                      2                      3
                      A                      A                      A
 Frequencies --     69.5739               107.0078               144.9558
 Red. masses --      2.1907                 1.8471                 1.5152
 Frc consts  --      0.0062                 0.0125                 0.0188
 IR Inten    --      0.0946                 0.0347                 0.1327

                      4                      5                      6
                      A                      A                      A
 Frequencies --    207.1756               223.2710               231.4764
 Red. masses --      1.1742                 1.2721                 1.5724
 Frc consts  --      0.0297                 0.0374                 0.0496
 IR Inten    --      0.1271                 0.0238                 0.0001

                      7                      8                      9
                      A                      A                      A
 Frequencies --    347.5947               358.5284               369.3105
 Red. masses --      2.2213                 2.7258                 2.2403
 Frc consts  --      0.1581                 0.2064                 0.1800
 IR Inten    --      0.0558                 0.3499                 0.1398

                     10                     11                     12
                      A                      A                      A
 Frequencies --    414.2675               465.6325               556.2011
 Red. masses --      2.6580                 2.5055                 2.3761
 Frc consts  --      0.2688                 0.3201                 0.4331
 IR Inten    --      0.3074                 0.1197                 0.9991

                     13                     14                     15
                      A                      A                      A
 Frequencies --    617.2622               645.2665               747.6791
 Red. masses --      3.2235                 3.1054                 1.9112
 Frc consts  --      0.7236                 0.7618                 0.6295
 IR Inten    --      0.6406                 0.2452                 0.6025

                     16                     17                     18
                      A                      A                      A
 Frequencies --    758.8117               792.5435               841.4331
 Red. masses --      2.2877                 2.1614                 1.5360
 Frc consts  --      0.7761                 0.7999                 0.6408
 IR Inten    --      0.5108                 0.6383                 2.3942

                     19                     20                     21
                      A                      A                      A
 Frequencies --    878.4697               888.9776               949.6762
 Red. masses --      2.1307                 2.1714                 1.7678
 Frc consts  --      0.9688                 1.0111                 0.9394
 IR Inten    --      0.6239                 0.2435                 0.5976

                     22                     23                     24
                      A                      A                      A
 Frequencies --    963.7728               970.3265              1003.4099
 Red. masses --      2.1385                 1.4748                 1.2468
 Frc consts  --      1.1703                 0.8181                 0.7396
 IR Inten    --      2.0461                 0.0915                 0.1481

                     25                     26                     27
                      A                      A                      A
 Frequencies --   1019.8883              1043.9216              1052.5776
 Red. masses --      1.0389                 1.7791                 1.4101
 Frc consts  --      0.6367                 1.1423                 0.9205
 IR Inten    --      0.7163                 0.2020                 2.8221

                     28                     29                     30
                      A                      A                      A
 Frequencies --   1069.5182              1088.3284              1108.0270
 Red. masses --      2.2364                 1.4713                 1.4800
 Frc consts  --      1.5072                 1.0267                 1.0706
 IR Inten    --      1.1951                 1.3463                 5.1600

                     31                     32                     33
                      A                      A                      A
 Frequencies --   1123.5219              1163.3028              1172.2446
 Red. masses --      1.7304                 2.2342                 1.6454
 Frc consts  --      1.2869                 1.7814                 1.3321
 IR Inten    --      0.3972                 2.1904                 0.4570

                     34                     35                     36
                      A                      A                      A
 Frequencies --   1194.4283              1200.6862              1218.9798
 Red. masses --      1.5531                 2.7243                 2.0715
 Frc consts  --      1.3055                 2.3140                 1.8135
 IR Inten    --      0.6123                 4.1763                 4.1468

                     37                     38                     39
                      A                      A                      A
 Frequencies --   1237.1198              1252.5353              1290.8413
 Red. masses --      1.6383                 2.0940                 1.5700
 Frc consts  --      1.4773                 1.9356                 1.5413
 IR Inten    --      6.4901                 4.8913                 3.4252

                     40                     41                     42
                      A                      A                      A
 Frequencies --   1302.5068              1354.5486              1405.8664
 Red. masses --      1.7566                 1.4647                 1.2265
 Frc consts  --      1.7558                 1.5834                 1.4283
 IR Inten    --      4.6478                 6.8982                 2.6759

                     43                     44                     45
                      A                      A                      A
 Frequencies --   1410.0937              1422.5521              1459.6538
 Red. masses --      1.2289                 1.2002                 1.1707
 Frc consts  --      1.4397                 1.4310                 1.4696
 IR Inten    --      2.5604                 1.9845                 7.1186

                     46                     47                     48
                      A                      A                      A
 Frequencies --   1486.5841              1489.5146              1498.1954
 Red. masses --      1.0518                 1.0578                 1.0493
 Frc consts  --      1.3694                 1.3828                 1.3876
 IR Inten    --      5.1551                 0.7865                 1.5063

                     49                     50                     51
                      A                      A                      A
 Frequencies --   1499.2358              1504.3304              1508.9255
 Red. masses --      1.0479                 1.0597                 1.0661
 Frc consts  --      1.3877                 1.4129                 1.4302
 IR Inten    --      3.5594                 4.4188                 4.1286

                     52                     53                     54
                      A                      A                      A
 Frequencies --   1536.8165              1548.4307              3006.6800
 Red. masses --      1.0644                 1.1015                 1.0814
 Frc consts  --      1.4812                 1.5560                 5.7600
 IR Inten    --      2.8404                 1.6249                22.8450

                     55                     56                     57
                      A                      A                      A
 Frequencies --   3024.6799              3026.9838              3027.9721
 Red. masses --      1.0763                 1.0417                 1.0357
 Frc consts  --      5.8018                 5.6238                 5.5949
 IR Inten    --     48.4563                19.0254                20.3461

                     58                     59                     60
                      A                      A                      A
 Frequencies --   3035.5234              3065.7956              3068.1732
 Red. masses --      1.0429                 1.0798                 1.0834
 Frc consts  --      5.6617                 5.9798                 6.0089
 IR Inten    --     37.1869                48.5495                87.9001

                     61                     62                     63
                      A                      A                      A
 Frequencies --   3078.5560              3083.3028              3085.1189
 Red. masses --      1.1000                 1.0817                 1.0979
 Frc consts  --      6.1424                 6.0591                 6.1567
 IR Inten    --     21.0146                37.5338                19.7606

                     64                     65                     66
                      A                      A                      A
 Frequencies --   3088.6209              3099.7897              3125.5780
 Red. masses --      1.0983                 1.1016                 1.0901
 Frc consts  --      6.1733                 6.2364                 6.2743
 IR Inten    --     26.0232                40.7589                33.4910

                     67                     68                     69
                      A                      A                      A
 Frequencies --   3131.9651              3153.2241              3163.8051
 Red. masses --      1.0979                 1.0927                 1.0960
 Frc consts  --      6.3451                 6.4015                 6.4638
 IR Inten    --     37.8486                15.7969                50.5306

 - Thermochemistry -
 -------------------
 Temperature   298.150 Kelvin.  Pressure   1.00000 Atm.
 Atom     1 has atomic number  6 and mass  12.00000

 Molecular mass:   124.12520 amu.
 Principal axes and moments of inertia in atomic units:
                           1         2         3
     Eigenvalues --   675.936641414.606781745.59446
           X            1.00000  -0.00171  -0.00220
           Y            0.00172   0.99999   0.00330
           Z            0.00219  -0.00331   0.99999
 This molecule is an asymmetric top.
 Rotational symmetry number  1.
 Warning -- assumption of classical behavior for rotation
           may cause significant error
 Rotational temperatures (Kelvin)      0.12814     0.06123     0.04962
 Rotational constants (GHZ):           2.66999     1.27579     1.03388
 Zero-point vibrational energy     601013.2 (Joules/Mol)
                                  143.64561 (Kcal/Mol)
 Warning -- explicit consideration of  13 degrees of freedom as
           vibrations may cause significant error
 Vibrational temperatures:    100.10   153.96   208.56   298.08   321.24
          (Kelvin)            333.04   500.11   515.84   531.36   596.04
                              669.94   800.25   888.10   928.39  1075.74
                             1091.76  1140.29  1210.63  1263.92  1279.04
                             1366.37  1386.65  1396.08  1443.68  1467.39
                             1501.97  1514.42  1538.80  1565.86  1594.20
                             1616.50  1673.73  1686.60  1718.52  1727.52
                             1753.84  1779.94  1802.12  1857.23  1874.02
                             1948.89  2022.73  2028.81  2046.74  2100.12
                             2138.86  2143.08  2155.57  2157.07  2164.40
                             2171.01  2211.14  2227.85  4325.94  4351.84
                             4355.15  4356.58  4367.44  4411.00  4414.42
                             4429.36  4436.19  4438.80  4443.84  4459.91
                             4497.01  4506.20  4536.79  4552.01

 Zero-point correction=                           0.228914 (Hartree/Particle)
 Thermal correction to Energy=                    0.238600
 Thermal correction to Enthalpy=                  0.239544
 Thermal correction to Gibbs Free Energy=         0.194713
 Sum of electronic and zero-point Energies=           -352.298467
 Sum of electronic and thermal Energies=              -352.288780
 Sum of electronic and thermal Enthalpies=            -352.287836
 Sum of electronic and thermal Free Energies=         -352.332668

                     E (Thermal)             CV                S
                      KCal/Mol        Cal/Mol-Kelvin    Cal/Mol-Kelvin
 Total                  149.724             38.055             94.356
 Electronic               0.000              0.000              0.000
 Translational            0.889              2.981             40.362
 Rotational               0.889              2.981             28.903
 Vibrational            147.946             32.093             25.091
 Vibration     1          0.598              1.969              4.165
 Vibration     2          0.606              1.944              3.322
 Vibration     3          0.616              1.908              2.737
 Vibration     4          0.641              1.830              2.068
 Vibration     5          0.649              1.806              1.932
 Vibration     6          0.653              1.793              1.867
 Vibration     7          0.725              1.580              1.177
 Vibration     8          0.733              1.558              1.128
 Vibration     9          0.742              1.535              1.083
 Vibration    10          0.778              1.439              0.912
 Vibration    11          0.823              1.326              0.750
 Vibration    12          0.912              1.126              0.531
 Vibration    13          0.977              0.995              0.421

 Optimization completed.
    -- Stationary point found.
 Normal termination of Gaussian 16 at Sun May 28 18:37:46 2023.
