 Gaussian 16, Revision A.03,
 Gaussian 16:  ES64L-G16RevA.03 25-Dec-2016

 -----------------------------
 # opt freq b3lyp/6-31g(2df,p)
 -----------------------------

 -------------------
 Title Card Required
 -------------------
 Symbolic Z-matrix:
 Charge =  0 Multiplicity = 1

 SCF Done:  E(RB3LYP) =  -353.834661768     A.U. after   12 cycles
 SCF Done:  E(RB3LYP) =  -353.838685310     A.U. after   10 cycles
 SCF Done:  E(RB3LYP) =  -353.840060122     A.U. after    9 cycles
 SCF Done:  E(RB3LYP) =  -353.841386893     A.U. after   12 cycles
 SCF Done:  E(RB3LYP) =  -353.841768511     A.U. after   10 cycles
 SCF Done:  E(RB3LYP) =  -353.842022294     A.U. after    9 cycles
 SCF Done:  E(RB3LYP) =  -353.842055832     A.U. after    8 cycles
 SCF Done:  E(RB3LYP) =  -353.841871226     A.U. after    9 cycles
 SCF Done:  E(RB3LYP) =  -353.842178762     A.U. after   10 cycles
 SCF Done:  E(RB3LYP) =  -353.842346918     A.U. after   10 cycles
 SCF Done:  E(RB3LYP) =  -353.842530695     A.U. after    9 cycles
 SCF Done:  E(RB3LYP) =  -353.841840294     A.U. after   10 cycles
 SCF Done:  E(RB3LYP) =  -353.842549255     A.U. after   10 cycles
 SCF Done:  E(RB3LYP) =  -353.842519092     A.U. after    9 cycles
 SCF Done:  E(RB3LYP) =  -353.842551767     A.U. after    9 cycles
 SCF Done:  E(RB3LYP) =  -353.842545862     A.U. after    9 cycles
 SCF Done:  E(RB3LYP) =  -353.842552452     A.U. after    9 cycles
 SCF Done:  E(RB3LYP) =  -353.842552764     A.U. after    8 cycles
 SCF Done:  E(RB3LYP) =  -353.842552747     A.U. after    7 cycles
 Optimization completed.
    -- Stationary point found.
 Normal termination of Gaussian 16 at Sun May 28 10:31:01 2023.

 ----------------------------------------------------------------------
 #N Geom=AllCheck Guess=TCheck SCRF=Check GenChk RB3LYP/6-31G(2df,p) Fr
 eq
 ----------------------------------------------------------------------

 Structure from the checkpoint file:  "CCC1CCCqCCrC1.chk"
 -------------------
 Title Card Required
 -------------------
 Charge =  0 Multiplicity = 1

                         Standard orientation:
 ---------------------------------------------------------------------
 Center     Atomic      Atomic             Coordinates (Angstroms)
 Number     Number       Type             X           Y           Z
 ---------------------------------------------------------------------
      1          6           0       -3.674096   -0.337205   -0.090713
      2          6           0       -2.299936   -0.942960    0.211936
      3          6           0       -1.122745   -0.137722   -0.348283
      4          6           0       -0.966757    1.285648    0.229829
      5          6           0        0.504015    1.624656   -0.037301
      6          6           0        1.251207    0.320818    0.308417
      7          6           0        2.646081    0.215320   -0.315940
      8          6           0        3.439308   -1.013645    0.139649
      9          6           0        0.262554   -0.808108   -0.106392
     10          1           0       -4.479597   -0.964231    0.304548
     11          1           0       -3.831659   -0.236096   -1.170692
     12          1           0       -3.781679    0.657940    0.352845
     13          1           0       -2.258291   -1.962549   -0.193326
     14          1           0       -2.173654   -1.044665    1.299123
     15          1           0       -1.270478   -0.037703   -1.432758
     16          1           0       -1.154558    1.270399    1.312701
     17          1           0       -1.663119    2.006052   -0.209062
     18          1           0        0.866748    2.484304    0.535186
     19          1           0        0.643499    1.862433   -1.101057
     20          1           0        1.368889    0.288045    1.400867
     21          1           0        3.215842    1.122176   -0.073359
     22          1           0        2.544965    0.203620   -1.410310
     23          1           0        3.582370   -1.009376    1.226275
     24          1           0        4.429761   -1.043137   -0.325460
     25          1           0        2.923076   -1.943632   -0.120902
     26          1           0        0.192148   -1.576286    0.670984
     27          1           0        0.607959   -1.318114   -1.012819
 ---------------------------------------------------------------------

 SCF Done:  E(RB3LYP) =  -353.842552747     A.U. after    1 cycles

 The electronic state is 1-A.
 Alpha  occ. eigenvalues --  -10.17525 -10.17487 -10.17300 -10.17285 -10.16910
 Alpha  occ. eigenvalues --  -10.16887 -10.16798 -10.16792 -10.16736  -0.83481
 Alpha  occ. eigenvalues --   -0.77637  -0.74436  -0.69632  -0.68073  -0.61424
 Alpha  occ. eigenvalues --   -0.59421  -0.55548  -0.53551  -0.46762  -0.46634
 Alpha  occ. eigenvalues --   -0.43953  -0.42689  -0.40505  -0.40276  -0.39501
 Alpha  occ. eigenvalues --   -0.38572  -0.36388  -0.35526  -0.34307  -0.33534
 Alpha  occ. eigenvalues --   -0.32085  -0.31124  -0.30587  -0.30413  -0.29758
 Alpha  occ. eigenvalues --   -0.29666
 Alpha virt. eigenvalues --    0.08538   0.09220   0.10561   0.11980   0.13300
 Alpha virt. eigenvalues --    0.14306   0.14926   0.15516   0.16543   0.16614
 Alpha virt. eigenvalues --    0.17258   0.18056   0.18442   0.18905   0.19167

 Mulliken charges:
               1
     1  C   -0.384226
     2  C   -0.190330
     3  C    0.067745
     4  C   -0.215633
     5  C   -0.229191
     6  C    0.069475
     7  C   -0.189540
     8  C   -0.382775
     9  C   -0.241879
    10  H    0.108881
    11  H    0.111355
    12  H    0.117367
    13  H    0.090997
    14  H    0.089138
    15  H    0.062060
    16  H    0.088482
    17  H    0.090632
    18  H    0.087536
    19  H    0.089316
    20  H    0.061919
    21  H    0.089407
    22  H    0.088667
    23  H    0.111264
    24  H    0.108903
    25  H    0.117358
    26  H    0.091791
    27  H    0.091283
 Sum of Mulliken charges =  -0.00000

 Dipole moment (field-independent basis, Debye):
    X=              0.0063    Y=              0.0234    Z=             -0.0071  Tot=              0.0253
 Quadrupole moment (field-independent basis, Debye-Ang):
   XX=            -60.7950   YY=            -60.0617   ZZ=            -58.7862
   XY=              0.3906   XZ=              0.0653   YZ=              0.2227

  Exact polarizability: 114.830  -0.278  91.735  -0.019  -0.190  82.702
 Approx polarizability: 133.125   0.389 130.713   0.047   0.090 132.231

                      1                      2                      3
                      A                      A                      A
 Frequencies --     19.6657                94.7814               126.3610
 Red. masses --      2.5218                 2.1712                 2.2102
 Frc consts  --      0.0006                 0.0115                 0.0208
 IR Inten    --      0.0017                 0.0044                 0.0011

                      4                      5                      6
                      A                      A                      A
 Frequencies --    149.1588               183.6310               222.6828
 Red. masses --      2.0135                 1.7540                 1.7643
 Frc consts  --      0.0264                 0.0348                 0.0515
 IR Inten    --      0.0134                 0.0043                 0.0093

                      7                      8                      9
                      A                      A                      A
 Frequencies --    241.0461               259.5148               357.0094
 Red. masses --      1.1693                 1.4661                 2.5631
 Frc consts  --      0.0400                 0.0582                 0.1925
 IR Inten    --      0.0125                 0.0013                 0.1639

                     10                     11                     12
                      A                      A                      A
 Frequencies --    388.0014               418.9715               439.9677
 Red. masses --      2.7347                 2.0026                 1.9681
 Frc consts  --      0.2426                 0.2071                 0.2245
 IR Inten    --      0.0847                 0.0574                 0.0310

                     13                     14                     15
                      A                      A                      A
 Frequencies --    550.6237               587.8864               765.0630
 Red. masses --      2.2732                 2.7469                 1.4535
 Frc consts  --      0.4061                 0.5593                 0.5013
 IR Inten    --      0.3922                 0.0081                 1.4255

                     16                     17                     18
                      A                      A                      A
 Frequencies --    779.9119               804.9508               835.3973
 Red. masses --      1.2803                 1.3658                 2.4006
 Frc consts  --      0.4588                 0.5214                 0.9871
 IR Inten    --      1.2369                 1.2249                 0.0413

                     19                     20                     21
                      A                      A                      A
 Frequencies --    869.8198               933.1218               947.0857
 Red. masses --      2.0701                 1.5469                 1.7231
 Frc consts  --      0.9228                 0.7936                 0.9106
 IR Inten    --      0.7776                 0.7805                 0.7023

                     22                     23                     24
                      A                      A                      A
 Frequencies --    949.9945               955.8350               982.7187
 Red. masses --      1.6816                 1.9511                 1.6258
 Frc consts  --      0.8942                 1.0503                 0.9251
 IR Inten    --      3.8464                 1.6305                 0.0118

                     25                     26                     27
                      A                      A                      A
 Frequencies --   1022.3813              1033.0603              1045.9179
 Red. masses --      1.5662                 2.2897                 1.8640
 Frc consts  --      0.9646                 1.4397                 1.2014
 IR Inten    --      0.3739                 1.3605                 0.2992

                     28                     29                     30
                      A                      A                      A
 Frequencies --   1060.4630              1095.6356              1107.6748
 Red. masses --      1.5405                 1.7764                 1.8009
 Frc consts  --      1.0207                 1.2564                 1.3018
 IR Inten    --      0.0783                 0.3369                 0.0709

                     31                     32                     33
                      A                      A                      A
 Frequencies --   1149.8221              1158.6692              1215.2776
 Red. masses --      2.3581                 2.3006                 1.7319
 Frc consts  --      1.8368                 1.8198                 1.5070
 IR Inten    --      0.2569                 1.1611                 1.3435

                     34                     35                     36
                      A                      A                      A
 Frequencies --   1218.7136              1246.0143              1289.5555
 Red. masses --      1.5981                 1.3934                 1.3306
 Frc consts  --      1.3985                 1.2746                 1.3037
 IR Inten    --      0.6007                 0.9373                 0.0630

                     37                     38                     39
                      A                      A                      A
 Frequencies --   1294.3442              1296.3974              1310.3685
 Red. masses --      1.2695                 1.3177                 1.1895
 Frc consts  --      1.2531                 1.3048                 1.2034
 IR Inten    --      1.8865                 0.7372                 5.4903

                     40                     41                     42
                      A                      A                      A
 Frequencies --   1324.8664              1335.6090              1349.7703
 Red. masses --      1.1767                 1.2823                 1.2943
 Frc consts  --      1.2169                 1.3477                 1.3893
 IR Inten    --      1.6949                 2.6665                 2.1107

                     43                     44                     45
                      A                      A                      A
 Frequencies --   1358.4005              1375.5839              1387.8739
 Red. masses --      1.3226                 1.4427                 1.5459
 Frc consts  --      1.4379                 1.6084                 1.7544
 IR Inten    --      1.1618                 5.2265                 0.1480

                     46                     47                     48
                      A                      A                      A
 Frequencies --   1391.9893              1411.3229              1411.9038
 Red. masses --      1.5631                 1.2374                 1.2424
 Frc consts  --      1.7844                 1.4521                 1.4592
 IR Inten    --      1.5154                 0.3223                 3.6021

                     49                     50                     51
                      A                      A                      A
 Frequencies --   1483.0584              1485.5955              1490.4401
 Red. masses --      1.0697                 1.0687                 1.0824
 Frc consts  --      1.3862                 1.3897                 1.4166
 IR Inten    --      0.2138                 0.2049                 2.1057

                     52                     53                     54
                      A                      A                      A
 Frequencies --   1492.5008              1499.7477              1500.5565
 Red. masses --      1.0808                 1.0464                 1.0451
 Frc consts  --      1.4185                 1.3867                 1.3865
 IR Inten    --      2.8338                 0.1870                 7.0267

                     55                     56                     57
                      A                      A                      A
 Frequencies --   1505.2982              1507.4818              1508.7261
 Red. masses --      1.0824                 1.0676                 1.0827
 Frc consts  --      1.4451                 1.4294                 1.4521
 IR Inten    --      0.1928                 4.9087                 0.1356

                     58                     59                     60
                      A                      A                      A
 Frequencies --   2991.0764              2994.2555              3004.8758
 Red. masses --      1.0807                 1.0801                 1.0636
 Frc consts  --      5.6966                 5.7057                 5.6581
 IR Inten    --     12.7152                 0.6818                 6.4150

                     61                     62                     63
                      A                      A                      A
 Frequencies --   3005.8058              3011.7746              3018.5107
 Red. masses --      1.0615                 1.0688                 1.0638
 Frc consts  --      5.6504                 5.7118                 5.7107
 IR Inten    --     37.0130                 6.4015                73.9759

                     64                     65                     66
                      A                      A                      A
 Frequencies --   3028.7888              3029.5888              3033.2672
 Red. masses --      1.0378                 1.0368                 1.0616
 Frc consts  --      5.6090                 5.6066                 5.7548
 IR Inten    --     17.4536                27.7672                34.4462

                     67                     68                     69
                      A                      A                      A
 Frequencies --   3039.5311              3040.7528              3071.1168
 Red. masses --      1.1005                 1.0974                 1.1027
 Frc consts  --      5.9905                 5.9782                 6.1279
 IR Inten    --     24.4578                32.7837                24.0430

                     70                     71                     72
                      A                      A                      A
 Frequencies --   3076.5411              3083.4789              3094.7551
 Red. masses --      1.0958                 1.0983                 1.1010
 Frc consts  --      6.1112                 6.1527                 6.2126
 IR Inten    --     40.7297                57.8504                 5.5023

                     73                     74                     75
                      A                      A                      A
 Frequencies --   3094.9649              3100.8111              3102.5797
 Red. masses --      1.1009                 1.1012                 1.1011
 Frc consts  --      6.2131                 6.2386                 6.2450
 IR Inten    --     87.9600                43.0153                41.4748

 - Thermochemistry -
 -------------------
 Temperature   298.150 Kelvin.  Pressure   1.00000 Atm.
 Atom     1 has atomic number  6 and mass  12.00000

 Molecular mass:   126.14085 amu.
 Principal axes and moments of inertia in atomic units:
                           1         2         3
     Eigenvalues --   501.234602315.994652665.37828
           X            0.99999  -0.00481   0.00004
           Y            0.00481   0.99997  -0.00542
           Z           -0.00001   0.00542   0.99999
 This molecule is an asymmetric top.
 Rotational symmetry number  1.
 Warning -- assumption of classical behavior for rotation
           may cause significant error
 Rotational temperatures (Kelvin)      0.17280     0.03740     0.03250
 Rotational constants (GHZ):           3.60059     0.77925     0.67711
 Zero-point vibrational energy     664230.7 (Joules/Mol)
                                  158.75494 (Kcal/Mol)
 Warning -- explicit consideration of  14 degrees of freedom as
           vibrations may cause significant error
 Vibrational temperatures:     28.29   136.37   181.81   214.61   264.20
          (Kelvin)            320.39   346.81   373.38   513.66   558.25
                              602.81   633.02   792.22   845.84  1100.76
                             1122.12  1158.14  1201.95  1251.48  1342.55
                             1362.65  1366.83  1375.23  1413.91  1470.98
                             1486.34  1504.84  1525.77  1576.38  1593.70
                             1654.34  1667.07  1748.51  1753.46  1792.74
                             1855.38  1862.27  1865.23  1885.33  1906.19
                             1921.64  1942.02  1954.44  1979.16  1996.84
                             2002.76  2030.58  2031.41  2133.79  2137.44
                             2144.41  2147.38  2157.80  2158.97  2165.79
                             2168.93  2170.72  4303.49  4308.07  4323.35
                             4324.68  4333.27  4342.96  4357.75  4358.90
                             4364.19  4373.21  4374.97  4418.65  4426.46
                             4436.44  4452.66  4452.96  4461.38  4463.92

 Zero-point correction=                           0.252992 (Hartree/Particle)
 Thermal correction to Energy=                    0.263507
 Thermal correction to Enthalpy=                  0.264451
 Thermal correction to Gibbs Free Energy=         0.216450
 Sum of electronic and zero-point Energies=           -353.589561
 Sum of electronic and thermal Energies=              -353.579046
 Sum of electronic and thermal Enthalpies=            -353.578102
 Sum of electronic and thermal Free Energies=         -353.626102

                     E (Thermal)             CV                S
                      KCal/Mol        Cal/Mol-Kelvin    Cal/Mol-Kelvin
 Total                  165.353             39.587            101.026
 Electronic               0.000              0.000              0.000
 Translational            0.889              2.981             40.410
 Rotational               0.889              2.981             29.516
 Vibrational            163.575             33.626             31.100
 Vibration     1          0.593              1.986              6.668
 Vibration     2          0.603              1.953              3.559
 Vibration     3          0.611              1.927              3.001
 Vibration     4          0.618              1.904              2.683
 Vibration     5          0.631              1.862              2.291
 Vibration     6          0.648              1.807              1.937
 Vibration     7          0.658              1.778              1.795
 Vibration     8          0.668              1.747              1.665
 Vibration     9          0.732              1.561              1.135
 Vibration    10          0.756              1.496              1.008
 Vibration    11          0.782              1.429              0.895
 Vibration    12          0.800              1.383              0.827
 Vibration    13          0.906              1.138              0.543
 Vibration    14          0.945              1.058              0.471

 Optimization completed.
    -- Stationary point found.
 Normal termination of Gaussian 16 at Sun May 28 11:13:38 2023.
