 Gaussian 16, Revision A.03,
 Gaussian 16:  ES64L-G16RevA.03 25-Dec-2016

 -----------------------------
 # opt freq b3lyp/6-31g(2df,p)
 -----------------------------

 -------------------
 Title Card Required
 -------------------
 Symbolic Z-matrix:
 Charge =  0 Multiplicity = 1

 SCF Done:  E(RB3LYP) =  -314.521513982     A.U. after   12 cycles
 SCF Done:  E(RB3LYP) =  -314.523496625     A.U. after   10 cycles
 SCF Done:  E(RB3LYP) =  -314.523626103     A.U. after    8 cycles
 SCF Done:  E(RB3LYP) =  -314.523660925     A.U. after    8 cycles
 SCF Done:  E(RB3LYP) =  -314.523683859     A.U. after    8 cycles
 SCF Done:  E(RB3LYP) =  -314.523718544     A.U. after    9 cycles
 SCF Done:  E(RB3LYP) =  -314.523771512     A.U. after    9 cycles
 SCF Done:  E(RB3LYP) =  -314.523816151     A.U. after    9 cycles
 SCF Done:  E(RB3LYP) =  -314.523900723     A.U. after    9 cycles
 SCF Done:  E(RB3LYP) =  -314.523940997     A.U. after   10 cycles
 SCF Done:  E(RB3LYP) =  -314.526250484     A.U. after    9 cycles
 SCF Done:  E(RB3LYP) =  -314.526280430     A.U. after    9 cycles
 SCF Done:  E(RB3LYP) =  -314.526281842     A.U. after    7 cycles
 SCF Done:  E(RB3LYP) =  -314.526292924     A.U. after    9 cycles
 SCF Done:  E(RB3LYP) =  -314.526298247     A.U. after    8 cycles
 SCF Done:  E(RB3LYP) =  -314.526299637     A.U. after    8 cycles
 SCF Done:  E(RB3LYP) =  -314.526299871     A.U. after    8 cycles
 SCF Done:  E(RB3LYP) =  -314.526299943     A.U. after    5 cycles
 SCF Done:  E(RB3LYP) =  -314.526299937     A.U. after    6 cycles
 Optimization completed.
    -- Stationary point found.
 Normal termination of Gaussian 16 at Sun May 28 08:28:37 2023.

 ----------------------------------------------------------------------
 #N Geom=AllCheck Guess=TCheck SCRF=Check GenChk RB3LYP/6-31G(2df,p) Fr
 eq
 ----------------------------------------------------------------------

 Structure from the checkpoint file:  "CCC1CCCqCrC1.chk"
 -------------------
 Title Card Required
 -------------------
 Charge =  0 Multiplicity = 1

                         Standard orientation:
 ---------------------------------------------------------------------
 Center     Atomic      Atomic             Coordinates (Angstroms)
 Number     Number       Type             X           Y           Z
 ---------------------------------------------------------------------
      1          6           0        3.026988   -0.862473    0.144570
      2          6           0        2.137731    0.286973   -0.339792
      3          6           0        0.761098    0.334326    0.332175
      4          6           0       -0.064591    1.589065   -0.032397
      5          6           0       -1.517902    1.159054    0.194148
      6          6           0       -1.558995   -0.267277   -0.386421
      7          6           0       -2.750782   -1.109459    0.065737
      8          6           0       -0.174998   -0.865970   -0.010690
      9          1           0        3.997940   -0.855092   -0.360816
     10          1           0        2.562847   -1.836320   -0.043987
     11          1           0        3.212456   -0.789281    1.222279
     12          1           0        1.999441    0.213538   -1.427674
     13          1           0        2.653733    1.240179   -0.163492
     14          1           0        0.920702    0.344696    1.419031
     15          1           0        0.085878    1.837676   -1.091956
     16          1           0        0.230115    2.468546    0.548582
     17          1           0       -2.250862    1.827926   -0.268257
     18          1           0       -1.738098    1.129250    1.270384
     19          1           0       -1.602640   -0.171985   -1.480076
     20          1           0       -2.753624   -1.227824    1.155977
     21          1           0       -2.723988   -2.111601   -0.375990
     22          1           0       -3.701038   -0.645923   -0.221503
     23          1           0        0.227829   -1.467800   -0.832831
     24          1           0       -0.271986   -1.541425    0.846349
 ---------------------------------------------------------------------

 SCF Done:  E(RB3LYP) =  -314.526299937     A.U. after    1 cycles

 The electronic state is 1-A.
 Alpha  occ. eigenvalues --  -10.17733 -10.17524 -10.17295 -10.16913 -10.16889
 Alpha  occ. eigenvalues --  -10.16797 -10.16763 -10.16740  -0.83383  -0.76866
 Alpha  occ. eigenvalues --   -0.72565  -0.69012  -0.65071  -0.59795  -0.55829
 Alpha  occ. eigenvalues --   -0.53492  -0.47216  -0.46358  -0.42518  -0.41808
 Alpha  occ. eigenvalues --   -0.40454  -0.39946  -0.39058  -0.36902  -0.35662
 Alpha  occ. eigenvalues --   -0.33923  -0.32345  -0.31719  -0.30969  -0.30384
 Alpha  occ. eigenvalues --   -0.30050  -0.29790
 Alpha virt. eigenvalues --    0.08409   0.09691   0.10971   0.12046   0.14293
 Alpha virt. eigenvalues --    0.15275   0.15741   0.16411   0.16642   0.17237
 Alpha virt. eigenvalues --    0.18014   0.18398   0.19201   0.20113   0.20802

 Mulliken charges:
               1
     1  C   -0.383141
     2  C   -0.187800
     3  C    0.069683
     4  C   -0.228090
     5  C   -0.209742
     6  C    0.064441
     7  C   -0.407859
     8  C   -0.225068
     9  H    0.109119
    10  H    0.116921
    11  H    0.111377
    12  H    0.088674
    13  H    0.089778
    14  H    0.062245
    15  H    0.089604
    16  H    0.087759
    17  H    0.087544
    18  H    0.088415
    19  H    0.065917
    20  H    0.109426
    21  H    0.109918
    22  H    0.108661
    23  H    0.091174
    24  H    0.091045
 Sum of Mulliken charges =  -0.00000

 Dipole moment (field-independent basis, Debye):
    X=              0.0007    Y=              0.0541    Z=             -0.0348  Tot=              0.0643
 Quadrupole moment (field-independent basis, Debye-Ang):
   XX=            -53.9234   YY=            -53.5140   ZZ=            -52.2310
   XY=              0.0567   XZ=              0.2227   YZ=              0.2240

  Exact polarizability:  98.261   0.026  83.361  -0.021  -0.114  74.157
 Approx polarizability: 117.724  -0.047 116.183   0.164   0.093 117.296

                      1                      2                      3
                      A                      A                      A
 Frequencies --     26.5938               111.9100               164.4485
 Red. masses --      2.2049                 2.1851                 2.3447
 Frc consts  --      0.0009                 0.0161                 0.0374
 IR Inten    --      0.0008                 0.0028                 0.0101

                      4                      5                      6
                      A                      A                      A
 Frequencies --    202.7794               243.2157               254.9458
 Red. masses --      1.4926                 1.0829                 1.3034
 Frc consts  --      0.0362                 0.0377                 0.0499
 IR Inten    --      0.0083                 0.0049                 0.0046

                      7                      8                      9
                      A                      A                      A
 Frequencies --    304.6049               389.3994               413.9277
 Red. masses --      2.3330                 2.9543                 2.1211
 Frc consts  --      0.1275                 0.2639                 0.2141
 IR Inten    --      0.0640                 0.0308                 0.0198

                     10                     11                     12
                      A                      A                      A
 Frequencies --    421.6476               546.3983               567.7426
 Red. masses --      1.6706                 2.7263                 2.4628
 Frc consts  --      0.1750                 0.4796                 0.4677
 IR Inten    --      0.1562                 0.3643                 0.2229

                     13                     14                     15
                      A                      A                      A
 Frequencies --    778.8814               797.0208               824.5131
 Red. masses --      1.3631                 1.5452                 2.6328
 Frc consts  --      0.4872                 0.5783                 1.0546
 IR Inten    --      1.3590                 0.3002                 0.4542

                     16                     17                     18
                      A                      A                      A
 Frequencies --    865.3284               918.7665               921.9256
 Red. masses --      2.0255                 1.5167                 1.7949
 Frc consts  --      0.8936                 0.7543                 0.8988
 IR Inten    --      0.4965                 0.2415                 0.2712

                     19                     20                     21
                      A                      A                      A
 Frequencies --    949.8666               963.3350               987.8379
 Red. masses --      1.7023                 1.5193                 1.6751
 Frc consts  --      0.9049                 0.8307                 0.9631
 IR Inten    --      2.3546                 0.8265                 1.5277

                     22                     23                     24
                      A                      A                      A
 Frequencies --   1007.3397              1038.2436              1055.9622
 Red. masses --      1.6590                 1.6170                 1.4930
 Frc consts  --      0.9918                 1.0270                 0.9809
 IR Inten    --      0.2960                 0.9277                 0.1784

                     25                     26                     27
                      A                      A                      A
 Frequencies --   1095.1346              1098.3838              1152.2768
 Red. masses --      1.9537                 1.9160                 2.3043
 Frc consts  --      1.3805                 1.3620                 1.8026
 IR Inten    --      0.9184                 0.2738                 0.6352

                     28                     29                     30
                      A                      A                      A
 Frequencies --   1163.0924              1215.2426              1223.0063
 Red. masses --      2.2170                 1.7348                 1.5600
 Frc consts  --      1.7671                 1.5095                 1.3748
 IR Inten    --      1.2464                 0.6288                 0.2031

                     31                     32                     33
                      A                      A                      A
 Frequencies --   1254.8765              1291.2306              1295.5542
 Red. masses --      1.4061                 1.2983                 1.2853
 Frc consts  --      1.3046                 1.2753                 1.2710
 IR Inten    --      0.7569                 1.3648                 0.5128

                     34                     35                     36
                      A                      A                      A
 Frequencies --   1310.2561              1323.7697              1345.5688
 Red. masses --      1.2125                 1.3022                 1.2523
 Frc consts  --      1.2264                 1.3445                 1.3359
 IR Inten    --      2.5688                 1.0180                 5.6667

                     37                     38                     39
                      A                      A                      A
 Frequencies --   1349.7087              1363.8554              1381.5221
 Red. masses --      1.2722                 1.3894                 1.5287
 Frc consts  --      1.3654                 1.5227                 1.7190
 IR Inten    --      2.1120                 1.7397                 2.5995

                     40                     41                     42
                      A                      A                      A
 Frequencies --   1389.9664              1410.8488              1411.7852
 Red. masses --      1.5667                 1.2466                 1.2385
 Frc consts  --      1.7834                 1.4620                 1.4544
 IR Inten    --      1.2121                 1.2493                 1.8760

                     43                     44                     45
                      A                      A                      A
 Frequencies --   1482.7163              1490.0425              1492.2590
 Red. masses --      1.0705                 1.0829                 1.0824
 Frc consts  --      1.3866                 1.4165                 1.4202
 IR Inten    --      0.1613                 1.4889                 1.7467

                     46                     47                     48
                      A                      A                      A
 Frequencies --   1497.2991              1499.3855              1500.1934
 Red. masses --      1.0534                 1.0544                 1.0429
 Frc consts  --      1.3915                 1.3967                 1.3829
 IR Inten    --      1.2820                 6.3206                 2.3340

                     49                     50                     51
                      A                      A                      A
 Frequencies --   1506.1233              1508.2371              2996.0667
 Red. masses --      1.0786                 1.0837                 1.0798
 Frc consts  --      1.4415                 1.4525                 5.7111
 IR Inten    --      2.6339                 1.0218                11.3044

                     52                     53                     54
                      A                      A                      A
 Frequencies --   2999.9548              3005.7021              3013.0882
 Red. masses --      1.0806                 1.0636                 1.0680
 Frc consts  --      5.7297                 5.6616                 5.7126
 IR Inten    --      6.1262                11.8206                20.0139

                     55                     56                     57
                      A                      A                      A
 Frequencies --   3019.3944              3021.7168              3028.7972
 Red. masses --      1.0573                 1.0434                 1.0373
 Frc consts  --      5.6793                 5.6132                 5.6068
 IR Inten    --     28.6163                66.6076                17.2447

                     58                     59                     60
                      A                      A                      A
 Frequencies --   3034.1806              3039.6663              3070.2389
 Red. masses --      1.0597                 1.1000                 1.1036
 Frc consts  --      5.7478                 5.9879                 6.1292
 IR Inten    --     45.4572                21.9850                21.9977

                     61                     62                     63
                      A                      A                      A
 Frequencies --   3074.7372              3079.5554              3088.7303
 Red. masses --      1.0944                 1.1008                 1.1007
 Frc consts  --      6.0960                 6.1511                 6.1868
 IR Inten    --     33.8134                32.3724                67.8037

                     64                     65                     66
                      A                      A                      A
 Frequencies --   3091.2205              3094.9689              3100.6296
 Red. masses --      1.1012                 1.1011                 1.1012
 Frc consts  --      6.1998                 6.2143                 6.2375
 IR Inten    --     33.1487                56.3344                41.7787

 - Thermochemistry -
 -------------------
 Temperature   298.150 Kelvin.  Pressure   1.00000 Atm.
 Atom     1 has atomic number  6 and mass  12.00000

 Molecular mass:   112.12520 amu.
 Principal axes and moments of inertia in atomic units:
                           1         2         3
     Eigenvalues --   476.304241514.548511852.39510
           X            1.00000  -0.00037  -0.00146
           Y            0.00036   0.99998  -0.00645
           Z            0.00146   0.00645   0.99998
 This molecule is an asymmetric top.
 Rotational symmetry number  1.
 Warning -- assumption of classical behavior for rotation
           may cause significant error
 Rotational temperatures (Kelvin)      0.18185     0.05719     0.04676
 Rotational constants (GHZ):           3.78905     1.19160     0.97427
 Zero-point vibrational energy     589565.3 (Joules/Mol)
                                  140.90948 (Kcal/Mol)
 Warning -- explicit consideration of  12 degrees of freedom as
           vibrations may cause significant error
 Vibrational temperatures:     38.26   161.01   236.60   291.75   349.93
          (Kelvin)            366.81   438.26   560.26   595.55   606.66
                              786.15   816.86  1120.64  1146.74  1186.29
                             1245.01  1321.90  1326.45  1366.65  1386.02
                             1421.28  1449.34  1493.80  1519.29  1575.65
                             1580.33  1657.87  1673.43  1748.46  1759.63
                             1805.49  1857.79  1864.01  1885.17  1904.61
                             1935.97  1941.93  1962.28  1987.70  1999.85
                             2029.90  2031.24  2133.30  2143.84  2147.03
                             2154.28  2157.28  2158.44  2166.98  2170.02
                             4310.67  4316.27  4324.53  4335.16  4344.24
                             4347.58  4357.76  4365.51  4373.40  4417.39
                             4423.86  4430.79  4443.99  4447.58  4452.97
                             4461.11

 Zero-point correction=                           0.224554 (Hartree/Particle)
 Thermal correction to Energy=                    0.233719
 Thermal correction to Enthalpy=                  0.234663
 Thermal correction to Gibbs Free Energy=         0.190161
 Sum of electronic and zero-point Energies=           -314.301746
 Sum of electronic and thermal Energies=              -314.292581
 Sum of electronic and thermal Enthalpies=            -314.291637
 Sum of electronic and thermal Free Energies=         -314.336139

                     E (Thermal)             CV                S
                      KCal/Mol        Cal/Mol-Kelvin    Cal/Mol-Kelvin
 Total                  146.661             34.705             93.662
 Electronic               0.000              0.000              0.000
 Translational            0.889              2.981             40.059
 Rotational               0.889              2.981             28.682
 Vibrational            144.883             28.744             24.921
 Vibration     1          0.593              1.984              6.069
 Vibration     2          0.607              1.940              3.236
 Vibration     3          0.623              1.886              2.498
 Vibration     4          0.639              1.836              2.108
 Vibration     5          0.659              1.774              1.779
 Vibration     6          0.665              1.754              1.696
 Vibration     7          0.696              1.665              1.391
 Vibration     8          0.757              1.493              1.002
 Vibration     9          0.778              1.440              0.913
 Vibration    10          0.784              1.423              0.886
 Vibration    11          0.902              1.148              0.552
 Vibration    12          0.924              1.101              0.509

 Optimization completed.
    -- Stationary point found.
 Normal termination of Gaussian 16 at Sun May 28 09:01:10 2023.
