 Gaussian 16, Revision A.03,
 Gaussian 16:  ES64L-G16RevA.03 25-Dec-2016

 -----------------------------
 # opt freq b3lyp/6-31g(2df,p)
 -----------------------------

 -------------------
 Title Card Required
 -------------------
 Symbolic Z-matrix:
 Charge =  0 Multiplicity = 1

 SCF Done:  E(RB3LYP) =  -511.002115535     A.U. after   12 cycles
 SCF Done:  E(RB3LYP) =  -511.032163645     A.U. after   10 cycles
 SCF Done:  E(RB3LYP) =  -511.047438641     A.U. after   10 cycles
 SCF Done:  E(RB3LYP) =  -511.052838898     A.U. after   10 cycles
 SCF Done:  E(RB3LYP) =  -511.055783064     A.U. after   10 cycles
 SCF Done:  E(RB3LYP) =  -511.058559609     A.U. after   10 cycles
 SCF Done:  E(RB3LYP) =  -511.060525713     A.U. after   10 cycles
 SCF Done:  E(RB3LYP) =  -511.061141888     A.U. after   10 cycles
 SCF Done:  E(RB3LYP) =  -511.061383100     A.U. after    9 cycles
 SCF Done:  E(RB3LYP) =  -511.061440692     A.U. after    8 cycles
 SCF Done:  E(RB3LYP) =  -511.061484502     A.U. after    8 cycles
 SCF Done:  E(RB3LYP) =  -511.061503369     A.U. after    8 cycles
 SCF Done:  E(RB3LYP) =  -511.061510192     A.U. after    7 cycles
 SCF Done:  E(RB3LYP) =  -511.061511563     A.U. after    6 cycles
 SCF Done:  E(RB3LYP) =  -511.061512167     A.U. after    6 cycles
 SCF Done:  E(RB3LYP) =  -511.061512348     A.U. after    6 cycles
 SCF Done:  E(RB3LYP) =  -511.061512433     A.U. after    6 cycles
 SCF Done:  E(RB3LYP) =  -511.061512436     A.U. after    5 cycles
 Optimization completed.
    -- Stationary point found.
 Normal termination of Gaussian 16 at Wed May 24 01:42:00 2023.

 ----------------------------------------------------------------------
 #N Geom=AllCheck Guess=TCheck SCRF=Check GenChk RB3LYP/6-31G(2df,p) Fr
 eq
 ----------------------------------------------------------------------

 Structure from the checkpoint file:  "CCC1CCCCCqCrCCC1C.chk"
 -------------------
 Title Card Required
 -------------------
 Charge =  0 Multiplicity = 1

                         Standard orientation:
 ---------------------------------------------------------------------
 Center     Atomic      Atomic             Coordinates (Angstroms)
 Number     Number       Type             X           Y           Z
 ---------------------------------------------------------------------
      1          6           0        3.560060    0.946711   -0.826017
      2          6           0        2.242524    0.180361   -0.992210
      3          6           0        1.698756   -0.440145    0.315807
      4          6           0        1.289458    0.575453    1.424634
      5          6           0       -0.153960    1.093602    1.497648
      6          6           0       -0.621880    2.015820    0.357682
      7          6           0       -2.057804    1.744229   -0.108272
      8          6           0       -2.371338    0.344041   -0.726788
      9          6           0       -3.044680   -0.638221    0.245329
     10          6           0       -1.205373   -0.282381   -1.551522
     11          6           0       -0.383641   -1.519797   -1.084509
     12          6           0        0.717471   -1.623386    0.037147
     13          6           0        0.215275   -2.279872    1.337469
     14          1           0        3.931768    1.297042   -1.794363
     15          1           0        4.334387    0.309556   -0.383426
     16          1           0        3.449870    1.825846   -0.183433
     17          1           0        2.408733   -0.636001   -1.707574
     18          1           0        1.505407    0.837873   -1.460950
     19          1           0        2.574240   -0.943962    0.753991
     20          1           0        1.975555    1.430449    1.379837
     21          1           0        1.499036    0.096294    2.388694
     22          1           0       -0.271385    1.618197    2.454118
     23          1           0       -0.829392    0.241190    1.560913
     24          1           0        0.053999    1.934017   -0.497041
     25          1           0       -0.551634    3.063838    0.673393
     26          1           0       -2.308168    2.504853   -0.858615
     27          1           0       -2.747911    1.918155    0.728266
     28          1           0       -3.147084    0.558247   -1.472898
     29          1           0       -2.390254   -0.968631    1.055026
     30          1           0       -3.383725   -1.536747   -0.282609
     31          1           0       -3.926153   -0.175706    0.702292
     32          1           0       -0.526212    0.512602   -1.869432
     33          1           0       -1.656473   -0.639328   -2.486077
     34          1           0        0.122064   -1.828902   -2.007145
     35          1           0       -1.093718   -2.331200   -0.881628
     36          1           0        1.382191   -2.386742   -0.391427
     37          1           0       -0.489108   -1.668311    1.904477
     38          1           0        1.058058   -2.501914    2.002216
     39          1           0       -0.283305   -3.229194    1.115018
 ---------------------------------------------------------------------

 SCF Done:  E(RB3LYP) =  -511.061512436     A.U. after    1 cycles

 The electronic state is 1-A.
 Alpha  occ. eigenvalues --  -10.18173 -10.17950 -10.17844 -10.17438 -10.17251
 Alpha  occ. eigenvalues --  -10.17226 -10.16926 -10.16921 -10.16833 -10.16736
 Alpha  occ. eigenvalues --  -10.16636 -10.16574 -10.16570  -0.82063  -0.79547
 Alpha  occ. eigenvalues --   -0.77306  -0.74991  -0.70944  -0.70854  -0.67119
 Alpha  occ. eigenvalues --   -0.64802  -0.61407  -0.58420  -0.57834  -0.53384
 Alpha  occ. eigenvalues --   -0.50752  -0.48190  -0.45100  -0.44733  -0.44163
 Alpha  occ. eigenvalues --   -0.43229  -0.42132  -0.41122  -0.40506  -0.39546
 Alpha  occ. eigenvalues --   -0.38986  -0.38655  -0.37655  -0.36623  -0.35907
 Alpha  occ. eigenvalues --   -0.35231  -0.34302  -0.33941  -0.33623  -0.32594
 Alpha  occ. eigenvalues --   -0.31724  -0.30571  -0.29787  -0.29500  -0.29187
 Alpha  occ. eigenvalues --   -0.27757  -0.27499
 Alpha virt. eigenvalues --    0.06285   0.08828   0.09035   0.10507   0.11335
 Alpha virt. eigenvalues --    0.12434   0.13007   0.13415   0.13971   0.14649
 Alpha virt. eigenvalues --    0.15152   0.16243   0.16443   0.17047   0.17577

 Mulliken charges:
               1
     1  C   -0.390834
     2  C   -0.189792
     3  C    0.044075
     4  C   -0.228628
     5  C   -0.173349
     6  C   -0.188229
     7  C   -0.216462
     8  C    0.057479
     9  C   -0.405862
    10  C   -0.220403
    11  C   -0.209374
    12  C    0.011658
    13  C   -0.414139
    14  H    0.108875
    15  H    0.111472
    16  H    0.118496
    17  H    0.087720
    18  H    0.103449
    19  H    0.069617
    20  H    0.089929
    21  H    0.090824
    22  H    0.087724
    23  H    0.096881
    24  H    0.097345
    25  H    0.086195
    26  H    0.086196
    27  H    0.087614
    28  H    0.074005
    29  H    0.123586
    30  H    0.106706
    31  H    0.107850
    32  H    0.094372
    33  H    0.093570
    34  H    0.095953
    35  H    0.092785
    36  H    0.076677
    37  H    0.122436
    38  H    0.106835
    39  H    0.106750
 Sum of Mulliken charges =  -0.00000

 Dipole moment (field-independent basis, Debye):
    X=              0.0513    Y=             -0.1132    Z=             -0.2170  Tot=              0.2501
 Quadrupole moment (field-independent basis, Debye-Ang):
   XX=            -86.5176   YY=            -86.1449   ZZ=            -86.0321
   XY=             -0.5852   XZ=              0.4041   YZ=              0.4429

  Exact polarizability: 149.646   0.570 135.808   0.295   0.492 127.951
 Approx polarizability: 196.566  -0.384 194.685   0.269   0.671 193.031

                      1                      2                      3
                      A                      A                      A
 Frequencies --     52.9312                83.2417               108.1524
 Red. masses --      2.2566                 2.4676                 2.6383
 Frc consts  --      0.0037                 0.0101                 0.0182
 IR Inten    --      0.0158                 0.0705                 0.0148

                      4                      5                      6
                      A                      A                      A
 Frequencies --    123.0360               152.9632               181.2061
 Red. masses --      2.5072                 2.2404                 2.0525
 Frc consts  --      0.0224                 0.0309                 0.0397
 IR Inten    --      0.0159                 0.0526                 0.2420

                      7                      8                      9
                      A                      A                      A
 Frequencies --    196.9775               207.2196               219.8586
 Red. masses --      1.3277                 1.7886                 2.5787
 Frc consts  --      0.0304                 0.0452                 0.0734
 IR Inten    --      0.1589                 0.0558                 0.0422

                     10                     11                     12
                      A                      A                      A
 Frequencies --    243.9733               253.5117               256.6510
 Red. masses --      1.0941                 1.6656                 1.5907
 Frc consts  --      0.0384                 0.0631                 0.0617
 IR Inten    --      0.0422                 0.2326                 0.0432

                     13                     14                     15
                      A                      A                      A
 Frequencies --    288.1916               306.8477               328.2965
 Red. masses --      2.1379                 2.1603                 2.0426
 Frc consts  --      0.1046                 0.1198                 0.1297
 IR Inten    --      0.0519                 0.0178                 0.3338

                     16                     17                     18
                      A                      A                      A
 Frequencies --    336.3683               353.2091               396.0512
 Red. masses --      2.4507                 2.2195                 2.4037
 Frc consts  --      0.1634                 0.1631                 0.2221
 IR Inten    --      0.0863                 0.0520                 0.4602

                     19                     20                     21
                      A                      A                      A
 Frequencies --    417.8122               432.7950               508.5640
 Red. masses --      2.1214                 2.3550                 2.5622
 Frc consts  --      0.2182                 0.2599                 0.3904
 IR Inten    --      0.1440                 1.9084                 1.0993

                     22                     23                     24
                      A                      A                      A
 Frequencies --    573.1420               611.8535               683.8714
 Red. masses --      2.0808                 2.9792                 2.3214
 Frc consts  --      0.4027                 0.6571                 0.6397
 IR Inten    --      2.1752                 0.6158                 0.7906

                     25                     26                     27
                      A                      A                      A
 Frequencies --    707.0045               725.2244               757.0952
 Red. masses --      2.2094                 2.0922                 1.7119
 Frc consts  --      0.6507                 0.6483                 0.5781
 IR Inten    --      0.8216                 2.0183                 0.2942

                     28                     29                     30
                      A                      A                      A
 Frequencies --    797.2817               837.7470               859.4909
 Red. masses --      1.4429                 1.6492                 1.8880
 Frc consts  --      0.5404                 0.6820                 0.8218
 IR Inten    --      2.9878                 2.5174                 1.4829

                     31                     32                     33
                      A                      A                      A
 Frequencies --    872.0263               887.3886               932.5004
 Red. masses --      1.9296                 2.0622                 1.7735
 Frc consts  --      0.8645                 0.9568                 0.9086
 IR Inten    --      0.3746                 1.0921                 3.2291

                     34                     35                     36
                      A                      A                      A
 Frequencies --    956.4557               971.1577               981.2341
 Red. masses --      1.8742                 1.6671                 2.1501
 Frc consts  --      1.0102                 0.9264                 1.2197
 IR Inten    --      1.0543                 1.0947                 0.1214

                     37                     38                     39
                      A                      A                      A
 Frequencies --   1014.7284              1018.3553              1031.8309
 Red. masses --      1.7807                 2.3639                 1.6263
 Frc consts  --      1.0803                 1.4444                 1.0202
 IR Inten    --      0.4430                 1.6118                 1.4694

                     40                     41                     42
                      A                      A                      A
 Frequencies --   1046.9330              1056.7578              1065.9240
 Red. masses --      1.8739                 2.0422                 1.9674
 Frc consts  --      1.2102                 1.3437                 1.3170
 IR Inten    --      0.2408                 1.7025                 0.4618

                     43                     44                     45
                      A                      A                      A
 Frequencies --   1077.6938              1107.5608              1122.4959
 Red. masses --      1.9376                 2.0173                 1.6297
 Frc consts  --      1.3259                 1.4580                 1.2099
 IR Inten    --      2.7515                 0.6459                 0.2240

                     46                     47                     48
                      A                      A                      A
 Frequencies --   1134.4597              1144.8977              1172.9624
 Red. masses --      2.1411                 2.2809                 2.2405
 Frc consts  --      1.6236                 1.7615                 1.8162
 IR Inten    --      0.9082                 1.3251                 1.4113

                     49                     50                     51
                      A                      A                      A
 Frequencies --   1203.0303              1215.0010              1247.4468
 Red. masses --      1.3411                 2.6777                 1.3227
 Frc consts  --      1.1436                 2.3290                 1.2127
 IR Inten    --      0.1372                 1.2156                 1.1980

                     52                     53                     54
                      A                      A                      A
 Frequencies --   1258.8213              1288.4573              1297.2479
 Red. masses --      1.2351                 1.1905                 1.2335
 Frc consts  --      1.1531                 1.1644                 1.2230
 IR Inten    --      1.4831                 0.3288                 0.8392

                     55                     56                     57
                      A                      A                      A
 Frequencies --   1318.8060              1323.8978              1333.8966
 Red. masses --      1.2132                 1.1878                 1.1594
 Frc consts  --      1.2432                 1.2266                 1.2154
 IR Inten    --      1.4551                 1.8149                 0.5058

                     58                     59                     60
                      A                      A                      A
 Frequencies --   1337.3727              1353.8762              1367.5752
 Red. masses --      1.2129                 1.2084                 1.2686
 Frc consts  --      1.2782                 1.3050                 1.3979
 IR Inten    --      1.0468                 1.3504                 1.4677

                     61                     62                     63
                      A                      A                      A
 Frequencies --   1368.1197              1378.9569              1387.3111
 Red. masses --      1.2124                 1.3013                 1.2889
 Frc consts  --      1.3370                 1.4579                 1.4616
 IR Inten    --      3.4968                 0.4055                 2.7311

                     64                     65                     66
                      A                      A                      A
 Frequencies --   1391.7642              1392.8544              1400.0898
 Red. masses --      1.3363                 1.3658                 1.2876
 Frc consts  --      1.5251                 1.5611                 1.4871
 IR Inten    --      0.5578                 4.1493                 2.4705

                     67                     68                     69
                      A                      A                      A
 Frequencies --   1402.1953              1409.9051              1413.1711
 Red. masses --      1.2849                 1.2863                 1.2643
 Frc consts  --      1.4885                 1.5065                 1.4876
 IR Inten    --      2.5568                 2.2786                 4.7438

                     70                     71                     72
                      A                      A                      A
 Frequencies --   1417.0106              1420.2588              1425.8434
 Red. masses --      1.2791                 1.2820                 1.2508
 Frc consts  --      1.5132                 1.5236                 1.4982
 IR Inten    --      2.2705                 3.9788                13.3287

                     73                     74                     75
                      A                      A                      A
 Frequencies --   1475.4768              1479.8720              1480.1857
 Red. masses --      1.0727                 1.0734                 1.0835
 Frc consts  --      1.3759                 1.3851                 1.3987
 IR Inten    --      2.6086                 5.7233                 1.5392

                     76                     77                     78
                      A                      A                      A
 Frequencies --   1486.8929              1487.5672              1489.9519
 Red. masses --      1.0749                 1.0749                 1.0834
 Frc consts  --      1.4002                 1.4015                 1.4170
 IR Inten    --      0.4734                 2.7862                 1.0799

                     79                     80                     81
                      A                      A                      A
 Frequencies --   1497.2433              1498.2642              1501.7479
 Red. masses --      1.0511                 1.0581                 1.0587
 Frc consts  --      1.3884                 1.3995                 1.4068
 IR Inten    --      6.3586                 3.8278                 4.3780

                     82                     83                     84
                      A                      A                      A
 Frequencies --   1505.7762              1508.0151              1508.4312
 Red. masses --      1.0553                 1.0596                 1.0557
 Frc consts  --      1.4098                 1.4197                 1.4153
 IR Inten    --      0.1987                 2.4977                 0.1448

                     85                     86                     87
                      A                      A                      A
 Frequencies --   1515.1438              2960.8268              2982.7758
 Red. masses --      1.0805                 1.0822                 1.0817
 Frc consts  --      1.4615                 5.5897                 5.6701
 IR Inten    --      7.3329                 9.0089                26.1893

                     88                     89                     90
                      A                      A                      A
 Frequencies --   2990.9603              3008.6609              3015.6974
 Red. masses --      1.0794                 1.0649                 1.0697
 Frc consts  --      5.6894                 5.6796                 5.7318
 IR Inten    --      1.7667                12.8420                37.1476

                     91                     92                     93
                      A                      A                      A
 Frequencies --   3017.5370              3020.3569              3027.4300
 Red. masses --      1.0674                 1.0707                 1.0603
 Frc consts  --      5.7265                 5.7550                 5.7257
 IR Inten    --      7.0980                25.6550                12.6324

                     94                     95                     96
                      A                      A                      A
 Frequencies --   3028.8627              3030.3630              3033.2750
 Red. masses --      1.0571                 1.0428                 1.0442
 Frc consts  --      5.7139                 5.6422                 5.6608
 IR Inten    --     46.0159                24.2864                42.1777

                     97                     98                     99
                      A                      A                      A
 Frequencies --   3035.9191              3039.4345              3045.2603
 Red. masses --      1.0550                 1.0784                 1.0889
 Frc consts  --      5.7289                 5.8698                 5.9495
 IR Inten    --     88.0948                35.7344                33.6802

                    100                    101                    102
                      A                      A                      A
 Frequencies --   3047.5173              3050.9597              3076.6767
 Red. masses --      1.0986                 1.0999                 1.0915
 Frc consts  --      6.0117                 6.0323                 6.0877
 IR Inten    --     46.6593                26.6371                27.1341

                    103                    104                    105
                      A                      A                      A
 Frequencies --   3085.3071              3088.1670              3090.2491
 Red. masses --      1.0915                 1.1004                 1.0983
 Frc consts  --      6.1215                 6.1829                 6.1793
 IR Inten    --      2.9683                23.3306                61.7491

                    106                    107                    108
                      A                      A                      A
 Frequencies --   3095.6128              3101.5489              3109.3195
 Red. masses --      1.0963                 1.0981                 1.0907
 Frc consts  --      6.1899                 6.2237                 6.2129
 IR Inten    --     30.4473                59.0922                47.8334

                    109                    110                    111
                      A                      A                      A
 Frequencies --   3118.9083              3120.7853              3141.9258
 Red. masses --      1.0942                 1.0968                 1.0859
 Frc consts  --      6.2711                 6.2937                 6.3160
 IR Inten    --     40.3988                53.4188                14.6939

 - Thermochemistry -
 -------------------
 Temperature   298.150 Kelvin.  Pressure   1.00000 Atm.
 Atom     1 has atomic number  6 and mass  12.00000

 Molecular mass:   182.20345 amu.
 Principal axes and moments of inertia in atomic units:
                           1         2         3
     Eigenvalues --  1857.813143071.060823497.23250
           X            0.99987   0.01460  -0.00745
           Y           -0.01477   0.99962  -0.02327
           Z            0.00710   0.02337   0.99970
 This molecule is an asymmetric top.
 Rotational symmetry number  1.
 Warning -- assumption of classical behavior for rotation
           may cause significant error
 Rotational temperatures (Kelvin)      0.04662     0.02820     0.02477
 Rotational constants (GHZ):           0.97143     0.58766     0.51605
 Zero-point vibrational energy     967466.4 (Joules/Mol)
                                  231.23001 (Kcal/Mol)
 Warning -- explicit consideration of  23 degrees of freedom as
           vibrations may cause significant error
 Vibrational temperatures:     76.16   119.77   155.61   177.02   220.08
          (Kelvin)            260.72   283.41   298.14   316.33   351.02
                              364.75   369.26   414.64   441.49   472.35
                              483.96   508.19   569.83   601.14   622.70
                              731.71   824.62   880.32   983.94  1017.22
                             1043.44  1089.29  1147.11  1205.33  1236.62
                             1254.65  1276.75  1341.66  1376.13  1397.28
                             1411.78  1459.97  1465.19  1484.57  1506.30
                             1520.44  1533.63  1550.56  1593.53  1615.02
                             1632.23  1647.25  1687.63  1730.89  1748.12
                             1794.80  1811.16  1853.80  1866.45  1897.47
                             1904.79  1919.18  1924.18  1947.93  1967.64
                             1968.42  1984.01  1996.03  2002.44  2004.01
                             2014.42  2017.45  2028.54  2033.24  2038.76
                             2043.44  2051.47  2122.88  2129.21  2129.66
                             2139.31  2140.28  2143.71  2154.20  2155.67
                             2160.68  2166.48  2169.70  2170.30  2179.95
                             4259.97  4291.55  4303.32  4328.79  4338.92
                             4341.56  4345.62  4355.80  4357.86  4360.02
                             4364.21  4368.01  4373.07  4381.45  4384.70
                             4389.65  4426.65  4439.07  4443.18  4446.18
                             4453.90  4462.44  4473.62  4487.41  4490.11
                             4520.53

 Zero-point correction=                           0.368488 (Hartree/Particle)
 Thermal correction to Energy=                    0.383597
 Thermal correction to Enthalpy=                  0.384541
 Thermal correction to Gibbs Free Energy=         0.328082
 Sum of electronic and zero-point Energies=           -510.693024
 Sum of electronic and thermal Energies=              -510.677915
 Sum of electronic and thermal Enthalpies=            -510.676971
 Sum of electronic and thermal Free Energies=         -510.733431

                     E (Thermal)             CV                S
                      KCal/Mol        Cal/Mol-Kelvin    Cal/Mol-Kelvin
 Total                  240.711             59.486            118.829
 Electronic               0.000              0.000              0.000
 Translational            0.889              2.981             41.506
 Rotational               0.889              2.981             31.368
 Vibrational            238.933             53.524             45.955
 Vibration     1          0.596              1.976              4.705
 Vibration     2          0.600              1.961              3.813
 Vibration     3          0.606              1.943              3.302
 Vibration     4          0.610              1.930              3.052
 Vibration     5          0.619              1.899              2.635
 Vibration     6          0.630              1.865              2.316
 Vibration     7          0.636              1.844              2.161
 Vibration     8          0.641              1.830              2.068
 Vibration     9          0.647              1.811              1.960
 Vibration    10          0.659              1.773              1.774
 Vibration    11          0.665              1.757              1.706
 Vibration    12          0.666              1.752              1.684
 Vibration    13          0.685              1.696              1.485
 Vibration    14          0.697              1.661              1.379
 Vibration    15          0.712              1.619              1.268
 Vibration    16          0.717              1.603              1.229
 Vibration    17          0.729              1.569              1.152
 Vibration    18          0.763              1.479              0.977
 Vibration    19          0.781              1.432              0.899
 Vibration    20          0.794              1.399              0.850
 Vibration    21          0.864              1.231              0.637
 Vibration    22          0.929              1.089              0.498
 Vibration    23          0.971              1.007              0.430

 Optimization completed.
    -- Stationary point found.
 Normal termination of Gaussian 16 at Wed May 24 04:54:40 2023.
