 Gaussian 16, Revision A.03,
 Gaussian 16:  ES64L-G16RevA.03 25-Dec-2016

 -----------------------------
 # opt freq b3lyp/6-31g(2df,p)
 -----------------------------

 -------------------
 Title Card Required
 -------------------
 Symbolic Z-matrix:
 Charge =  0 Multiplicity = 1

 SCF Done:  E(RB3LYP) =  -311.701216867     A.U. after   15 cycles
 SCF Done:  E(RB3LYP) =  -311.754045368     A.U. after   13 cycles
 SCF Done:  E(RB3LYP) =  -311.815669091     A.U. after   12 cycles
 SCF Done:  E(RB3LYP) =  -311.828863354     A.U. after   11 cycles
 SCF Done:  E(RB3LYP) =  -311.829732451     A.U. after    8 cycles
 SCF Done:  E(RB3LYP) =  -311.846219604     A.U. after   11 cycles
 SCF Done:  E(RB3LYP) =  -311.858626943     A.U. after   11 cycles
 SCF Done:  E(RB3LYP) =  -311.881927348     A.U. after   11 cycles
 SCF Done:  E(RB3LYP) =  -311.882026217     A.U. after    6 cycles
 SCF Done:  E(RB3LYP) =  -311.891144475     A.U. after   10 cycles
 SCF Done:  E(RB3LYP) =  -311.976384499     A.U. after   10 cycles
 SCF Done:  E(RB3LYP) =  -311.975871742     A.U. after   13 cycles
 SCF Done:  E(RB3LYP) =  -311.978669710     A.U. after   10 cycles
 SCF Done:  E(RB3LYP) =  -311.979371213     A.U. after   10 cycles
 SCF Done:  E(RB3LYP) =  -311.979697955     A.U. after   10 cycles
 SCF Done:  E(RB3LYP) =  -311.979709253     A.U. after   10 cycles
 SCF Done:  E(RB3LYP) =  -311.979754344     A.U. after    9 cycles
 SCF Done:  E(RB3LYP) =  -311.979758217     A.U. after    7 cycles
 SCF Done:  E(RB3LYP) =  -311.979758594     A.U. after    6 cycles
 Optimization completed.
    -- Stationary point found.
 Normal termination of Gaussian 16 at Sun May 28 20:29:51 2023.

 ----------------------------------------------------------------------
 #N Geom=AllCheck Guess=TCheck SCRF=Check GenChk RB3LYP/6-31G(2df,p) Fr
 eq
 ----------------------------------------------------------------------

 Structure from the checkpoint file:  "CCC12CC3C1CC32.chk"
 -------------------
 Title Card Required
 -------------------
 Charge =  0 Multiplicity = 1

                         Standard orientation:
 ---------------------------------------------------------------------
 Center     Atomic      Atomic             Coordinates (Angstroms)
 Number     Number       Type             X           Y           Z
 ---------------------------------------------------------------------
      1          6           0       -2.644323    0.119259   -0.380398
      2          6           0       -1.524097    0.479277    0.603558
      3          6           0       -0.192068   -0.121957    0.233409
      4          6           0        0.186340   -1.615744    0.089316
      5          6           0        1.490403   -0.862414   -0.224797
      6          6           0        1.211367    0.236677    0.854819
      7          6           0        1.450306    1.384120   -0.146269
      8          6           0        0.741834    0.292238   -0.971732
      9          1           0       -3.595944    0.565786   -0.076369
     10          1           0       -2.787425   -0.964807   -0.437713
     11          1           0       -2.413134    0.476905   -1.389307
     12          1           0       -1.798645    0.141824    1.612095
     13          1           0       -1.422979    1.570944    0.664578
     14          1           0       -0.275280   -2.167696   -0.736804
     15          1           0        0.170448   -2.216578    1.005810
     16          1           0        2.471033   -1.260581   -0.490332
     17          1           0        1.473552    0.175994    1.913327
     18          1           0        2.492241    1.596618   -0.407650
     19          1           0        0.903832    2.317663    0.022615
     20          1           0        0.463722    0.295200   -2.027686
 ---------------------------------------------------------------------

 SCF Done:  E(RB3LYP) =  -311.979758594     A.U. after    1 cycles

 The electronic state is 1-A.
 Alpha  occ. eigenvalues --  -10.19488 -10.19061 -10.18969 -10.18927 -10.17796
 Alpha  occ. eigenvalues --  -10.17619 -10.17403 -10.17168  -0.93095  -0.76578
 Alpha  occ. eigenvalues --   -0.73231  -0.64749  -0.62357  -0.60247  -0.57753
 Alpha  occ. eigenvalues --   -0.49491  -0.47275  -0.45350  -0.44909  -0.42695
 Alpha  occ. eigenvalues --   -0.41709  -0.38321  -0.36535  -0.34654  -0.31412
 Alpha  occ. eigenvalues --   -0.30787  -0.29168  -0.28266  -0.28213  -0.27914
 Alpha virt. eigenvalues --    0.09454   0.10881   0.12577   0.12797   0.13058
 Alpha virt. eigenvalues --    0.14251   0.15123   0.15378   0.16566   0.17407
 Alpha virt. eigenvalues --    0.18040   0.18889   0.19548   0.19624   0.20373

 Mulliken charges:
               1
     1  C   -0.377525
     2  C   -0.317869
     3  C    0.387494
     4  C   -0.310382
     5  C   -0.039939
     6  C   -0.085657
     7  C   -0.268363
     8  C   -0.071243
     9  H    0.110916
    10  H    0.118858
    11  H    0.116863
    12  H    0.096816
    13  H    0.097877
    14  H    0.087148
    15  H    0.085018
    16  H    0.065644
    17  H    0.062972
    18  H    0.088112
    19  H    0.089417
    20  H    0.063842
 Sum of Mulliken charges =  -0.00000

 Dipole moment (field-independent basis, Debye):
    X=             -0.2084    Y=              0.0581    Z=              0.0672  Tot=              0.2266
 Quadrupole moment (field-independent basis, Debye-Ang):
   XX=            -49.9385   YY=            -50.3630   ZZ=            -49.4825
   XY=             -0.3318   XZ=             -0.1968   YZ=             -0.0449

  Exact polarizability:  86.553   1.710  79.152  -0.332  -0.283  71.775
 Approx polarizability: 115.653   1.380 115.731  -0.606  -0.468 113.028

                      1                      2                      3
                      A                      A                      A
 Frequencies --     83.2176               177.9062               200.0307
 Red. masses --      2.2133                 2.7404                 1.2296
 Frc consts  --      0.0090                 0.0511                 0.0290
 IR Inten    --      0.0027                 0.0258                 0.0024

                      4                      5                      6
                      A                      A                      A
 Frequencies --    290.6817               352.2633               420.4887
 Red. masses --      1.7524                 2.3484                 1.9650
 Frc consts  --      0.0872                 0.1717                 0.2047
 IR Inten    --      0.0077                 0.0241                 0.6311

                      7                      8                      9
                      A                      A                      A
 Frequencies --    465.3178               615.0443               715.7899
 Red. masses --      2.1672                 2.8775                 2.8463
 Frc consts  --      0.2765                 0.6413                 0.8592
 IR Inten    --      1.4102                 0.0944                 0.2635

                     10                     11                     12
                      A                      A                      A
 Frequencies --    757.7829               785.6675               863.4125
 Red. masses --      2.5688                 1.6643                 2.0985
 Frc consts  --      0.8691                 0.6053                 0.9217
 IR Inten    --      0.5547                 1.1019                 1.5389

                     13                     14                     15
                      A                      A                      A
 Frequencies --    868.2146               878.5517               901.6721
 Red. masses --      1.8810                 1.8801                 2.4636
 Frc consts  --      0.8354                 0.8550                 1.1801
 IR Inten    --      0.3716                 0.6217                 0.3597

                     16                     17                     18
                      A                      A                      A
 Frequencies --    913.1870               958.0471               981.3315
 Red. masses --      1.8171                 2.0820                 1.8694
 Frc consts  --      0.8928                 1.1259                 1.0607
 IR Inten    --      0.2786                 0.4148                 2.7784

                     19                     20                     21
                      A                      A                      A
 Frequencies --    992.8939              1026.1301              1028.1333
 Red. masses --      1.1540                 1.2002                 1.3101
 Frc consts  --      0.6703                 0.7445                 0.8159
 IR Inten    --      0.4081                 0.2048                 0.0865

                     22                     23                     24
                      A                      A                      A
 Frequencies --   1052.4564              1061.0966              1121.6896
 Red. masses --      1.5236                 3.2904                 1.3513
 Frc consts  --      0.9943                 2.1828                 1.0017
 IR Inten    --      0.5212                 0.3188                 0.1152

                     25                     26                     27
                      A                      A                      A
 Frequencies --   1128.5338              1154.0615              1159.4868
 Red. masses --      1.8694                 1.7368                 1.6371
 Frc consts  --      1.4027                 1.3629                 1.2968
 IR Inten    --      0.9212                 0.2708                 0.3514

                     28                     29                     30
                      A                      A                      A
 Frequencies --   1167.9932              1188.8949              1217.5958
 Red. masses --      1.7782                 1.6974                 1.9021
 Frc consts  --      1.4292                 1.4136                 1.6615
 IR Inten    --      1.1201                 3.9850                 2.2755

                     31                     32                     33
                      A                      A                      A
 Frequencies --   1239.3567              1246.8467              1284.4646
 Red. masses --      1.6388                 1.7887                 1.7533
 Frc consts  --      1.4831                 1.6384                 1.7043
 IR Inten    --     10.9530                10.2526                 9.2759

                     34                     35                     36
                      A                      A                      A
 Frequencies --   1314.2650              1326.8681              1377.1128
 Red. masses --      1.5511                 1.6921                 2.2314
 Frc consts  --      1.5785                 1.7552                 2.4933
 IR Inten    --      3.9145                 9.9615                 1.5527

                     37                     38                     39
                      A                      A                      A
 Frequencies --   1410.0210              1477.6540              1499.3505
 Red. masses --      1.2327                 1.0731                 1.0398
 Frc consts  --      1.4440                 1.3805                 1.3772
 IR Inten    --      1.8782                 1.0795                 5.1959

                     40                     41                     42
                      A                      A                      A
 Frequencies --   1505.9499              1509.9399              1510.6885
 Red. masses --      1.0758                 1.1324                 1.1554
 Frc consts  --      1.4374                 1.5211                 1.5536
 IR Inten    --      2.6731                 1.0738                 0.1052

                     43                     44                     45
                      A                      A                      A
 Frequencies --   3011.2154              3025.6659              3033.8791
 Red. masses --      1.0593                 1.0543                 1.0352
 Frc consts  --      5.6593                 5.6869                 5.6142
 IR Inten    --     27.0663                61.0234                31.5242

                     46                     47                     48
                      A                      A                      A
 Frequencies --   3034.5597              3043.0859              3081.0668
 Red. masses --      1.0560                 1.0991                 1.1089
 Frc consts  --      5.7296                 5.9968                 6.2021
 IR Inten    --     34.3969                26.6859                31.8278

                     49                     50                     51
                      A                      A                      A
 Frequencies --   3085.4567              3087.0735              3089.1807
 Red. masses --      1.0890                 1.0879                 1.1086
 Frc consts  --      6.1084                 6.1083                 6.2329
 IR Inten    --     99.5848                27.7102                45.1153

                     52                     53                     54
                      A                      A                      A
 Frequencies --   3102.4254              3103.6002              3104.8914
 Red. masses --      1.1010                 1.0958                 1.1015
 Frc consts  --      6.2436                 6.2188                 6.2562
 IR Inten    --     37.4918                49.4351                37.9707

 - Thermochemistry -
 -------------------
 Temperature   298.150 Kelvin.  Pressure   1.00000 Atm.
 Atom     1 has atomic number  6 and mass  12.00000

 Molecular mass:   108.09390 amu.
 Principal axes and moments of inertia in atomic units:
                           1         2         3
     Eigenvalues --   479.45162 997.048861170.59023
           X            0.99998   0.00386   0.00545
           Y           -0.00387   0.99999   0.00237
           Z           -0.00544  -0.00239   0.99998
 This molecule is an asymmetric top.
 Rotational symmetry number  1.
 Warning -- assumption of classical behavior for rotation
           may cause significant error
 Rotational temperatures (Kelvin)      0.18065     0.08687     0.07399
 Rotational constants (GHZ):           3.76418     1.81008     1.54174
 Zero-point vibrational energy     466736.2 (Joules/Mol)
                                  111.55262 (Kcal/Mol)
 Warning -- explicit consideration of   8 degrees of freedom as
           vibrations may cause significant error
 Vibrational temperatures:    119.73   255.97   287.80   418.23   506.83
          (Kelvin)            604.99   669.49   884.91  1029.86  1090.28
                             1130.40  1242.26  1249.17  1264.04  1297.31
                             1313.87  1378.42  1411.92  1428.55  1476.37
                             1479.25  1514.25  1526.68  1613.86  1623.71
                             1660.44  1668.24  1680.48  1710.55  1751.85
                             1783.16  1793.93  1848.06  1890.93  1909.07
                             1981.36  2028.71  2126.01  2157.23  2166.73
                             2172.47  2173.54  4332.47  4353.26  4365.08
                             4366.05  4378.32  4432.97  4439.28  4441.61
                             4444.64  4463.70  4465.39  4467.25

 Zero-point correction=                           0.177770 (Hartree/Particle)
 Thermal correction to Energy=                    0.185062
 Thermal correction to Enthalpy=                  0.186006
 Thermal correction to Gibbs Free Energy=         0.146352
 Sum of electronic and zero-point Energies=           -311.801988
 Sum of electronic and thermal Energies=              -311.794697
 Sum of electronic and thermal Enthalpies=            -311.793753
 Sum of electronic and thermal Free Energies=         -311.833407

                     E (Thermal)             CV                S
                      KCal/Mol        Cal/Mol-Kelvin    Cal/Mol-Kelvin
 Total                  116.128             28.996             83.459
 Electronic               0.000              0.000              0.000
 Translational            0.889              2.981             39.950
 Rotational               0.889              2.981             27.817
 Vibrational            114.350             23.034             15.692
 Vibration     1          0.600              1.961              3.814
 Vibration     2          0.628              1.870              2.350
 Vibration     3          0.638              1.840              2.133
 Vibration     4          0.687              1.691              1.470
 Vibration     5          0.729              1.571              1.156
 Vibration     6          0.783              1.426              0.890
 Vibration     7          0.823              1.327              0.751
 Vibration     8          0.975              1.000              0.424

 Optimization completed.
    -- Stationary point found.
 Normal termination of Gaussian 16 at Sun May 28 20:56:33 2023.
