 Gaussian 16, Revision A.03,
 Gaussian 16:  ES64L-G16RevA.03 25-Dec-2016

 -----------------------------
 # opt freq b3lyp/6-31g(2df,p)
 -----------------------------

 -------------------
 Title Card Required
 -------------------
 Symbolic Z-matrix:
 Charge =  0 Multiplicity = 1

 SCF Done:  E(RB3LYP) =  -352.264623462     A.U. after   14 cycles
 SCF Done:  E(RB3LYP) =  -352.325644398     A.U. after   12 cycles
 SCF Done:  E(RB3LYP) =  -352.387312627     A.U. after   12 cycles
 SCF Done:  E(RB3LYP) =  -352.413971361     A.U. after   11 cycles
 SCF Done:  E(RB3LYP) =  -352.414124099     A.U. after    6 cycles
 SCF Done:  E(RB3LYP) =  -352.438105258     A.U. after   11 cycles
 SCF Done:  E(RB3LYP) =  -352.448477417     A.U. after   11 cycles
 SCF Done:  E(RB3LYP) =  -352.452341380     A.U. after   10 cycles
 SCF Done:  E(RB3LYP) =  -352.455571942     A.U. after   10 cycles
 SCF Done:  E(RB3LYP) =  -352.464095003     A.U. after   11 cycles
 SCF Done:  E(RB3LYP) =  -352.531199859     A.U. after   11 cycles
 SCF Done:  E(RB3LYP) =  -352.538178301     A.U. after   10 cycles
 SCF Done:  E(RB3LYP) =  -352.539698224     A.U. after   10 cycles
 SCF Done:  E(RB3LYP) =  -352.539541240     A.U. after    9 cycles
 SCF Done:  E(RB3LYP) =  -352.539816981     A.U. after   10 cycles
 SCF Done:  E(RB3LYP) =  -352.539926910     A.U. after    9 cycles
 SCF Done:  E(RB3LYP) =  -352.539932677     A.U. after    8 cycles
 SCF Done:  E(RB3LYP) =  -352.539933843     A.U. after    8 cycles
 SCF Done:  E(RB3LYP) =  -352.539934195     A.U. after    6 cycles
 Optimization completed.
    -- Stationary point found.
 Normal termination of Gaussian 16 at Sun May 28 17:22:17 2023.

 ----------------------------------------------------------------------
 #N Geom=AllCheck Guess=TCheck SCRF=Check GenChk RB3LYP/6-31G(2df,p) Fr
 eq
 ----------------------------------------------------------------------

 Structure from the checkpoint file:  "CCC1C2CCqC2rC1C.chk"
 -------------------
 Title Card Required
 -------------------
 Charge =  0 Multiplicity = 1

                         Standard orientation:
 ---------------------------------------------------------------------
 Center     Atomic      Atomic             Coordinates (Angstroms)
 Number     Number       Type             X           Y           Z
 ---------------------------------------------------------------------
      1          6           0        2.551447   -1.231151   -0.443765
      2          6           0        1.914956   -0.499693    0.745080
      3          6           0        0.874622    0.591883    0.399784
      4          6           0        1.491584    1.759957   -0.387495
      5          6           0       -0.326299    0.024386   -0.357137
      6          6           0       -1.722830    0.736375   -0.359237
      7          6           0       -1.956997    0.198366    1.083538
      8          6           0       -1.335566   -0.986747    0.286771
      9          6           0       -2.313096   -0.611541   -0.864513
     10          1           0        3.282695   -1.966171   -0.092700
     11          1           0        3.077051   -0.543158   -1.113491
     12          1           0        1.806972   -1.769863   -1.038106
     13          1           0        2.710370   -0.035056    1.342309
     14          1           0        1.437673   -1.238289    1.401286
     15          1           0        0.536538    0.998584    1.360001
     16          1           0        2.360185    2.174060    0.135931
     17          1           0        1.820831    1.448138   -1.384592
     18          1           0        0.765851    2.568417   -0.522167
     19          1           0       -0.011850   -0.277126   -1.364280
     20          1           0       -1.954447    1.734498   -0.736074
     21          1           0       -1.370681    0.633007    1.894118
     22          1           0       -3.001017    0.077107    1.386512
     23          1           0       -1.119686   -1.989782    0.659774
     24          1           0       -3.376492   -0.779398   -0.673214
     25          1           0       -2.030923   -0.925984   -1.873471
 ---------------------------------------------------------------------

 SCF Done:  E(RB3LYP) =  -352.539934195     A.U. after    1 cycles

 The electronic state is 1-A.
 Alpha  occ. eigenvalues --  -10.19391 -10.19371 -10.18273 -10.18059 -10.17971
 Alpha  occ. eigenvalues --  -10.17828 -10.17410 -10.16840 -10.16749  -0.90415
 Alpha  occ. eigenvalues --   -0.79514  -0.72056  -0.66080  -0.65937  -0.62748
 Alpha  occ. eigenvalues --   -0.61531  -0.55898  -0.51203  -0.49001  -0.46715
 Alpha  occ. eigenvalues --   -0.44851  -0.42516  -0.42132  -0.38904  -0.37701
 Alpha  occ. eigenvalues --   -0.37615  -0.35588  -0.33248  -0.32894  -0.32224
 Alpha  occ. eigenvalues --   -0.31901  -0.30586  -0.29946  -0.28834  -0.28472
 Alpha virt. eigenvalues --    0.08386   0.10824   0.11166   0.11946   0.13757
 Alpha virt. eigenvalues --    0.14323   0.14725   0.15350   0.15965   0.16296
 Alpha virt. eigenvalues --    0.16723   0.17500   0.18347   0.18636   0.19800

 Mulliken charges:
               1
     1  C   -0.378204
     2  C   -0.177725
     3  C   -0.032004
     4  C   -0.395286
     5  C    0.092750
     6  C   -0.063320
     7  C   -0.223327
     8  C   -0.065121
     9  C   -0.220766
    10  H    0.110488
    11  H    0.115708
    12  H    0.117709
    13  H    0.088025
    14  H    0.093681
    15  H    0.067607
    16  H    0.106666
    17  H    0.114050
    18  H    0.112616
    19  H    0.057296
    20  H    0.064604
    21  H    0.093038
    22  H    0.085931
    23  H    0.064666
    24  H    0.085639
    25  H    0.085278
 Sum of Mulliken charges =  -0.00000

 Dipole moment (field-independent basis, Debye):
    X=              0.0747    Y=              0.0234    Z=              0.0924  Tot=              0.1211
 Quadrupole moment (field-independent basis, Debye-Ang):
   XX=            -58.3707   YY=            -58.3623   ZZ=            -58.1702
   XY=              0.0059   XZ=              0.1777   YZ=              0.0844

  Exact polarizability: 105.871   0.992  88.159   0.026   0.713  84.847
 Approx polarizability: 136.181   0.815 130.189  -0.297   0.770 131.220

                      1                      2                      3
                      A                      A                      A
 Frequencies --     42.2293                87.6925               150.0253
 Red. masses --      2.7773                 2.1610                 2.1645
 Frc consts  --      0.0029                 0.0098                 0.0287
 IR Inten    --      0.0040                 0.0070                 0.0046

                      4                      5                      6
                      A                      A                      A
 Frequencies --    209.8304               225.5600               250.4007
 Red. masses --      1.5483                 1.3236                 1.4070
 Frc consts  --      0.0402                 0.0397                 0.0520
 IR Inten    --      0.0894                 0.0539                 0.0513

                      7                      8                      9
                      A                      A                      A
 Frequencies --    286.0170               317.9143               424.4826
 Red. masses --      3.1045                 2.0472                 2.7607
 Frc consts  --      0.1496                 0.1219                 0.2931
 IR Inten    --      0.1392                 0.1311                 0.2717

                     10                     11                     12
                      A                      A                      A
 Frequencies --    512.4523               555.9653               575.6592
 Red. masses --      2.5327                 2.4239                 1.8851
 Frc consts  --      0.3919                 0.4414                 0.3681
 IR Inten    --      0.1433                 1.8529                 0.2105

                     13                     14                     15
                      A                      A                      A
 Frequencies --    775.1078               778.2275               804.3985
 Red. masses --      1.8252                 1.6223                 2.6595
 Frc consts  --      0.6461                 0.5789                 1.0139
 IR Inten    --      1.1694                 2.3873                 0.9086

                     16                     17                     18
                      A                      A                      A
 Frequencies --    820.5267               868.2992               883.4261
 Red. masses --      2.4355                 1.9401                 2.2674
 Frc consts  --      0.9661                 0.8618                 1.0426
 IR Inten    --      0.7638                 0.2356                 2.0669

                     19                     20                     21
                      A                      A                      A
 Frequencies --    898.4305               903.6574               956.1843
 Red. masses --      2.7218                 2.0914                 2.1926
 Frc consts  --      1.2944                 1.0062                 1.1811
 IR Inten    --      0.0158                 0.2088                 0.6396

                     22                     23                     24
                      A                      A                      A
 Frequencies --    989.4581              1008.8777              1015.0990
 Red. masses --      1.4212                 1.0309                 1.4059
 Frc consts  --      0.8198                 0.6182                 0.8535
 IR Inten    --      0.3603                 0.2326                 1.8659

                     25                     26                     27
                      A                      A                      A
 Frequencies --   1017.8917              1030.9709              1041.4904
 Red. masses --      1.7572                 1.0292                 1.4563
 Frc consts  --      1.0727                 0.6445                 0.9307
 IR Inten    --      2.8481                 0.2392                 0.6031

                     28                     29                     30
                      A                      A                      A
 Frequencies --   1080.7886              1111.8727              1127.1206
 Red. masses --      1.4104                 2.1266                 2.0166
 Frc consts  --      0.9707                 1.5490                 1.5095
 IR Inten    --      0.1658                 0.2777                 2.4214

                     31                     32                     33
                      A                      A                      A
 Frequencies --   1131.8093              1146.1458              1161.8406
 Red. masses --      2.4985                 1.3966                 2.0612
 Frc consts  --      1.8857                 1.0809                 1.6393
 IR Inten    --      0.4788                 0.8646                 1.2166

                     34                     35                     36
                      A                      A                      A
 Frequencies --   1192.0990              1200.1017              1217.8738
 Red. masses --      1.4158                 1.9520                 1.4217
 Frc consts  --      1.1854                 1.6564                 1.2424
 IR Inten    --      0.1922                 1.1813                 0.3311

                     37                     38                     39
                      A                      A                      A
 Frequencies --   1247.1428              1250.5669              1269.0189
 Red. masses --      1.6861                 1.6451                 1.7697
 Frc consts  --      1.5451                 1.5158                 1.6791
 IR Inten    --      3.0676                16.3646                 0.7860

                     40                     41                     42
                      A                      A                      A
 Frequencies --   1296.9904              1319.1889              1348.1266
 Red. masses --      1.2218                 1.4433                 1.3395
 Frc consts  --      1.2109                 1.4799                 1.4343
 IR Inten    --      0.1520                 1.1625                 4.5059

                     43                     44                     45
                      A                      A                      A
 Frequencies --   1379.8655              1409.0652              1414.1729
 Red. masses --      1.3011                 1.2723                 1.2562
 Frc consts  --      1.4595                 1.4883                 1.4801
 IR Inten    --      4.4185                 4.9533                 6.4685

                     46                     47                     48
                      A                      A                      A
 Frequencies --   1438.6413              1483.1690              1497.2997
 Red. masses --      1.3463                 1.0659                 1.0498
 Frc consts  --      1.6417                 1.3815                 1.3867
 IR Inten    --      2.1782                 1.5585                 2.3661

                     49                     50                     51
                      A                      A                      A
 Frequencies --   1498.4322              1503.3820              1507.9373
 Red. masses --      1.0483                 1.0962                 1.0622
 Frc consts  --      1.3868                 1.4598                 1.4230
 IR Inten    --      5.7316                 1.3470                 3.8105

                     52                     53                     54
                      A                      A                      A
 Frequencies --   1510.4324              1540.9259              3011.0819
 Red. masses --      1.0534                 1.1385                 1.0679
 Frc consts  --      1.4159                 1.5928                 5.7047
 IR Inten    --      1.5847                 1.6487                21.7132

                     55                     56                     57
                      A                      A                      A
 Frequencies --   3018.1146              3028.9376              3034.4741
 Red. masses --      1.0721                 1.0365                 1.0816
 Frc consts  --      5.7541                 5.6028                 5.8679
 IR Inten    --     11.2853                24.1958                26.4275

                     58                     59                     60
                      A                      A                      A
 Frequencies --   3038.5854              3044.5708              3047.9078
 Red. masses --      1.0371                 1.0551                 1.0999
 Frc consts  --      5.6419                 5.7622                 6.0199
 IR Inten    --     30.1010                62.9844                21.1555

                     61                     62                     63
                      A                      A                      A
 Frequencies --   3057.8185              3086.6647              3094.1540
 Red. masses --      1.0594                 1.0896                 1.0934
 Frc consts  --      5.8360                 6.1163                 6.1674
 IR Inten    --     50.6597               102.7368                 3.6312

                     64                     65                     66
                      A                      A                      A
 Frequencies --   3094.8708              3098.1990              3101.9017
 Red. masses --      1.1011                 1.1007                 1.1005
 Frc consts  --      6.2136                 6.2248                 6.2389
 IR Inten    --     29.9716                58.8965                31.6093

                     67                     68                     69
                      A                      A                      A
 Frequencies --   3107.8780              3110.2176              3124.6571
 Red. masses --      1.1014                 1.1104                 1.1048
 Frc consts  --      6.2677                 6.3285                 6.3556
 IR Inten    --     44.7007                49.4627                46.8872

 - Thermochemistry -
 -------------------
 Temperature   298.150 Kelvin.  Pressure   1.00000 Atm.
 Atom     1 has atomic number  6 and mass  12.00000

 Molecular mass:   124.12520 amu.
 Principal axes and moments of inertia in atomic units:
                           1         2         3
     Eigenvalues --   645.005781655.247401853.95968
           X            0.99998  -0.00229  -0.00533
           Y            0.00234   0.99996   0.00903
           Z            0.00531  -0.00904   0.99995
 This molecule is an asymmetric top.
 Rotational symmetry number  1.
 Warning -- assumption of classical behavior for rotation
           may cause significant error
 Rotational temperatures (Kelvin)      0.13428     0.05233     0.04672
 Rotational constants (GHZ):           2.79802     1.09032     0.97345
 Zero-point vibrational energy     603003.5 (Joules/Mol)
                                  144.12130 (Kcal/Mol)
 Warning -- explicit consideration of  12 degrees of freedom as
           vibrations may cause significant error
 Vibrational temperatures:     60.76   126.17   215.85   301.90   324.53
          (Kelvin)            360.27   411.51   457.41   610.74   737.30
                              799.91   828.25  1115.21  1119.70  1157.35
                             1180.55  1249.29  1271.05  1292.64  1300.16
                             1375.74  1423.61  1451.55  1460.50  1464.52
                             1483.34  1498.47  1555.01  1599.74  1621.68
                             1628.42  1649.05  1671.63  1715.16  1726.68
                             1752.25  1794.36  1799.29  1825.84  1866.08
                             1898.02  1939.65  1985.32  2027.33  2034.68
                             2069.88  2133.95  2154.28  2155.91  2163.03
                             2169.59  2173.18  2217.05  4332.28  4342.39
                             4357.97  4365.93  4371.85  4380.46  4385.26
                             4399.52  4441.02  4451.80  4452.83  4457.62
                             4462.94  4471.54  4474.91  4495.68

 Zero-point correction=                           0.229672 (Hartree/Particle)
 Thermal correction to Energy=                    0.239124
 Thermal correction to Enthalpy=                  0.240068
 Thermal correction to Gibbs Free Energy=         0.194998
 Sum of electronic and zero-point Energies=           -352.310262
 Sum of electronic and thermal Energies=              -352.300811
 Sum of electronic and thermal Enthalpies=            -352.299866
 Sum of electronic and thermal Free Energies=         -352.344937

                     E (Thermal)             CV                S
                      KCal/Mol        Cal/Mol-Kelvin    Cal/Mol-Kelvin
 Total                  150.052             36.685             94.858
 Electronic               0.000              0.000              0.000
 Translational            0.889              2.981             40.362
 Rotational               0.889              2.981             29.072
 Vibrational            148.275             30.723             25.424
 Vibration     1          0.595              1.980              5.152
 Vibration     2          0.601              1.958              3.711
 Vibration     3          0.618              1.903              2.672
 Vibration     4          0.642              1.826              2.045
 Vibration     5          0.650              1.802              1.914
 Vibration     6          0.663              1.762              1.728
 Vibration     7          0.684              1.700              1.497
 Vibration     8          0.704              1.639              1.321
 Vibration     9          0.786              1.417              0.877
 Vibration    10          0.868              1.222              0.628
 Vibration    11          0.911              1.127              0.532
 Vibration    12          0.932              1.084              0.493

                           ! Non-Optimized Parameters !
 Normal termination of Gaussian 16 at Sun May 28 18:08:19 2023.
