 Gaussian 16, Revision A.03,
 Gaussian 16:  ES64L-G16RevA.03 25-Dec-2016

 -----------------------------
 # opt freq b3lyp/6-31g(2df,p)
 -----------------------------

 -------------------
 Title Card Required
 -------------------
 Symbolic Z-matrix:
 Charge =  0 Multiplicity = 1

 SCF Done:  E(RB3LYP) =  -711.743831023     A.U. after   12 cycles
 SCF Done:  E(RB3LYP) =  -711.751789269     A.U. after   10 cycles
 SCF Done:  E(RB3LYP) =  -711.755237643     A.U. after   11 cycles
 SCF Done:  E(RB3LYP) =  -711.758225253     A.U. after   13 cycles
 SCF Done:  E(RB3LYP) =  -711.760271576     A.U. after   11 cycles
 SCF Done:  E(RB3LYP) =  -711.760883949     A.U. after   10 cycles
 SCF Done:  E(RB3LYP) =  -711.761163526     A.U. after   10 cycles
 SCF Done:  E(RB3LYP) =  -711.761206227     A.U. after    9 cycles
 SCF Done:  E(RB3LYP) =  -711.761225880     A.U. after    9 cycles
 SCF Done:  E(RB3LYP) =  -711.761229532     A.U. after    8 cycles
 SCF Done:  E(RB3LYP) =  -711.765575601     A.U. after    9 cycles
 SCF Done:  E(RB3LYP) =  -711.765657528     A.U. after    9 cycles
 SCF Done:  E(RB3LYP) =  -711.765697785     A.U. after    9 cycles
 SCF Done:  E(RB3LYP) =  -711.765715192     A.U. after    9 cycles
 SCF Done:  E(RB3LYP) =  -711.765718759     A.U. after    9 cycles
 SCF Done:  E(RB3LYP) =  -711.765719908     A.U. after    7 cycles
 SCF Done:  E(RB3LYP) =  -711.765720146     A.U. after    6 cycles
 SCF Done:  E(RB3LYP) =  -711.765720304     A.U. after    6 cycles
 SCF Done:  E(RB3LYP) =  -711.765720369     A.U. after    6 cycles
 Optimization completed.
    -- Stationary point found.
 Normal termination of Gaussian 16 at Mon May 22 20:37:13 2023.

 ----------------------------------------------------------------------
 #N Geom=AllCheck Guess=TCheck SCRF=Check GenChk RB3LYP/6-31G(2df,p) Fr
 eq
 ----------------------------------------------------------------------

 Structure from the checkpoint file:  "CCC1CqNrC1CNOC1CCCCCN1.chk"
 -------------------
 Title Card Required
 -------------------
 Charge =  0 Multiplicity = 1

                         Standard orientation:
 ---------------------------------------------------------------------
 Center     Atomic      Atomic             Coordinates (Angstroms)
 Number     Number       Type             X           Y           Z
 ---------------------------------------------------------------------
      1          6           0        3.698082    2.430436   -0.733276
      2          6           0        4.432871    1.170701   -0.259477
      3          6           0        3.653056   -0.100923   -0.517537
      4          6           0        3.802431   -1.344459    0.348042
      5          7           0        4.658049   -1.453153    1.505911
      6          6           0        2.539318   -0.537066    0.424010
      7          6           0        1.230676   -1.069897   -0.106207
      8          7           0        0.357757    0.058472   -0.457123
      9          8           0       -0.793750   -0.459552   -1.143924
     10          6           0       -1.955523   -0.327215   -0.333338
     11          6           0       -3.064107   -1.007689   -1.137226
     12          6           0       -4.416055   -1.117126   -0.419201
     13          6           0       -4.967371    0.181937    0.194551
     14          6           0       -4.184930    0.637505    1.438316
     15          6           0       -2.882199    1.416358    1.159293
     16          7           0       -2.255428    1.085396   -0.121877
     17          1           0        4.282694    3.333827   -0.532608
     18          1           0        2.732193    2.533957   -0.227155
     19          1           0        3.506089    2.392996   -1.811497
     20          1           0        4.651318    1.257933    0.811706
     21          1           0        5.408572    1.107334   -0.759854
     22          1           0        3.472594   -0.304549   -1.572873
     23          1           0        3.727346   -2.288316   -0.187749
     24          1           0        4.519396   -0.674521    2.139938
     25          1           0        5.636658   -1.440198    1.232531
     26          1           0        2.434400    0.073178    1.319867
     27          1           0        0.716917   -1.664456    0.657484
     28          1           0        1.404642   -1.726883   -0.971662
     29          1           0        0.829002    0.594820   -1.183605
     30          1           0       -1.781433   -0.855992    0.624836
     31          1           0       -2.721103   -2.008946   -1.421859
     32          1           0       -3.175824   -0.424105   -2.057607
     33          1           0       -4.344954   -1.869543    0.378981
     34          1           0       -5.143114   -1.512931   -1.138200
     35          1           0       -6.008121    0.000643    0.488157
     36          1           0       -4.985573    0.979280   -0.557039
     37          1           0       -3.960526   -0.251083    2.041943
     38          1           0       -4.821410    1.267366    2.069934
     39          1           0       -2.199981    1.263586    2.015838
     40          1           0       -3.103232    2.489619    1.124431
     41          1           0       -1.366688    1.573021   -0.168619
 ---------------------------------------------------------------------

 SCF Done:  E(RB3LYP) =  -711.765720369     A.U. after    1 cycles

 The electronic state is 1-A.
 Alpha  occ. eigenvalues --  -19.15706 -14.36286 -14.31538 -14.29426 -10.24053
 Alpha  occ. eigenvalues --  -10.21501 -10.20798 -10.19445 -10.19224 -10.18815
 Alpha  occ. eigenvalues --  -10.18739 -10.17782 -10.17178 -10.17090 -10.16861
 Alpha  occ. eigenvalues --  -10.16505  -1.05987  -0.90731  -0.89298  -0.84685
 Alpha  occ. eigenvalues --   -0.81699  -0.78354  -0.76145  -0.74321  -0.68263
 Alpha  occ. eigenvalues --   -0.65830  -0.63647  -0.62569  -0.58329  -0.56241
 Alpha  occ. eigenvalues --   -0.55698  -0.54916  -0.51486  -0.49729  -0.48248
 Alpha  occ. eigenvalues --   -0.47245  -0.46606  -0.46512  -0.44917  -0.43793
 Alpha  occ. eigenvalues --   -0.43040  -0.42468  -0.41400  -0.41022  -0.40322
 Alpha  occ. eigenvalues --   -0.39036  -0.38502  -0.37629  -0.36700  -0.35340
 Alpha  occ. eigenvalues --   -0.34853  -0.33777  -0.33637  -0.32480  -0.31475
 Alpha  occ. eigenvalues --   -0.31339  -0.30902  -0.30498  -0.28546  -0.26880
 Alpha  occ. eigenvalues --   -0.23959  -0.22424  -0.20779
 Alpha virt. eigenvalues --    0.07196   0.07499   0.08726   0.09628   0.09976
 Alpha virt. eigenvalues --    0.10599   0.11856   0.12289   0.12486   0.13528
 Alpha virt. eigenvalues --    0.14259   0.15032   0.15289   0.15666   0.15956

 Mulliken charges:
               1
     1  C   -0.375367
     2  C   -0.203236
     3  C   -0.017945
     4  C   -0.028151
     5  N   -0.522753
     6  C   -0.050105
     7  C   -0.141093
     8  N   -0.229204
     9  O   -0.278778
    10  C    0.171405
    11  C   -0.183022
    12  C   -0.203931
    13  C   -0.175049
    14  C   -0.187538
    15  C   -0.153128
    16  N   -0.296493
    17  H    0.112619
    18  H    0.121489
    19  H    0.113593
    20  H    0.082856
    21  H    0.096298
    22  H    0.075096
    23  H    0.092971
    24  H    0.229462
    25  H    0.229549
    26  H    0.086074
    27  H    0.113033
    28  H    0.094205
    29  H    0.239549
    30  H    0.044528
    31  H    0.091824
    32  H    0.105282
    33  H    0.089567
    34  H    0.091238
    35  H    0.085114
    36  H    0.105515
    37  H    0.093789
    38  H    0.091587
    39  H    0.077017
    40  H    0.095233
    41  H    0.216902
 Sum of Mulliken charges =  -0.00000

 Dipole moment (field-independent basis, Debye):
    X=              1.9934    Y=              0.7901    Z=              0.4162  Tot=              2.1843
 Quadrupole moment (field-independent basis, Debye-Ang):
   XX=            -91.3898   YY=           -102.2783   ZZ=           -101.0505
   XY=              5.2191   XZ=             -3.9755   YZ=              3.2551

  Exact polarizability: 190.719   1.233 144.924   0.741   1.925 133.746
 Approx polarizability: 223.614  -0.026 210.070   0.605  -0.935 208.220

                      1                      2                      3
                      A                      A                      A
 Frequencies --     21.7504                27.6878                32.4963
 Red. masses --      3.5927                 3.8106                 3.7946
 Frc consts  --      0.0010                 0.0017                 0.0024
 IR Inten    --      0.3818                 0.0506                 0.0075

                      4                      5                      6
                      A                      A                      A
 Frequencies --     60.7324                84.4207                92.8814
 Red. masses --      3.1078                 2.2491                 2.9015
 Frc consts  --      0.0068                 0.0094                 0.0147
 IR Inten    --      0.2214                 0.4242                 0.0573

                      7                      8                      9
                      A                      A                      A
 Frequencies --    100.3042               151.1342               162.9394
 Red. masses --      2.7387                 2.3883                 2.3155
 Frc consts  --      0.0162                 0.0321                 0.0362
 IR Inten    --      0.8833                 3.7338                11.7647

                     10                     11                     12
                      A                      A                      A
 Frequencies --    176.7461               203.9468               209.5148
 Red. masses --      1.8643                 1.9918                 1.5767
 Frc consts  --      0.0343                 0.0488                 0.0408
 IR Inten    --      4.5128                 9.4156                15.6958

                     13                     14                     15
                      A                      A                      A
 Frequencies --    224.5780               264.8767               289.9182
 Red. masses --      1.7428                 2.6362                 2.2811
 Frc consts  --      0.0518                 0.1090                 0.1130
 IR Inten    --      0.5274                 2.5113                 1.4706

                     16                     17                     18
                      A                      A                      A
 Frequencies --    301.8793               315.5951               336.7991
 Red. masses --      2.4663                 2.0373                 3.4532
 Frc consts  --      0.1324                 0.1196                 0.2308
 IR Inten    --      1.1695                 0.9337                 4.6049

                     19                     20                     21
                      A                      A                      A
 Frequencies --    368.6046               380.5643               391.7076
 Red. masses --      3.5262                 2.7894                 2.6400
 Frc consts  --      0.2823                 0.2380                 0.2387
 IR Inten    --      3.0139                 0.8832                 2.3637

                     22                     23                     24
                      A                      A                      A
 Frequencies --    472.8173               488.3042               515.1146
 Red. masses --      2.7073                 2.5591                 1.8679
 Frc consts  --      0.3566                 0.3595                 0.2920
 IR Inten    --      0.2071                 7.0193                 2.5799

                     25                     26                     27
                      A                      A                      A
 Frequencies --    561.3531               577.3331               614.2085
 Red. masses --      3.1085                 3.0584                 3.4575
 Frc consts  --      0.5771                 0.6006                 0.7685
 IR Inten    --     10.7910                13.8327                12.8770

                     28                     29                     30
                      A                      A                      A
 Frequencies --    735.7367               761.0218               780.4534
 Red. masses --      1.4395                 1.5049                 2.4517
 Frc consts  --      0.4591                 0.5135                 0.8798
 IR Inten    --     42.0415                13.3482                28.0924

                     31                     32                     33
                      A                      A                      A
 Frequencies --    781.0430               827.7611               831.7177
 Red. masses --      2.4290                 1.5665                 1.5462
 Frc consts  --      0.8730                 0.6324                 0.6302
 IR Inten    --      6.0635                40.3599                25.9070

                     34                     35                     36
                      A                      A                      A
 Frequencies --    865.2061               867.5837               884.6060
 Red. masses --      1.5190                 2.1655                 2.1604
 Frc consts  --      0.6699                 0.9603                 0.9961
 IR Inten    --     85.3839                24.7788                26.3519

                     37                     38                     39
                      A                      A                      A
 Frequencies --    902.8282               908.6995               921.8444
 Red. masses --      2.2727                 2.1113                 2.0295
 Frc consts  --      1.0914                 1.0272                 1.0161
 IR Inten    --      7.6008                29.2555                 1.9156

                     40                     41                     42
                      A                      A                      A
 Frequencies --    952.5799               958.0561               986.3308
 Red. masses --      1.5424                 2.3142                 2.1171
 Frc consts  --      0.8246                 1.2515                 1.2135
 IR Inten    --      2.0153                23.9009                15.8103

                     43                     44                     45
                      A                      A                      A
 Frequencies --   1003.8345              1013.1121              1028.4745
 Red. masses --      1.5332                 1.6771                 2.0415
 Frc consts  --      0.9103                 1.0142                 1.2723
 IR Inten    --     20.7310                 9.0136                10.6906

                     46                     47                     48
                      A                      A                      A
 Frequencies --   1033.6907              1056.4050              1074.7013
 Red. masses --      2.2546                 2.0593                 2.5916
 Frc consts  --      1.4194                 1.3541                 1.7635
 IR Inten    --      3.0302                 5.8426                 9.7082

                     49                     50                     51
                      A                      A                      A
 Frequencies --   1083.4855              1101.2511              1112.1755
 Red. masses --      2.4672                 1.2051                 2.2063
 Frc consts  --      1.7065                 0.8611                 1.6079
 IR Inten    --     14.4539                 0.3296                 6.9404

                     52                     53                     54
                      A                      A                      A
 Frequencies --   1117.8154              1122.5785              1134.1431
 Red. masses --      1.9737                 1.7390                 2.1028
 Frc consts  --      1.4530                 1.2911                 1.5936
 IR Inten    --      3.6167                 1.3657                 5.2472

                     55                     56                     57
                      A                      A                      A
 Frequencies --   1148.7391              1163.7912              1180.7734
 Red. masses --      2.2066                 1.7951                 3.1266
 Frc consts  --      1.7156                 1.4325                 2.5684
 IR Inten    --      6.1384                18.9596                43.0714

                     58                     59                     60
                      A                      A                      A
 Frequencies --   1200.4357              1206.6197              1227.6287
 Red. masses --      1.8898                 1.3991                 1.3260
 Frc consts  --      1.6045                 1.2001                 1.1774
 IR Inten    --      4.2949                 6.6596                 2.0239

                     61                     62                     63
                      A                      A                      A
 Frequencies --   1240.7413              1249.8254              1263.6822
 Red. masses --      1.7278                 1.3919                 1.2682
 Frc consts  --      1.5671                 1.2810                 1.1932
 IR Inten    --     21.8009                 4.2933                12.1674

                     64                     65                     66
                      A                      A                      A
 Frequencies --   1281.8664              1287.3008              1291.9383
 Red. masses --      1.3572                 1.2610                 1.2550
 Frc consts  --      1.3140                 1.2312                 1.2342
 IR Inten    --     13.4254                 3.9784                 3.5675

                     67                     68                     69
                      A                      A                      A
 Frequencies --   1305.8595              1328.8000              1333.3028
 Red. masses --      1.1581                 1.2524                 1.2363
 Frc consts  --      1.1635                 1.3029                 1.2949
 IR Inten    --      0.9996                10.9653                14.7562

                     70                     71                     72
                      A                      A                      A
 Frequencies --   1347.2453              1366.6225              1370.0628
 Red. masses --      1.3180                 1.2456                 1.3044
 Frc consts  --      1.4095                 1.3706                 1.4426
 IR Inten    --      3.9776                10.0757                 6.8175

                     73                     74                     75
                      A                      A                      A
 Frequencies --   1379.9912              1384.6412              1390.3299
 Red. masses --      1.3847                 1.3563                 1.3763
 Frc consts  --      1.5536                 1.5321                 1.5675
 IR Inten    --      6.3350                12.4891                30.6997

                     76                     77                     78
                      A                      A                      A
 Frequencies --   1398.0534              1403.7317              1411.4366
 Red. masses --      1.3374                 1.4006                 1.2579
 Frc consts  --      1.5401                 1.6260                 1.4764
 IR Inten    --      1.6991                 1.5914                 3.0037

                     79                     80                     81
                      A                      A                      A
 Frequencies --   1421.0690              1472.4530              1476.9488
 Red. masses --      1.5466                 1.1133                 1.8617
 Frc consts  --      1.8402                 1.4222                 2.3927
 IR Inten    --     30.7298                13.3277                31.0535

                     82                     83                     84
                      A                      A                      A
 Frequencies --   1478.2302              1481.9039              1486.7684
 Red. masses --      1.2821                 1.0863                 1.1457
 Frc consts  --      1.6507                 1.4056                 1.4922
 IR Inten    --      4.5405                 6.5594                 0.6518

                     85                     86                     87
                      A                      A                      A
 Frequencies --   1488.2086              1498.6501              1498.9344
 Red. masses --      1.0991                 1.0803                 1.0437
 Frc consts  --      1.4342                 1.4295                 1.3816
 IR Inten    --      3.5985                 5.1831                 4.5701

                     88                     89                     90
                      A                      A                      A
 Frequencies --   1506.6275              1508.4107              1513.1193
 Red. masses --      1.2297                 1.0709                 1.0902
 Frc consts  --      1.6446                 1.4356                 1.4706
 IR Inten    --     18.7839                 1.9895                 1.2521

                     91                     92                     93
                      A                      A                      A
 Frequencies --   1513.6960              1655.7675              2893.6000
 Red. masses --      1.1267                 1.0937                 1.0811
 Frc consts  --      1.5210                 1.7666                 5.3332
 IR Inten    --      3.4975                22.9008                45.4046

                     94                     95                     96
                      A                      A                      A
 Frequencies --   2925.0567              2990.3764              3006.3954
 Red. masses --      1.0736                 1.0669                 1.0655
 Frc consts  --      5.4119                 5.6213                 5.6741
 IR Inten    --     80.0812                35.2098                23.5003

                     97                     98                     99
                      A                      A                      A
 Frequencies --   3014.3064              3021.2009              3026.7884
 Red. masses --      1.0623                 1.0643                 1.0683
 Frc consts  --      5.6868                 5.7237                 5.7664
 IR Inten    --     37.9405                25.4401                22.3240

                    100                    101                    102
                      A                      A                      A
 Frequencies --   3028.5808              3034.6125              3036.2741
 Red. masses --      1.0352                 1.0653                 1.0810
 Frc consts  --      5.5944                 5.7803                 5.8715
 IR Inten    --     24.5124                18.5479                19.0297

                    103                    104                    105
                      A                      A                      A
 Frequencies --   3048.7251              3053.6532              3060.1000
 Red. masses --      1.0972                 1.0913                 1.0944
 Frc consts  --      6.0087                 5.9957                 6.0381
 IR Inten    --     11.8604                64.3655                26.9640

                    106                    107                    108
                      A                      A                      A
 Frequencies --   3064.9778              3073.8365              3085.4399
 Red. masses --      1.0967                 1.1010                 1.1033
 Frc consts  --      6.0701                 6.1290                 6.1883
 IR Inten    --     68.0328                29.4834                46.5572

                    109                    110                    111
                      A                      A                      A
 Frequencies --   3095.1616              3102.0537              3104.8475
 Red. masses --      1.1004                 1.1012                 1.0885
 Frc consts  --      6.2111                 6.2432                 6.1823
 IR Inten    --     21.9626                43.3571                21.1115

                    112                    113                    114
                      A                      A                      A
 Frequencies --   3118.3864              3129.1614              3471.7337
 Red. masses --      1.0881                 1.0864                 1.0748
 Frc consts  --      6.2343                 6.2677                 7.6327
 IR Inten    --      4.8374                43.0684                 0.4489

                    115                    116                    117
                      A                      A                      A
 Frequencies --   3493.6874              3527.1511              3583.0364
 Red. masses --      1.0506                 1.0725                 1.0908
 Frc consts  --      7.5551                 7.8614                 8.2507
 IR Inten    --      0.2099                12.4978                 1.0982

 - Thermochemistry -
 -------------------
 Temperature   298.150 Kelvin.  Pressure   1.00000 Atm.
 Atom     1 has atomic number  6 and mass  12.00000

 Molecular mass:   227.19976 amu.
 Principal axes and moments of inertia in atomic units:
                           1         2         3
     Eigenvalues --  1673.589589809.97426**********
           X            0.99996   0.00849  -0.00410
           Y           -0.00843   0.99984   0.01554
           Z            0.00423  -0.01550   0.99987
 This molecule is an asymmetric top.
 Rotational symmetry number  1.
 Warning -- assumption of classical behavior for rotation
           may cause significant error
 Rotational temperatures (Kelvin)      0.05175     0.00883     0.00844
 Rotational constants (GHZ):           1.07837     0.18397     0.17587
 Zero-point vibrational energy     977520.7 (Joules/Mol)
                                  233.63305 (Kcal/Mol)
 Warning -- explicit consideration of  27 degrees of freedom as
           vibrations may cause significant error
 Vibrational temperatures:     31.29    39.84    46.75    87.38   121.46
          (Kelvin)            133.64   144.32   217.45   234.43   254.30
                              293.43   301.45   323.12   381.10   417.13
                              434.34   454.07   484.58   530.34   547.55
                              563.58   680.28   702.56   741.13   807.66
                              830.65   883.71  1058.56  1094.94  1122.90
                             1123.75  1190.96  1196.66  1244.84  1248.26
                             1272.75  1298.97  1307.42  1326.33  1370.55
                             1378.43  1419.11  1444.29  1457.64  1479.75
                             1487.25  1519.93  1546.26  1558.89  1584.45
                             1600.17  1608.29  1615.14  1631.78  1652.78
                             1674.44  1698.87  1727.16  1736.06  1766.28
                             1785.15  1798.22  1818.16  1844.32  1852.14
                             1858.81  1878.84  1911.85  1918.33  1938.39
                             1966.27  1971.21  1985.50  1992.19  2000.37
                             2011.49  2019.66  2030.74  2044.60  2118.53
                             2125.00  2126.84  2132.13  2139.13  2141.20
                             2156.22  2156.63  2167.70  2170.27  2177.04
                             2177.87  2382.28  4163.25  4208.50  4302.48
                             4325.53  4336.91  4346.83  4354.87  4357.45
                             4366.13  4368.52  4386.44  4393.53  4402.80
                             4409.82  4422.57  4439.26  4453.25  4463.16
                             4467.18  4486.66  4502.17  4995.05  5026.64
                             5074.78  5155.19

 Zero-point correction=                           0.372318 (Hartree/Particle)
 Thermal correction to Energy=                    0.390276
 Thermal correction to Enthalpy=                  0.391221
 Thermal correction to Gibbs Free Energy=         0.324447
 Sum of electronic and zero-point Energies=           -711.393402
 Sum of electronic and thermal Energies=              -711.375444
 Sum of electronic and thermal Enthalpies=            -711.374500
 Sum of electronic and thermal Free Energies=         -711.441274

                     E (Thermal)             CV                S
                      KCal/Mol        Cal/Mol-Kelvin    Cal/Mol-Kelvin
 Total                  244.902             67.551            140.537
 Electronic               0.000              0.000              0.000
 Translational            0.889              2.981             42.164
 Rotational               0.889              2.981             33.488
 Vibrational            243.125             61.589             64.885
 Vibration     1          0.593              1.985              6.468
 Vibration     2          0.593              1.984              5.989
 Vibration     3          0.594              1.983              5.671
 Vibration     4          0.597              1.973              4.433
 Vibration     5          0.601              1.960              3.785
 Vibration     6          0.602              1.954              3.598
 Vibration     7          0.604              1.949              3.448
 Vibration     8          0.619              1.901              2.658
 Vibration     9          0.623              1.888              2.515
 Vibration    10          0.628              1.871              2.363
 Vibration    11          0.640              1.834              2.097
 Vibration    12          0.642              1.826              2.048
 Vibration    13          0.649              1.804              1.922
 Vibration    14          0.671              1.737              1.629
 Vibration    15          0.686              1.692              1.474
 Vibration    16          0.694              1.670              1.406
 Vibration    17          0.703              1.644              1.333
 Vibration    18          0.718              1.602              1.227
 Vibration    19          0.741              1.537              1.086
 Vibration    20          0.750              1.512              1.037
 Vibration    21          0.759              1.488              0.994
 Vibration    22          0.830              1.310              0.730
 Vibration    23          0.844              1.276              0.688
 Vibration    24          0.870              1.217              0.621
 Vibration    25          0.917              1.115              0.521
 Vibration    26          0.934              1.080              0.490
 Vibration    27          0.974              1.002              0.426

                           ! Non-Optimized Parameters !
 Normal termination of Gaussian 16 at Tue May 23 00:12:13 2023.
