 Gaussian 16, Revision A.03,
 Gaussian 16:  ES64L-G16RevA.03 25-Dec-2016

 -----------------------------
 # opt freq b3lyp/6-31g(2df,p)
 -----------------------------

 -------------------
 Title Card Required
 -------------------
 Symbolic Z-matrix:
 Charge =  0 Multiplicity = 1

 SCF Done:  E(RB3LYP) =  -313.254584541     A.U. after   12 cycles
 SCF Done:  E(RB3LYP) =  -313.262580787     A.U. after   10 cycles
 SCF Done:  E(RB3LYP) =  -313.264396094     A.U. after   10 cycles
 SCF Done:  E(RB3LYP) =  -313.264743088     A.U. after    9 cycles
 SCF Done:  E(RB3LYP) =  -313.264785737     A.U. after    8 cycles
 SCF Done:  E(RB3LYP) =  -313.264798977     A.U. after    8 cycles
 SCF Done:  E(RB3LYP) =  -313.264801330     A.U. after    7 cycles
 SCF Done:  E(RB3LYP) =  -313.264801591     A.U. after    6 cycles
 Optimization completed.
    -- Stationary point found.
 Normal termination of Gaussian 16 at Sun May 28 22:29:26 2023.

 ----------------------------------------------------------------------
 #N Geom=AllCheck Guess=TCheck SCRF=Check GenChk RB3LYP/6-31G(2df,p) Fr
 eq
 ----------------------------------------------------------------------

 Structure from the checkpoint file:  "CCC1C2CCC1C2.chk"
 -------------------
 Title Card Required
 -------------------
 Charge =  0 Multiplicity = 1

                         Standard orientation:
 ---------------------------------------------------------------------
 Center     Atomic      Atomic             Coordinates (Angstroms)
 Number     Number       Type             X           Y           Z
 ---------------------------------------------------------------------
      1          6           0       -2.682697    0.405195   -0.000281
      2          6           0       -1.804823   -0.852484    0.000704
      3          6           0       -0.274493   -0.743911    0.000760
      4          6           0        0.477559    0.168348   -1.026429
      5          6           0        1.939030   -0.264946   -0.785214
      6          6           0        1.939030   -0.263015    0.785866
      7          6           0        0.477417    0.170591    1.026043
      8          6           0        0.335405    1.330165   -0.001441
      9          1           0       -3.738671    0.114878    0.000222
     10          1           0       -2.517116    1.025158   -0.886723
     11          1           0       -2.516658    1.026759    0.884958
     12          1           0       -2.081095   -1.461017   -0.871477
     13          1           0       -2.081162   -1.459624    0.873837
     14          1           0        0.094485   -1.778508    0.001909
     15          1           0        0.149120    0.265684   -2.062851
     16          1           0        2.657371    0.445063   -1.205530
     17          1           0        2.157316   -1.251376   -1.204873
     18          1           0        2.657305    0.448048    1.204506
     19          1           0        2.157323   -1.248424    1.207908
     20          1           0        0.149079    0.270134    2.062286
     21          1           0        1.115964    2.098518   -0.002215
     22          1           0       -0.641831    1.805051   -0.001999
 ---------------------------------------------------------------------

 SCF Done:  E(RB3LYP) =  -313.264801591     A.U. after    1 cycles

 The electronic state is 1-A.
 Alpha  occ. eigenvalues --  -10.18003 -10.18002 -10.17859 -10.17803 -10.17238
 Alpha  occ. eigenvalues --  -10.17221 -10.17088 -10.16971  -0.87841  -0.76381
 Alpha  occ. eigenvalues --   -0.70234  -0.67807  -0.66730  -0.59207  -0.54375
 Alpha  occ. eigenvalues --   -0.51256  -0.49199  -0.45977  -0.44012  -0.43718
 Alpha  occ. eigenvalues --   -0.39627  -0.38012  -0.36556  -0.34730  -0.34555
 Alpha  occ. eigenvalues --   -0.33165  -0.33075  -0.30126  -0.29302  -0.29027
 Alpha  occ. eigenvalues --   -0.27691
 Alpha virt. eigenvalues --    0.08510   0.11491   0.11908   0.12508   0.13484
 Alpha virt. eigenvalues --    0.14588   0.15032   0.16438   0.16647   0.17668
 Alpha virt. eigenvalues --    0.18837   0.19474   0.19777   0.20381   0.21164

 Mulliken charges:
               1
     1  C   -0.383550
     2  C   -0.227479
     3  C    0.066452
     4  C   -0.025048
     5  C   -0.211458
     6  C   -0.211461
     7  C   -0.025063
     8  C   -0.222572
     9  H    0.107095
    10  H    0.120913
    11  H    0.120918
    12  H    0.096107
    13  H    0.096106
    14  H    0.055088
    15  H    0.050209
    16  H    0.091454
    17  H    0.091665
    18  H    0.091472
    19  H    0.091649
    20  H    0.050208
    21  H    0.078475
    22  H    0.098821
 Sum of Mulliken charges =  -0.00000

 Dipole moment (field-independent basis, Debye):
    X=             -0.2105    Y=             -0.1083    Z=              0.0001  Tot=              0.2367
 Quadrupole moment (field-independent basis, Debye-Ang):
   XX=            -51.4357   YY=            -51.3451   ZZ=            -51.3642
   XY=              0.3151   XZ=              0.0000   YZ=              0.0001

  Exact polarizability:  92.379   0.676  76.796   0.000  -0.002  74.594
 Approx polarizability: 117.187   1.630 115.869  -0.001  -0.003 113.319

                      1                      2                      3
                      A                      A                      A
 Frequencies --     81.9882               227.1979               236.7618
 Red. masses --      2.3439                 3.0504                 1.6360
 Frc consts  --      0.0093                 0.0928                 0.0540
 IR Inten    --      0.0024                 0.1018                 0.0641

                      4                      5                      6
                      A                      A                      A
 Frequencies --    309.0760               318.3506               346.1103
 Red. masses --      2.9752                 1.4941                 1.2929
 Frc consts  --      0.1675                 0.0892                 0.0913
 IR Inten    --      0.1687                 0.0036                 0.0046

                      7                      8                      9
                      A                      A                      A
 Frequencies --    455.6274               578.9759               644.9041
 Red. masses --      2.1041                 2.4988                 3.8192
 Frc consts  --      0.2574                 0.4935                 0.9359
 IR Inten    --      0.8003                 0.0190                 0.0539

                     10                     11                     12
                      A                      A                      A
 Frequencies --    760.5543               798.0958               838.1268
 Red. masses --      1.2990                 1.9553                 2.7810
 Frc consts  --      0.4427                 0.7338                 1.1510
 IR Inten    --      1.3580                 0.7326                 2.1922

                     13                     14                     15
                      A                      A                      A
 Frequencies --    838.2050               860.3266               880.2828
 Red. masses --      2.4632                 1.6091                 1.9859
 Frc consts  --      1.0197                 0.7017                 0.9067
 IR Inten    --      0.3410                 0.1065                 1.6807

                     16                     17                     18
                      A                      A                      A
 Frequencies --    898.1575               926.1661               939.2120
 Red. masses --      2.8403                 2.1493                 1.8196
 Frc consts  --      1.3500                 1.0862                 0.9457
 IR Inten    --      0.0194                 0.4905                 0.0186

                     19                     20                     21
                      A                      A                      A
 Frequencies --    965.3859              1003.2931              1008.7287
 Red. masses --      2.0836                 1.2908                 2.5779
 Frc consts  --      1.1441                 0.7656                 1.5455
 IR Inten    --      0.5894                 0.1102                 0.1681

                     22                     23                     24
                      A                      A                      A
 Frequencies --   1034.5931              1087.2738              1088.3200
 Red. masses --      1.5352                 1.7019                 1.0604
 Frc consts  --      0.9682                 1.1854                 0.7400
 IR Inten    --      1.1520                 0.2050                 0.0126

                     25                     26                     27
                      A                      A                      A
 Frequencies --   1098.2227              1115.9215              1150.4956
 Red. masses --      1.2861                 1.5120                 1.8688
 Frc consts  --      0.9139                 1.1094                 1.4574
 IR Inten    --      0.0209                 1.9979                 0.6621

                     28                     29                     30
                      A                      A                      A
 Frequencies --   1179.3932              1213.6869              1219.6978
 Red. masses --      1.6132                 1.4458                 1.7523
 Frc consts  --      1.3221                 1.2548                 1.5359
 IR Inten    --      1.4807                 0.2013                 0.2633

                     31                     32                     33
                      A                      A                      A
 Frequencies --   1244.3560              1257.2701              1271.1025
 Red. masses --      1.4236                 1.2405                 1.5457
 Frc consts  --      1.2987                 1.1553                 1.4714
 IR Inten    --      1.1042                 0.0186                 0.3136

                     34                     35                     36
                      A                      A                      A
 Frequencies --   1292.2087              1305.7852              1321.2098
 Red. masses --      1.8024                 1.4268                 1.3999
 Frc consts  --      1.7732                 1.4334                 1.4398
 IR Inten    --      0.5122                 1.4703                 0.3001

                     37                     38                     39
                      A                      A                      A
 Frequencies --   1341.4330              1363.7074              1404.7513
 Red. masses --      1.2624                 1.6246                 1.2204
 Frc consts  --      1.3383                 1.7800                 1.4189
 IR Inten    --      0.5685                 4.5248                 1.1621

                     40                     41                     42
                      A                      A                      A
 Frequencies --   1432.6595              1482.2136              1493.5775
 Red. masses --      1.3341                 1.0706                 1.0837
 Frc consts  --      1.6133                 1.3858                 1.4244
 IR Inten    --     11.2041                 0.2482                 0.0710

                     43                     44                     45
                      A                      A                      A
 Frequencies --   1499.1793              1505.8651              1511.4404
 Red. masses --      1.0945                 1.0408                 1.0772
 Frc consts  --      1.4493                 1.3906                 1.4498
 IR Inten    --      4.4271                 5.1630                 4.3396

                     46                     47                     48
                      A                      A                      A
 Frequencies --   1528.3708              2994.0194              3012.5682
 Red. masses --      1.1031                 1.0728                 1.0713
 Frc consts  --      1.5182                 5.6662                 5.7285
 IR Inten    --      1.3382                11.0256                77.9790

                     49                     50                     51
                      A                      A                      A
 Frequencies --   3031.0808              3034.0857              3044.3895
 Red. masses --      1.1011                 1.0354                 1.0582
 Frc consts  --      5.9606                 5.6159                 5.7783
 IR Inten    --     21.2823                19.7583                28.9599

                     52                     53                     54
                      A                      A                      A
 Frequencies --   3048.2758              3054.4556              3081.2715
 Red. masses --      1.0695                 1.0604                 1.1073
 Frc consts  --      5.8553                 5.8289                 6.1942
 IR Inten    --     38.8129                70.8782                 0.0013

                     55                     56                     57
                      A                      A                      A
 Frequencies --   3092.4535              3095.1617              3096.8413
 Red. masses --      1.0876                 1.1004                 1.0912
 Frc consts  --      6.1279                 6.2109                 6.1658
 IR Inten    --     90.1554                38.0797                 2.6384

                     58                     59                     60
                      A                      A                      A
 Frequencies --   3100.6108              3108.4547              3173.8979
 Red. masses --      1.1064                 1.1021                 1.0926
 Frc consts  --      6.2670                 6.2742                 6.4848
 IR Inten    --     69.2548                41.5192                18.4199

 - Thermochemistry -
 -------------------
 Temperature   298.150 Kelvin.  Pressure   1.00000 Atm.
 Atom     1 has atomic number  6 and mass  12.00000

 Molecular mass:   110.10955 amu.
 Principal axes and moments of inertia in atomic units:
                           1         2         3
     Eigenvalues --   427.070941221.057291236.47228
           X            0.99998  -0.00646   0.00001
           Y            0.00646   0.99998  -0.00053
           Z           -0.00001   0.00053   1.00000
 This molecule is an asymmetric top.
 Rotational symmetry number  1.
 Rotational temperatures (Kelvin)      0.20281     0.07093     0.07005
 Rotational constants (GHZ):           4.22586     1.47802     1.45959
 Zero-point vibrational energy     534287.1 (Joules/Mol)
                                  127.69768 (Kcal/Mol)
 Warning -- explicit consideration of   8 degrees of freedom as
           vibrations may cause significant error
 Vibrational temperatures:    117.96   326.89   340.65   444.69   458.04
          (Kelvin)            497.98   655.55   833.02   927.87  1094.27
                             1148.28  1205.88  1205.99  1237.82  1266.53
                             1292.25  1332.55  1351.32  1388.97  1443.51
                             1451.34  1488.55  1564.34  1565.85  1580.10
                             1605.56  1655.31  1696.88  1746.22  1754.87
                             1790.35  1808.93  1828.83  1859.20  1878.73
                             1900.93  1930.02  1962.07  2021.12  2061.28
                             2132.57  2148.92  2156.98  2166.60  2174.63
                             2198.98  4307.73  4334.41  4361.05  4365.37
                             4380.20  4385.79  4394.68  4433.26  4449.35
                             4453.25  4455.66  4461.09  4472.37  4566.53

 Zero-point correction=                           0.203499 (Hartree/Particle)
 Thermal correction to Energy=                    0.210893
 Thermal correction to Enthalpy=                  0.211838
 Thermal correction to Gibbs Free Energy=         0.172080
 Sum of electronic and zero-point Energies=           -313.061302
 Sum of electronic and thermal Energies=              -313.053908
 Sum of electronic and thermal Enthalpies=            -313.052964
 Sum of electronic and thermal Free Energies=         -313.092722

                     E (Thermal)             CV                S
                      KCal/Mol        Cal/Mol-Kelvin    Cal/Mol-Kelvin
 Total                  132.338             30.116             83.677
 Electronic               0.000              0.000              0.000
 Translational            0.889              2.981             40.005
 Rotational               0.889              2.981             27.958
 Vibrational            130.560             24.154             15.714
 Vibration     1          0.600              1.961              3.843
 Vibration     2          0.651              1.800              1.901
 Vibration     3          0.656              1.784              1.827
 Vibration     4          0.698              1.656              1.367
 Vibration     5          0.705              1.639              1.319
 Vibration     6          0.724              1.583              1.184
 Vibration     7          0.814              1.348              0.779
 Vibration     8          0.936              1.077              0.487

 Optimization completed.
    -- Stationary point found.
 Normal termination of Gaussian 16 at Sun May 28 22:59:26 2023.
