 Gaussian 16, Revision A.03,
 Gaussian 16:  ES64L-G16RevA.03 25-Dec-2016

 -----------------------------
 # opt freq b3lyp/6-31g(2df,p)
 -----------------------------

 -------------------
 Title Card Required
 -------------------
 Symbolic Z-matrix:
 Charge =  0 Multiplicity = 1

 SCF Done:  E(RB3LYP) =  -504.998140240     A.U. after   14 cycles
 SCF Done:  E(RB3LYP) =  -505.045734604     A.U. after   12 cycles
 SCF Done:  E(RB3LYP) =  -505.096113566     A.U. after   12 cycles
 SCF Done:  E(RB3LYP) =  -505.118595165     A.U. after   11 cycles
 SCF Done:  E(RB3LYP) =  -505.155906719     A.U. after   13 cycles
 SCF Done:  E(RB3LYP) =  -505.179820327     A.U. after   11 cycles
 SCF Done:  E(RB3LYP) =  -505.205179102     A.U. after   11 cycles
 SCF Done:  E(RB3LYP) =  -505.212360988     A.U. after   11 cycles
 SCF Done:  E(RB3LYP) =  -505.217251221     A.U. after   11 cycles
 SCF Done:  E(RB3LYP) =  -505.219383859     A.U. after   11 cycles
 SCF Done:  E(RB3LYP) =  -505.220967632     A.U. after    9 cycles
 SCF Done:  E(RB3LYP) =  -505.221068195     A.U. after    9 cycles
 SCF Done:  E(RB3LYP) =  -505.221109486     A.U. after    9 cycles
 SCF Done:  E(RB3LYP) =  -505.221140588     A.U. after    9 cycles
 SCF Done:  E(RB3LYP) =  -505.221145918     A.U. after    8 cycles
 SCF Done:  E(RB3LYP) =  -505.221146756     A.U. after    9 cycles
 SCF Done:  E(RB3LYP) =  -505.221147379     A.U. after    7 cycles
 SCF Done:  E(RB3LYP) =  -505.221147558     A.U. after    7 cycles
 SCF Done:  E(RB3LYP) =  -505.221147557     A.U. after    6 cycles
 Optimization completed.
    -- Stationary point found.
 Normal termination of Gaussian 16 at Mon May 22 20:32:51 2023.

 ----------------------------------------------------------------------
 #N Geom=AllCheck Guess=TCheck SCRF=Check GenChk RB3LYP/6-31G(2df,p) Fr
 eq
 ----------------------------------------------------------------------

 Structure from the checkpoint file:  "CCC1CCC12CdCCqCOrC2.chk"
 -------------------
 Title Card Required
 -------------------
 Charge =  0 Multiplicity = 1

                         Standard orientation:
 ---------------------------------------------------------------------
 Center     Atomic      Atomic             Coordinates (Angstroms)
 Number     Number       Type             X           Y           Z
 ---------------------------------------------------------------------
      1          6           0        1.328275   -2.617107    0.002089
      2          6           0        2.300191   -1.443480    0.167476
      3          6           0        1.871142   -0.171861   -0.557184
      4          6           0        2.739043    1.104867   -0.405603
      5          6           0        1.442726    1.949802   -0.412564
      6          6           0        0.618473    0.655100   -0.082243
      7          6           0        0.258749    0.552519    1.378197
      8          6           0       -1.056877    0.531709    1.586737
      9          6           0       -1.845287    0.582654    0.297627
     10          6           0       -2.951004   -0.475041    0.210690
     11          8           0       -3.629997   -0.463947   -1.035816
     12          6           0       -0.742374    0.425303   -0.784158
     13          1           0        1.703143   -3.515094    0.503540
     14          1           0        1.180207   -2.864100   -1.055213
     15          1           0        0.349011   -2.382596    0.430699
     16          1           0        3.291328   -1.734252   -0.206667
     17          1           0        2.435289   -1.229444    1.235425
     18          1           0        1.737739   -0.394161   -1.624335
     19          1           0        3.483744    1.306183   -1.179694
     20          1           0        3.240212    1.134308    0.567737
     21          1           0        1.202336    2.323351   -1.412746
     22          1           0        1.369941    2.778882    0.296270
     23          1           0        1.007021    0.558995    2.164336
     24          1           0       -1.534576    0.509406    2.561293
     25          1           0       -2.334817    1.567863    0.211495
     26          1           0       -3.655074   -0.351944    1.050137
     27          1           0       -2.512578   -1.475563    0.298868
     28          1           0       -4.035744    0.402901   -1.140206
     29          1           0       -0.884326    1.101797   -1.631137
     30          1           0       -0.781207   -0.591743   -1.189652
 ---------------------------------------------------------------------

 SCF Done:  E(RB3LYP) =  -505.221147557     A.U. after    1 cycles

 The electronic state is 1-A.
 Alpha  occ. eigenvalues --  -19.13152 -10.22165 -10.18634 -10.18514 -10.17759
 Alpha  occ. eigenvalues --  -10.17700 -10.17554 -10.17396 -10.17388 -10.17300
 Alpha  occ. eigenvalues --  -10.17069 -10.16776  -1.01204  -0.86065  -0.81086
 Alpha  occ. eigenvalues --   -0.75519  -0.72155  -0.69335  -0.65557  -0.63525
 Alpha  occ. eigenvalues --   -0.59192  -0.57824  -0.55293  -0.50924  -0.49443
 Alpha  occ. eigenvalues --   -0.48192  -0.46715  -0.44654  -0.43439  -0.42292
 Alpha  occ. eigenvalues --   -0.41328  -0.39340  -0.39013  -0.37981  -0.36309
 Alpha  occ. eigenvalues --   -0.35257  -0.35107  -0.34174  -0.33410  -0.31975
 Alpha  occ. eigenvalues --   -0.31883  -0.30023  -0.29209  -0.28633  -0.26355
 Alpha  occ. eigenvalues --   -0.23192
 Alpha virt. eigenvalues --    0.01993   0.07560   0.08423   0.09953   0.10514
 Alpha virt. eigenvalues --    0.11798   0.12627   0.13733   0.14011   0.14283
 Alpha virt. eigenvalues --    0.15496   0.16758   0.17235   0.17887   0.18146

 Mulliken charges:
               1
     1  C   -0.385270
     2  C   -0.197630
     3  C    0.004322
     4  C   -0.251820
     5  C   -0.269484
     6  C    0.303878
     7  C   -0.120558
     8  C   -0.110358
     9  C   -0.064333
    10  C   -0.069960
    11  O   -0.417049
    12  C   -0.319113
    13  H    0.108801
    14  H    0.112476
    15  H    0.123922
    16  H    0.091354
    17  H    0.089122
    18  H    0.065400
    19  H    0.092588
    20  H    0.095210
    21  H    0.096519
    22  H    0.093685
    23  H    0.094916
    24  H    0.089753
    25  H    0.065398
    26  H    0.082200
    27  H    0.112884
    28  H    0.279734
    29  H    0.092490
    30  H    0.110921
 Sum of Mulliken charges =  -0.00000

 Dipole moment (field-independent basis, Debye):
    X=              0.1830    Y=              1.2296    Z=              0.7072  Tot=              1.4302
 Quadrupole moment (field-independent basis, Debye-Ang):
   XX=            -73.8745   YY=            -75.5752   ZZ=            -74.0786
   XY=             -5.9900   XZ=             -2.4750   YZ=             -2.0114

  Exact polarizability: 139.447   0.215 108.200  -3.869  -2.029 104.867
 Approx polarizability: 189.446  -1.067 152.919  -3.675  -1.216 163.186

                      1                      2                      3
                      A                      A                      A
 Frequencies --     31.3885                70.9753                97.2052
 Red. masses --      3.7782                 2.5357                 3.0349
 Frc consts  --      0.0022                 0.0075                 0.0169
 IR Inten    --      0.3628                 0.3108                 1.8761

                      4                      5                      6
                      A                      A                      A
 Frequencies --    113.2166               145.6509               191.7347
 Red. masses --      2.2637                 3.1110                 1.9285
 Frc consts  --      0.0171                 0.0389                 0.0418
 IR Inten    --      0.5091                 0.2767                 0.4620

                      7                      8                      9
                      A                      A                      A
 Frequencies --    194.5175               246.0736               270.7072
 Red. masses --      2.2258                 1.7291                 1.8802
 Frc consts  --      0.0496                 0.0617                 0.0812
 IR Inten    --      0.9099                 3.0369                 6.7865

                     10                     11                     12
                      A                      A                      A
 Frequencies --    291.8581               302.2357               352.0723
 Red. masses --      1.6362                 1.5256                 2.5917
 Frc consts  --      0.0821                 0.0821                 0.1893
 IR Inten    --     45.1594                54.3227                 6.9634

                     13                     14                     15
                      A                      A                      A
 Frequencies --    400.5578               442.4022               467.1908
 Red. masses --      2.3849                 3.7129                 2.5684
 Frc consts  --      0.2255                 0.4282                 0.3303
 IR Inten    --      0.4607                10.3393                 3.0515

                     16                     17                     18
                      A                      A                      A
 Frequencies --    480.0405               572.4532               638.7706
 Red. masses --      2.4212                 2.6738                 2.1458
 Frc consts  --      0.3287                 0.5162                 0.5159
 IR Inten    --     10.2800                 1.7329                 4.4557

                     19                     20                     21
                      A                      A                      A
 Frequencies --    716.0835               775.8186               785.8338
 Red. masses --      3.0594                 1.4541                 1.3652
 Frc consts  --      0.9243                 0.5157                 0.4967
 IR Inten    --      5.7907                 0.3812                19.7731

                     22                     23                     24
                      A                      A                      A
 Frequencies --    796.9546               812.2785               864.4117
 Red. masses --      1.7186                 2.5225                 2.7405
 Frc consts  --      0.6431                 0.9806                 1.2065
 IR Inten    --     10.5529                 2.1826                 0.9642

                     25                     26                     27
                      A                      A                      A
 Frequencies --    869.3583               899.8192               935.9372
 Red. masses --      1.6875                 1.8513                 1.7407
 Frc consts  --      0.7514                 0.8832                 0.8984
 IR Inten    --      1.5442                 0.9611                 6.2286

                     28                     29                     30
                      A                      A                      A
 Frequencies --    951.7550               967.4843               977.6052
 Red. masses --      2.2085                 1.5759                 1.7743
 Frc consts  --      1.1787                 0.8691                 0.9991
 IR Inten    --      1.2380                 6.5262                 5.1988

                     31                     32                     33
                      A                      A                      A
 Frequencies --    980.7747              1011.3873              1025.9467
 Red. masses --      1.3933                 2.5572                 2.0588
 Frc consts  --      0.7897                 1.5412                 1.2768
 IR Inten    --      3.3378                 2.3927                 2.7879

                     34                     35                     36
                      A                      A                      A
 Frequencies --   1045.7804              1071.6689              1075.2365
 Red. masses --      2.6561                 1.9316                 1.3458
 Frc consts  --      1.7115                 1.3071                 0.9167
 IR Inten    --     59.9668                36.2173                 0.9678

                     37                     38                     39
                      A                      A                      A
 Frequencies --   1105.2742              1112.3823              1131.7804
 Red. masses --      2.4896                 2.0166                 2.0202
 Frc consts  --      1.7919                 1.4702                 1.5246
 IR Inten    --     11.4537                 3.0795                 0.1029

                     40                     41                     42
                      A                      A                      A
 Frequencies --   1158.9260              1169.9588              1186.4613
 Red. masses --      1.7924                 1.5932                 1.5076
 Frc consts  --      1.4184                 1.2849                 1.2504
 IR Inten    --      1.1819                 5.7992                11.5896

                     43                     44                     45
                      A                      A                      A
 Frequencies --   1209.5629              1227.3665              1242.6829
 Red. masses --      2.1198                 1.4038                 1.5650
 Frc consts  --      1.8273                 1.2460                 1.4239
 IR Inten    --      1.7487                 1.4778                 2.0077

                     46                     47                     48
                      A                      A                      A
 Frequencies --   1258.0274              1267.2568              1282.7013
 Red. masses --      1.3806                 1.4871                 1.2479
 Frc consts  --      1.2874                 1.4071                 1.2097
 IR Inten    --      1.4797                 0.4912                 5.5790

                     49                     50                     51
                      A                      A                      A
 Frequencies --   1294.2826              1298.5759              1306.9764
 Red. masses --      1.5331                 1.3232                 1.3070
 Frc consts  --      1.5132                 1.3146                 1.3154
 IR Inten    --      0.9627                 1.6944                 0.9470

                     52                     53                     54
                      A                      A                      A
 Frequencies --   1345.4621              1349.4234              1383.9877
 Red. masses --      1.3999                 1.3403                 1.3254
 Frc consts  --      1.4931                 1.4380                 1.4957
 IR Inten    --      6.5546                 5.2072                 4.3318

                     55                     56                     57
                      A                      A                      A
 Frequencies --   1390.9028              1396.6032              1409.6613
 Red. masses --      1.6046                 1.6497                 1.2336
 Frc consts  --      1.8290                 1.8958                 1.4443
 IR Inten    --      0.1168                 0.3918                 3.5035

                     58                     59                     60
                      A                      A                      A
 Frequencies --   1415.4451              1480.5355              1482.2606
 Red. masses --      1.2542                 1.0827                 1.0813
 Frc consts  --      1.4805                 1.3983                 1.3997
 IR Inten    --     52.2464                 0.0612                 1.7404

                     61                     62                     63
                      A                      A                      A
 Frequencies --   1486.7757              1499.4986              1500.2531
 Red. masses --      1.0711                 1.0583                 1.1115
 Frc consts  --      1.3950                 1.4020                 1.4740
 IR Inten    --      3.1331                 2.2015                 1.7633

                     64                     65                     66
                      A                      A                      A
 Frequencies --   1505.4053              1510.7228              1679.9618
 Red. masses --      1.0839                 1.0699                 6.9736
 Frc consts  --      1.4473                 1.4387                11.5959
 IR Inten    --      2.4983                 2.3310                 0.6509

                     67                     68                     69
                      A                      A                      A
 Frequencies --   2949.1406              2968.8221              3010.8159
 Red. masses --      1.0811                 1.0698                 1.0795
 Frc consts  --      5.5399                 5.5557                 5.7653
 IR Inten    --     39.2581                78.2824                 7.4259

                     70                     71                     72
                      A                      A                      A
 Frequencies --   3012.2090              3030.9740              3043.4919
 Red. masses --      1.0647                 1.0370                 1.0734
 Frc consts  --      5.6918                 5.6132                 5.8579
 IR Inten    --     29.1188                22.1308                38.4154

                     73                     74                     75
                      A                      A                      A
 Frequencies --   3044.5633              3047.4023              3048.2438
 Red. masses --      1.0643                 1.0792                 1.0627
 Frc consts  --      5.8125                 5.9048                 5.8180
 IR Inten    --     13.1628                49.9843                23.0192

                     76                     77                     78
                      A                      A                      A
 Frequencies --   3065.0747              3089.5057              3092.3276
 Red. masses --      1.0927                 1.1023                 1.1047
 Frc consts  --      6.0485                 6.1993                 6.2240
 IR Inten    --     32.9099                40.6453                11.6522

                     79                     80                     81
                      A                      A                      A
 Frequencies --   3096.5007              3106.3134              3107.1521
 Red. masses --      1.1010                 1.1026                 1.1058
 Frc consts  --      6.2201                 6.2685                 6.2903
 IR Inten    --     31.9959                21.2888                71.3508

                     82                     83                     84
                      A                      A                      A
 Frequencies --   3167.6314              3193.0383              3809.8135
 Red. masses --      1.0835                 1.1031                 1.0660
 Frc consts  --      6.4052                 6.6261                 9.1162
 IR Inten    --      6.9231                22.3903                16.3001

 - Thermochemistry -
 -------------------
 Temperature   298.150 Kelvin.  Pressure   1.00000 Atm.
 Atom     1 has atomic number  6 and mass  12.00000

 Molecular mass:   166.13577 amu.
 Principal axes and moments of inertia in atomic units:
                           1         2         3
     Eigenvalues --  1291.676792982.082883453.62628
           X            0.99990  -0.01249  -0.00656
           Y            0.01233   0.99965  -0.02347
           Z            0.00685   0.02338   0.99970
 This molecule is an asymmetric top.
 Rotational symmetry number  1.
 Warning -- assumption of classical behavior for rotation
           may cause significant error
 Rotational temperatures (Kelvin)      0.06706     0.02904     0.02508
 Rotational constants (GHZ):           1.39721     0.60519     0.52256
 Zero-point vibrational energy     704871.5 (Joules/Mol)
                                  168.46834 (Kcal/Mol)
 Warning -- explicit consideration of  17 degrees of freedom as
           vibrations may cause significant error
 Vibrational temperatures:     45.16   102.12   139.86   162.89   209.56
          (Kelvin)            275.86   279.87   354.04   389.49   419.92
                              434.85   506.55   576.31   636.52   672.18
                              690.67   823.63   919.05  1030.28  1116.23
                             1130.64  1146.64  1168.69  1243.70  1250.81
                             1294.64  1346.60  1369.36  1391.99  1406.56
                             1411.12  1455.16  1476.11  1504.64  1541.89
                             1547.03  1590.24  1600.47  1628.38  1667.44
                             1683.31  1707.05  1740.29  1765.91  1787.94
                             1810.02  1823.30  1845.52  1862.18  1868.36
                             1880.45  1935.82  1941.52  1991.25  2001.20
                             2009.40  2028.19  2036.51  2130.16  2132.64
                             2139.14  2157.44  2158.53  2165.94  2173.59
                             2417.09  4243.16  4271.47  4331.89  4333.90
                             4360.90  4378.91  4380.45  4384.53  4385.74
                             4409.96  4445.11  4449.17  4455.17  4469.29
                             4470.50  4557.52  4594.07  5481.47

 Zero-point correction=                           0.268471 (Hartree/Particle)
 Thermal correction to Energy=                    0.281064
 Thermal correction to Enthalpy=                  0.282008
 Thermal correction to Gibbs Free Energy=         0.229380
 Sum of electronic and zero-point Energies=           -504.952676
 Sum of electronic and thermal Energies=              -504.940084
 Sum of electronic and thermal Enthalpies=            -504.939139
 Sum of electronic and thermal Free Energies=         -504.991768

                     E (Thermal)             CV                S
                      KCal/Mol        Cal/Mol-Kelvin    Cal/Mol-Kelvin
 Total                  176.370             48.469            110.766
 Electronic               0.000              0.000              0.000
 Translational            0.889              2.981             41.231
 Rotational               0.889              2.981             30.965
 Vibrational            174.593             42.508             38.570
 Vibration     1          0.594              1.983              5.740
 Vibration     2          0.598              1.968              4.126
 Vibration     3          0.603              1.951              3.510
 Vibration     4          0.607              1.939              3.213
 Vibration     5          0.617              1.907              2.728
 Vibration     6          0.634              1.851              2.211
 Vibration     7          0.635              1.848              2.184
 Vibration     8          0.661              1.769              1.759
 Vibration     9          0.674              1.727              1.592
 Vibration    10          0.687              1.689              1.463
 Vibration    11          0.694              1.669              1.404
 Vibration    12          0.729              1.571              1.157
 Vibration    13          0.766              1.469              0.961
 Vibration    14          0.802              1.378              0.819
 Vibration    15          0.824              1.323              0.745
 Vibration    16          0.836              1.294              0.710
 Vibration    17          0.929              1.091              0.500

 Optimization completed.
    -- Stationary point found.
 Normal termination of Gaussian 16 at Mon May 22 22:04:45 2023.
