 Gaussian 16, Revision A.03,
 Gaussian 16:  ES64L-G16RevA.03 25-Dec-2016

 -----------------------------
 # opt freq b3lyp/6-31g(2df,p)
 -----------------------------

 -------------------
 Title Card Required
 -------------------
 Symbolic Z-matrix:
 Charge =  0 Multiplicity = 1

 SCF Done:  E(RB3LYP) =  -273.891944403     A.U. after   12 cycles
 SCF Done:  E(RB3LYP) =  -273.912130027     A.U. after   10 cycles
 SCF Done:  E(RB3LYP) =  -273.914889115     A.U. after   10 cycles
 SCF Done:  E(RB3LYP) =  -273.915479970     A.U. after    9 cycles
 SCF Done:  E(RB3LYP) =  -273.915800960     A.U. after   10 cycles
 SCF Done:  E(RB3LYP) =  -273.915941582     A.U. after    9 cycles
 SCF Done:  E(RB3LYP) =  -273.916096725     A.U. after    9 cycles
 SCF Done:  E(RB3LYP) =  -273.916121208     A.U. after    8 cycles
 SCF Done:  E(RB3LYP) =  -273.916122808     A.U. after    6 cycles
 Optimization completed.
    -- Stationary point found.
 Normal termination of Gaussian 16 at Sun May 28 05:48:52 2023.

 ----------------------------------------------------------------------
 #N Geom=AllCheck Guess=TCheck SCRF=Check GenChk RB3LYP/6-31G(2df,p) Fr
 eq
 ----------------------------------------------------------------------

 Structure from the checkpoint file:  "CCC12CCqC1rC2.chk"
 -------------------
 Title Card Required
 -------------------
 Charge =  0 Multiplicity = 1

                         Standard orientation:
 ---------------------------------------------------------------------
 Center     Atomic      Atomic             Coordinates (Angstroms)
 Number     Number       Type             X           Y           Z
 ---------------------------------------------------------------------
      1          6           0        2.476320   -0.368691   -0.000133
      2          6           0        1.429523    0.751198    0.000368
      3          6           0        0.007575    0.245297    0.000206
      4          6           0       -1.295976    1.104841    0.001251
      5          6           0       -1.775831   -0.372429   -0.000117
      6          6           0       -0.689879   -0.652291   -1.075148
      7          6           0       -0.689591   -0.654829    1.073766
      8          1           0        3.491502    0.039603    0.001284
      9          1           0        2.373595   -1.005750   -0.884869
     10          1           0        2.372074   -1.008039    0.882777
     11          1           0        1.576830    1.394690   -0.877341
     12          1           0        1.577173    1.394338    0.878235
     13          1           0       -1.496543    1.689438   -0.901997
     14          1           0       -1.496073    1.687573    0.905802
     15          1           0       -2.806225   -0.729412   -0.000717
     16          1           0       -0.844862   -0.201949   -2.060542
     17          1           0       -0.338106   -1.684797   -1.159771
     18          1           0       -0.337989   -1.687590    1.155792
     19          1           0       -0.844228   -0.206680    2.060195
 ---------------------------------------------------------------------

 SCF Done:  E(RB3LYP) =  -273.916122808     A.U. after    1 cycles

 The electronic state is 1-A.
 Alpha  occ. eigenvalues --  -10.19799 -10.19369 -10.17828 -10.17826 -10.17782
 Alpha  occ. eigenvalues --  -10.17652 -10.17114  -0.90422  -0.76162  -0.65979
 Alpha  occ. eigenvalues --   -0.65830  -0.64165  -0.57288  -0.52814  -0.46485
 Alpha  occ. eigenvalues --   -0.44791  -0.44233  -0.43508  -0.39267  -0.36638
 Alpha  occ. eigenvalues --   -0.35178  -0.34407  -0.31231  -0.31202  -0.29849
 Alpha  occ. eigenvalues --   -0.29715  -0.28657
 Alpha virt. eigenvalues --    0.09122   0.11389   0.13077   0.14015   0.14584
 Alpha virt. eigenvalues --    0.15090   0.16288   0.16397   0.16686   0.17774
 Alpha virt. eigenvalues --    0.18308   0.18519   0.19219   0.20516   0.21236

 Mulliken charges:
               1
     1  C   -0.379232
     2  C   -0.309416
     3  C    0.372957
     4  C   -0.260481
     5  C   -0.040003
     6  C   -0.246300
     7  C   -0.246353
     8  H    0.110955
     9  H    0.117853
    10  H    0.117855
    11  H    0.095722
    12  H    0.095721
    13  H    0.083359
    14  H    0.083323
    15  H    0.067046
    16  H    0.083353
    17  H    0.085120
    18  H    0.085158
    19  H    0.083362
 Sum of Mulliken charges =  -0.00000

 Dipole moment (field-independent basis, Debye):
    X=              0.2110    Y=              0.0807    Z=             -0.0001  Tot=              0.2259
 Quadrupole moment (field-independent basis, Debye-Ang):
   XX=            -45.3580   YY=            -44.9083   ZZ=            -44.5747
   XY=              0.1363   XZ=              0.0007   YZ=             -0.0005

  Exact polarizability:  77.033  -1.188  69.315   0.000   0.001  68.604
 Approx polarizability: 100.629  -0.962 102.616  -0.000  -0.001 103.325

                      1                      2                      3
                      A                      A                      A
 Frequencies --     84.8734               184.1698               208.4812
 Red. masses --      2.0821                 2.7692                 1.1647
 Frc consts  --      0.0088                 0.0553                 0.0298
 IR Inten    --      0.0013                 0.0141                 0.0004

                      4                      5                      6
                      A                      A                      A
 Frequencies --    322.5323               394.0730               540.8559
 Red. masses --      1.8311                 2.9104                 1.7686
 Frc consts  --      0.1122                 0.2663                 0.3048
 IR Inten    --      0.0122                 0.1014                 0.2372

                      7                      8                      9
                      A                      A                      A
 Frequencies --    544.9855               616.6077               751.4852
 Red. masses --      1.8666                 2.7801                 1.7777
 Frc consts  --      0.3266                 0.6228                 0.5915
 IR Inten    --      0.2407                 0.4819                 0.8730

                     10                     11                     12
                      A                      A                      A
 Frequencies --    798.0250               811.2204               878.2431
 Red. masses --      2.6776                 1.5724                 3.3835
 Frc consts  --      1.0047                 0.6097                 1.5376
 IR Inten    --      0.1264                 0.9883                 0.1847

                     13                     14                     15
                      A                      A                      A
 Frequencies --    930.1095               937.6790               947.8494
 Red. masses --      1.8357                 1.8674                 2.4982
 Frc consts  --      0.9356                 0.9674                 1.3224
 IR Inten    --      0.8518                 1.2965                 0.2688

                     16                     17                     18
                      A                      A                      A
 Frequencies --    960.2097               996.5616              1003.9857
 Red. masses --      1.2558                 1.0092                 2.2330
 Frc consts  --      0.6822                 0.5905                 1.3262
 IR Inten    --      0.0070                 0.0001                 0.9769

                     19                     20                     21
                      A                      A                      A
 Frequencies --   1051.2389              1062.8502              1104.2010
 Red. masses --      1.1220                 1.5183                 1.6409
 Frc consts  --      0.7305                 1.0106                 1.1788
 IR Inten    --      0.2788                 0.7973                 0.8557

                     22                     23                     24
                      A                      A                      A
 Frequencies --   1105.5173              1145.4058              1146.1349
 Red. masses --      1.6019                 1.3699                 1.3577
 Frc consts  --      1.1535                 1.0589                 1.0508
 IR Inten    --      0.6884                 0.1923                 0.0855

                     25                     26                     27
                      A                      A                      A
 Frequencies --   1171.4532              1192.3582              1229.5977
 Red. masses --      1.7615                 1.7135                 1.8057
 Frc consts  --      1.4242                 1.4353                 1.6085
 IR Inten    --      1.4979                 0.1121                 5.2989

                     28                     29                     30
                      A                      A                      A
 Frequencies --   1238.1316              1240.2337              1307.5940
 Red. masses --      1.7026                 1.7694                 1.2525
 Frc consts  --      1.5378                 1.6035                 1.2617
 IR Inten    --      0.3124                 4.3829                 0.0572

                     31                     32                     33
                      A                      A                      A
 Frequencies --   1310.9559              1376.4151              1410.1176
 Red. masses --      2.1381                 2.0913                 1.2333
 Frc consts  --      2.1650                 2.3344                 1.4449
 IR Inten    --     34.6588                 0.6196                 2.0910

                     34                     35                     36
                      A                      A                      A
 Frequencies --   1480.1454              1497.1687              1497.3537
 Red. masses --      1.0692                 1.0970                 1.0950
 Frc consts  --      1.3801                 1.4487                 1.4465
 IR Inten    --      0.9165                 0.1743                 0.0920

                     37                     38                     39
                      A                      A                      A
 Frequencies --   1499.2131              1506.9792              1554.4781
 Red. masses --      1.0410                 1.0692                 1.1941
 Frc consts  --      1.3786                 1.4306                 1.7001
 IR Inten    --      5.3193                 3.0374                 0.4579

                     40                     41                     42
                      A                      A                      A
 Frequencies --   3011.5025              3033.4887              3035.3502
 Red. masses --      1.0593                 1.0378                 1.0508
 Frc consts  --      5.6601                 5.6265                 5.7042
 IR Inten    --     29.5883                 5.0351                87.2442

                     43                     44                     45
                      A                      A                      A
 Frequencies --   3036.3015              3042.7152              3044.7794
 Red. masses --      1.0536                 1.1015                 1.0538
 Frc consts  --      5.7228                 6.0086                 5.7558
 IR Inten    --     72.1935                11.3813                 2.4947

                     46                     47                     48
                      A                      A                      A
 Frequencies --   3097.1726              3102.2311              3103.0375
 Red. masses --      1.1119                 1.1027                 1.1061
 Frc consts  --      6.2840                 6.2526                 6.2748
 IR Inten    --      0.0069                68.8267                50.2254

                     49                     50                     51
                      A                      A                      A
 Frequencies --   3103.3483              3104.9173              3106.1187
 Red. masses --      1.1092                 1.0924                 1.1048
 Frc consts  --      6.2939                 6.2050                 6.2801
 IR Inten    --     31.8025                57.7173                64.0788

 - Thermochemistry -
 -------------------
 Temperature   298.150 Kelvin.  Pressure   1.00000 Atm.
 Atom     1 has atomic number  6 and mass  12.00000

 Molecular mass:    96.09390 amu.
 Principal axes and moments of inertia in atomic units:
                           1         2         3
     Eigenvalues --   348.07509 906.84476 942.52276
           X            0.99994  -0.01125  -0.00000
           Y            0.01125   0.99994   0.00001
           Z            0.00000  -0.00001   1.00000
 This molecule is an asymmetric top.
 Rotational symmetry number  1.
 Rotational temperatures (Kelvin)      0.24884     0.09551     0.09190
 Rotational constants (GHZ):           5.18492     1.99013     1.91480
 Zero-point vibrational energy     453746.3 (Joules/Mol)
                                  108.44796 (Kcal/Mol)
 Warning -- explicit consideration of   8 degrees of freedom as
           vibrations may cause significant error
 Vibrational temperatures:    122.11   264.98   299.96   464.05   566.98
          (Kelvin)            778.17   784.11   887.16  1081.22  1148.18
                             1167.17  1263.60  1338.22  1349.11  1363.74
                             1381.53  1433.83  1444.51  1512.50  1529.20
                             1588.70  1590.59  1647.98  1649.03  1685.46
                             1715.54  1769.12  1781.40  1784.42  1881.34
                             1886.17  1980.35  2028.84  2129.60  2154.09
                             2154.36  2157.03  2168.21  2236.55  4332.88
                             4364.51  4367.19  4368.56  4377.79  4380.76
                             4456.14  4463.42  4464.58  4465.03  4467.28
                             4469.01

 Zero-point correction=                           0.172823 (Hartree/Particle)
 Thermal correction to Energy=                    0.179658
 Thermal correction to Enthalpy=                  0.180602
 Thermal correction to Gibbs Free Energy=         0.142153
 Sum of electronic and zero-point Energies=           -273.743300
 Sum of electronic and thermal Energies=              -273.736465
 Sum of electronic and thermal Enthalpies=            -273.735520
 Sum of electronic and thermal Free Energies=         -273.773970

                     E (Thermal)             CV                S
                      KCal/Mol        Cal/Mol-Kelvin    Cal/Mol-Kelvin
 Total                  112.737             26.712             80.923
 Electronic               0.000              0.000              0.000
 Translational            0.889              2.981             39.599
 Rotational               0.889              2.981             27.189
 Vibrational            110.960             20.750             14.135
 Vibration     1          0.601              1.960              3.775
 Vibration     2          0.631              1.861              2.286
 Vibration     3          0.642              1.828              2.057
 Vibration     4          0.708              1.630              1.297
 Vibration     5          0.761              1.483              0.985
 Vibration     6          0.896              1.160              0.563
 Vibration     7          0.900              1.151              0.555
 Vibration     8          0.976              0.997              0.422

                           ! Non-Optimized Parameters !
 Normal termination of Gaussian 16 at Sun May 28 06:08:16 2023.
