 Gaussian 16, Revision A.03,
 Gaussian 16:  ES64L-G16RevA.03 25-Dec-2016

 -----------------------------
 # opt freq b3lyp/6-31g(2df,p)
 -----------------------------

 -------------------
 Title Card Required
 -------------------
 Symbolic Z-matrix:
 Charge =  0 Multiplicity = 1

 SCF Done:  E(RB3LYP) =  -314.520130941     A.U. after   12 cycles
 SCF Done:  E(RB3LYP) =  -314.522162311     A.U. after   10 cycles
 SCF Done:  E(RB3LYP) =  -314.522291547     A.U. after    8 cycles
 SCF Done:  E(RB3LYP) =  -314.522309230     A.U. after    8 cycles
 SCF Done:  E(RB3LYP) =  -314.522314286     A.U. after    7 cycles
 SCF Done:  E(RB3LYP) =  -314.522329735     A.U. after    8 cycles
 SCF Done:  E(RB3LYP) =  -314.522383391     A.U. after    9 cycles
 SCF Done:  E(RB3LYP) =  -314.522152288     A.U. after   10 cycles
 SCF Done:  E(RB3LYP) =  -314.522466312     A.U. after   10 cycles
 SCF Done:  E(RB3LYP) =  -314.520639844     A.U. after   11 cycles
 SCF Done:  E(RB3LYP) =  -314.524471201     A.U. after   11 cycles
 SCF Done:  E(RB3LYP) =  -314.524484270     A.U. after    9 cycles
 SCF Done:  E(RB3LYP) =  -314.524695594     A.U. after   10 cycles
 SCF Done:  E(RB3LYP) =  -314.524652275     A.U. after   10 cycles
 SCF Done:  E(RB3LYP) =  -314.524757804     A.U. after    9 cycles
 SCF Done:  E(RB3LYP) =  -314.524759476     A.U. after    7 cycles
 SCF Done:  E(RB3LYP) =  -314.524759986     A.U. after    6 cycles
 SCF Done:  E(RB3LYP) =  -314.524760615     A.U. after    6 cycles
 SCF Done:  E(RB3LYP) =  -314.524761967     A.U. after    8 cycles
 Optimization completed.
    -- Stationary point found.
 Normal termination of Gaussian 16 at Sun May 28 22:29:43 2023.

 ----------------------------------------------------------------------
 #N Geom=AllCheck Guess=TCheck SCRF=Check GenChk RB3LYP/6-31G(2df,p) Fr
 eq
 ----------------------------------------------------------------------

 Structure from the checkpoint file:  "CCC1CCCC1C.chk"
 -------------------
 Title Card Required
 -------------------
 Charge =  0 Multiplicity = 1

                         Standard orientation:
 ---------------------------------------------------------------------
 Center     Atomic      Atomic             Coordinates (Angstroms)
 Number     Number       Type             X           Y           Z
 ---------------------------------------------------------------------
      1          6           0        2.728469   -0.110363    0.282636
      2          6           0        1.506523   -1.026178    0.164670
      3          6           0        0.283065   -0.386291   -0.513644
      4          6           0       -0.903201   -1.387593   -0.636609
      5          6           0       -1.932885   -0.934143    0.412322
      6          6           0       -1.810338    0.592684    0.367202
      7          6           0       -0.290522    0.846111    0.264145
      8          6           0        0.055616    2.202295   -0.354539
      9          1           0        3.573233   -0.638574    0.736353
     10          1           0        2.521273    0.768362    0.901776
     11          1           0        3.050701    0.246939   -0.702167
     12          1           0        1.216243   -1.379527    1.164244
     13          1           0        1.788487   -1.923243   -0.401584
     14          1           0        0.592167   -0.062800   -1.515943
     15          1           0       -0.584433   -2.426052   -0.501428
     16          1           0       -1.349737   -1.320915   -1.635309
     17          1           0       -1.651302   -1.302744    1.406958
     18          1           0       -2.944096   -1.298115    0.207334
     19          1           0       -2.263137    1.097533    1.226583
     20          1           0       -2.310923    0.976574   -0.532433
     21          1           0        0.119197    0.819707    1.283651
     22          1           0       -0.327952    2.270335   -1.379623
     23          1           0        1.136614    2.368773   -0.394541
     24          1           0       -0.386697    3.024619    0.219032
 ---------------------------------------------------------------------

 SCF Done:  E(RB3LYP) =  -314.524761967     A.U. after    1 cycles

 The electronic state is 1-A.
 Alpha  occ. eigenvalues --  -10.17603 -10.17412 -10.17343 -10.17076 -10.16898
 Alpha  occ. eigenvalues --  -10.16886 -10.16870 -10.16693  -0.83431  -0.76106
 Alpha  occ. eigenvalues --   -0.73627  -0.68926  -0.64554  -0.59724  -0.56229
 Alpha  occ. eigenvalues --   -0.53673  -0.46549  -0.45839  -0.44083  -0.41629
 Alpha  occ. eigenvalues --   -0.40680  -0.39587  -0.38848  -0.36467  -0.35871
 Alpha  occ. eigenvalues --   -0.34150  -0.32480  -0.31529  -0.31459  -0.30779
 Alpha  occ. eigenvalues --   -0.29689  -0.29355
 Alpha virt. eigenvalues --    0.08491   0.10194   0.10360   0.11838   0.13571
 Alpha virt. eigenvalues --    0.15268   0.15647   0.16146   0.16985   0.17915
 Alpha virt. eigenvalues --    0.18159   0.18761   0.19085   0.20127   0.21180

 Mulliken charges:
               1
     1  C   -0.385741
     2  C   -0.178524
     3  C    0.045690
     4  C   -0.226171
     5  C   -0.202740
     6  C   -0.207339
     7  C    0.055766
     8  C   -0.411760
     9  H    0.108649
    10  H    0.118453
    11  H    0.112052
    12  H    0.090450
    13  H    0.090323
    14  H    0.058095
    15  H    0.087009
    16  H    0.091143
    17  H    0.093821
    18  H    0.088960
    19  H    0.087591
    20  H    0.089086
    21  H    0.064375
    22  H    0.109691
    23  H    0.113303
    24  H    0.107817
 Sum of Mulliken charges =   0.00000

 Dipole moment (field-independent basis, Debye):
    X=             -0.0035    Y=             -0.0522    Z=              0.0248  Tot=              0.0579
 Quadrupole moment (field-independent basis, Debye-Ang):
   XX=            -53.5097   YY=            -53.7053   ZZ=            -52.3944
   XY=             -0.3628   XZ=              0.1617   YZ=              0.1124

  Exact polarizability:  92.503   0.393  86.572  -0.168   0.195  74.680
 Approx polarizability: 117.878  -0.655 117.149   0.390  -0.064 117.084

                      1                      2                      3
                      A                      A                      A
 Frequencies --     54.2278               119.5466               195.8528
 Red. masses --      2.4479                 2.0075                 2.2652
 Frc consts  --      0.0042                 0.0169                 0.0512
 IR Inten    --      0.0016                 0.0102                 0.0110

                      4                      5                      6
                      A                      A                      A
 Frequencies --    217.0231               237.9314               255.1899
 Red. masses --      1.5991                 1.1680                 1.1905
 Frc consts  --      0.0444                 0.0390                 0.0457
 IR Inten    --      0.0081                 0.0026                 0.0694

                      7                      8                      9
                      A                      A                      A
 Frequencies --    310.1104               346.7752               398.9490
 Red. masses --      2.1742                 1.8870                 2.6422
 Frc consts  --      0.1232                 0.1337                 0.2478
 IR Inten    --      0.0827                 0.0590                 0.1122

                     10                     11                     12
                      A                      A                      A
 Frequencies --    479.6813               540.0386               618.0218
 Red. masses --      2.3757                 2.1275                 2.7847
 Frc consts  --      0.3221                 0.3656                 0.6267
 IR Inten    --      0.0302                 0.7865                 0.1670

                     13                     14                     15
                      A                      A                      A
 Frequencies --    742.1034               805.3287               851.1222
 Red. masses --      1.6394                 1.4391                 1.6398
 Frc consts  --      0.5320                 0.5499                 0.6999
 IR Inten    --      0.6742                 1.1588                 0.6026

                     16                     17                     18
                      A                      A                      A
 Frequencies --    852.8862               905.0097               919.5342
 Red. masses --      1.9010                 1.6417                 2.5076
 Frc consts  --      0.8147                 0.7922                 1.2492
 IR Inten    --      0.5102                 1.4208                 0.5816

                     19                     20                     21
                      A                      A                      A
 Frequencies --    940.5527               977.9383               992.6420
 Red. masses --      2.1096                 1.2406                 1.7282
 Frc consts  --      1.0996                 0.6991                 1.0033
 IR Inten    --      1.5437                 1.0875                 2.4017

                     22                     23                     24
                      A                      A                      A
 Frequencies --   1025.8401              1041.8563              1048.6739
 Red. masses --      2.4850                 1.3389                 1.3464
 Frc consts  --      1.5407                 0.8563                 0.8724
 IR Inten    --      0.7388                 0.7886                 0.1574

                     25                     26                     27
                      A                      A                      A
 Frequencies --   1069.7597              1088.7898              1154.6971
 Red. masses --      2.0619                 1.8695                 2.2144
 Frc consts  --      1.3902                 1.3058                 1.7396
 IR Inten    --      0.0344                 0.3438                 0.4757

                     28                     29                     30
                      A                      A                      A
 Frequencies --   1165.1348              1200.9154              1219.9384
 Red. masses --      2.1442                 1.5717                 1.7671
 Frc consts  --      1.7150                 1.3355                 1.5495
 IR Inten    --      1.5205                 0.1444                 0.0797

                     31                     32                     33
                      A                      A                      A
 Frequencies --   1259.9913              1280.1826              1294.7628
 Red. masses --      1.2877                 1.3275                 1.3111
 Frc consts  --      1.2044                 1.2818                 1.2950
 IR Inten    --      0.8626                 0.6030                 1.2859

                     34                     35                     36
                      A                      A                      A
 Frequencies --   1318.0171              1331.3363              1336.1988
 Red. masses --      1.2934                 1.2443                 1.2976
 Frc consts  --      1.3238                 1.2994                 1.3650
 IR Inten    --      0.5750                 5.7348                 1.8915

                     37                     38                     39
                      A                      A                      A
 Frequencies --   1347.3010              1356.8952              1381.2461
 Red. masses --      1.2952                 1.3541                 1.5265
 Frc consts  --      1.3852                 1.4689                 1.7159
 IR Inten    --      1.6836                 0.2554                 1.6210

                     40                     41                     42
                      A                      A                      A
 Frequencies --   1386.6057              1409.8879              1412.6530
 Red. masses --      1.4689                 1.2374                 1.2373
 Frc consts  --      1.6640                 1.4492                 1.4548
 IR Inten    --      0.4443                 2.0438                 2.8750

                     43                     44                     45
                      A                      A                      A
 Frequencies --   1485.0528              1488.6074              1492.3732
 Red. masses --      1.0668                 1.0872                 1.0798
 Frc consts  --      1.3861                 1.4195                 1.4169
 IR Inten    --      0.2372                 1.0329                 3.4993

                     46                     47                     48
                      A                      A                      A
 Frequencies --   1496.1864              1498.2618              1502.8239
 Red. masses --      1.0552                 1.0502                 1.0454
 Frc consts  --      1.3918                 1.3890                 1.3911
 IR Inten    --      2.2758                 5.5651                 0.2071

                     49                     50                     51
                      A                      A                      A
 Frequencies --   1508.2561              1509.8839              2995.7303
 Red. masses --      1.0833                 1.0828                 1.0817
 Frc consts  --      1.4519                 1.4544                 5.7196
 IR Inten    --      5.3153                 1.9666                10.2848

                     52                     53                     54
                      A                      A                      A
 Frequencies --   3002.7976              3011.3953              3014.8284
 Red. masses --      1.0685                 1.0725                 1.0671
 Frc consts  --      5.6762                 5.7302                 5.7147
 IR Inten    --      6.2444                25.2741                25.5972

                     55                     56                     57
                      A                      A                      A
 Frequencies --   3023.8527              3026.3980              3029.3913
 Red. masses --      1.0393                 1.0649                 1.0371
 Frc consts  --      5.5992                 5.7466                 5.6078
 IR Inten    --     36.3350                33.5621                27.1061

                     58                     59                     60
                      A                      A                      A
 Frequencies --   3034.5640              3044.4255              3074.3952
 Red. masses --      1.0701                 1.0924                 1.0991
 Frc consts  --      5.8059                 5.9655                 6.1210
 IR Inten    --     13.5411                52.8628                29.2350

                     61                     62                     63
                      A                      A                      A
 Frequencies --   3075.4332              3085.6200              3088.0351
 Red. masses --      1.0943                 1.1014                 1.1025
 Frc consts  --      6.0983                 6.1785                 6.1945
 IR Inten    --     35.3191                21.3468                71.4001

                     64                     65                     66
                      A                      A                      A
 Frequencies --   3094.6008              3098.1506              3102.8020
 Red. masses --      1.1009                 1.1008                 1.1004
 Frc consts  --      6.2115                 6.2253                 6.2415
 IR Inten    --     54.3960                60.1783                18.9845

 - Thermochemistry -
 -------------------
 Temperature   298.150 Kelvin.  Pressure   1.00000 Atm.
 Atom     1 has atomic number  6 and mass  12.00000

 Molecular mass:   112.12520 amu.
 Principal axes and moments of inertia in atomic units:
                           1         2         3
     Eigenvalues --   683.769331084.134351542.29066
           X            0.99998   0.00523   0.00270
           Y           -0.00521   0.99996  -0.00725
           Z           -0.00273   0.00724   0.99997
 This molecule is an asymmetric top.
 Rotational symmetry number  1.
 Warning -- assumption of classical behavior for rotation
           may cause significant error
 Rotational temperatures (Kelvin)      0.12667     0.07989     0.05616
 Rotational constants (GHZ):           2.63940     1.66468     1.17017
 Zero-point vibrational energy     590207.7 (Joules/Mol)
                                  141.06301 (Kcal/Mol)
 Warning -- explicit consideration of  12 degrees of freedom as
           vibrations may cause significant error
 Vibrational temperatures:     78.02   172.00   281.79   312.25   342.33
          (Kelvin)            367.16   446.18   498.93   574.00   690.15
                              777.00   889.20  1067.72  1158.69  1224.57
                             1227.11  1302.11  1323.00  1353.25  1407.04
                             1428.19  1475.96  1499.00  1508.81  1539.15
                             1566.53  1661.35  1676.37  1727.85  1755.22
                             1812.85  1841.90  1862.87  1896.33  1915.50
                             1922.49  1938.47  1952.27  1987.31  1995.02
                             2028.51  2032.49  2136.66  2141.77  2147.19
                             2152.68  2155.66  2162.23  2170.04  2172.39
                             4310.19  4320.36  4332.73  4337.67  4350.65
                             4354.31  4358.62  4366.06  4380.25  4423.37
                             4424.86  4439.52  4442.99  4452.44  4457.55
                             4464.24

 Zero-point correction=                           0.224798 (Hartree/Particle)
 Thermal correction to Energy=                    0.233814
 Thermal correction to Enthalpy=                  0.234758
 Thermal correction to Gibbs Free Energy=         0.191267
 Sum of electronic and zero-point Energies=           -314.299964
 Sum of electronic and thermal Energies=              -314.290948
 Sum of electronic and thermal Enthalpies=            -314.290004
 Sum of electronic and thermal Free Energies=         -314.333495

                     E (Thermal)             CV                S
                      KCal/Mol        Cal/Mol-Kelvin    Cal/Mol-Kelvin
 Total                  146.721             34.592             91.535
 Electronic               0.000              0.000              0.000
 Translational            0.889              2.981             40.059
 Rotational               0.889              2.981             28.527
 Vibrational            144.943             28.631             22.949
 Vibration     1          0.596              1.976              4.657
 Vibration     2          0.609              1.933              3.108
 Vibration     3          0.636              1.846              2.172
 Vibration     4          0.646              1.815              1.984
 Vibration     5          0.656              1.783              1.818
 Vibration     6          0.666              1.754              1.694
 Vibration     7          0.699              1.654              1.362
 Vibration     8          0.725              1.582              1.181
 Vibration     9          0.765              1.472              0.967
 Vibration    10          0.836              1.295              0.711
 Vibration    11          0.895              1.162              0.565
 Vibration    12          0.978              0.994              0.420

 Optimization completed.
    -- Stationary point found.
 Normal termination of Gaussian 16 at Sun May 28 23:03:10 2023.
