 Gaussian 16, Revision A.03,
 Gaussian 16:  ES64L-G16RevA.03 25-Dec-2016

 -----------------------------
 # opt freq b3lyp/6-31g(2df,p)
 -----------------------------

 -------------------
 Title Card Required
 -------------------
 Symbolic Z-matrix:
 Charge =  0 Multiplicity = 1

 SCF Done:  E(RB3LYP) =  -940.493807065     A.U. after   13 cycles
 SCF Done:  E(RB3LYP) =  -940.516542167     A.U. after   12 cycles
 SCF Done:  E(RB3LYP) =  -940.527266616     A.U. after   12 cycles
 SCF Done:  E(RB3LYP) =  -940.535107513     A.U. after   12 cycles
 SCF Done:  E(RB3LYP) =  -940.539121382     A.U. after   12 cycles
 SCF Done:  E(RB3LYP) =  -940.543347560     A.U. after   11 cycles
 SCF Done:  E(RB3LYP) =  -940.546420656     A.U. after   12 cycles
 SCF Done:  E(RB3LYP) =  -940.547373231     A.U. after   11 cycles
 SCF Done:  E(RB3LYP) =  -940.547705690     A.U. after   12 cycles
 SCF Done:  E(RB3LYP) =  -940.547937370     A.U. after   11 cycles
 SCF Done:  E(RB3LYP) =  -940.571146357     A.U. after   12 cycles
 SCF Done:  E(RB3LYP) =  -940.571361397     A.U. after   12 cycles
 SCF Done:  E(RB3LYP) =  -940.571417297     A.U. after    9 cycles
 SCF Done:  E(RB3LYP) =  -940.571440054     A.U. after    9 cycles
 SCF Done:  E(RB3LYP) =  -940.571446925     A.U. after    9 cycles
 SCF Done:  E(RB3LYP) =  -940.571450705     A.U. after    8 cycles
 SCF Done:  E(RB3LYP) =  -940.571452368     A.U. after    7 cycles
 SCF Done:  E(RB3LYP) =  -940.571453296     A.U. after    8 cycles
 SCF Done:  E(RB3LYP) =  -940.571453393     A.U. after    7 cycles
 Optimization completed.
    -- Stationary point found.
 Normal termination of Gaussian 16 at Tue May 23 17:53:28 2023.

 ----------------------------------------------------------------------
 #N Geom=AllCheck Guess=TCheck SCRF=Check GenChk RB3LYP/6-31G(2df,p) Fr
 eq
 ----------------------------------------------------------------------

 Structure from the checkpoint file:  "CCC1qCSrCCOCCqCrC1dO.chk"
 -------------------
 Title Card Required
 -------------------
 Charge =  0 Multiplicity = 1

                         Standard orientation:
 ---------------------------------------------------------------------
 Center     Atomic      Atomic             Coordinates (Angstroms)
 Number     Number       Type             X           Y           Z
 ---------------------------------------------------------------------
      1          6           0        0.168208    2.242059    1.837493
      2          6           0        1.106077    1.592943    0.812817
      3          6           0        0.588679    0.301101    0.111181
      4          6           0        1.572283   -0.072508   -1.035494
      5         16           0        3.320523   -0.402786   -0.583734
      6          6           0        0.454555   -0.847987    1.131959
      7          6           0       -0.202261   -2.150938    0.653328
      8          8           0       -1.616387   -2.130866    0.691981
      9          6           0       -2.237499   -1.328396   -0.281816
     10          6           0       -2.078952    0.202004   -0.065029
     11          6           0       -3.235768    0.957404   -0.726487
     12          6           0       -0.733791    0.691747   -0.600725
     13          8           0       -0.687693    1.401503   -1.582923
     14          1           0        0.650788    3.121732    2.273943
     15          1           0       -0.083495    1.570053    2.663649
     16          1           0       -0.767490    2.581415    1.381020
     17          1           0        2.058989    1.346996    1.292187
     18          1           0        1.326399    2.324661    0.027842
     19          1           0        1.618453    0.764267   -1.732899
     20          1           0        1.208494   -0.929463   -1.605358
     21          1           0        3.165676   -1.664899   -0.143490
     22          1           0       -0.095933   -0.519153    2.018440
     23          1           0        1.466376   -1.084602    1.480865
     24          1           0        0.086487   -2.962590    1.328126
     25          1           0        0.143978   -2.428739   -0.356138
     26          1           0       -3.303179   -1.568306   -0.220136
     27          1           0       -1.896170   -1.601150   -1.295172
     28          1           0       -2.102564    0.356190    1.020421
     29          1           0       -3.277723    0.748840   -1.799029
     30          1           0       -3.116386    2.037384   -0.615178
     31          1           0       -4.187618    0.662269   -0.275178
 ---------------------------------------------------------------------

 SCF Done:  E(RB3LYP) =  -940.571453393     A.U. after    1 cycles

 The electronic state is 1-A.
 Alpha  occ. eigenvalues --  -88.87300 -19.14832 -19.13555 -10.27053 -10.24129
 Alpha  occ. eigenvalues --  -10.23792 -10.21862 -10.21202 -10.20042 -10.19040
 Alpha  occ. eigenvalues --  -10.18875 -10.18233 -10.18029  -7.93866  -5.90313
 Alpha  occ. eigenvalues --   -5.89979  -5.89390  -1.04826  -1.04223  -0.84071
 Alpha  occ. eigenvalues --   -0.80403  -0.76797  -0.75837  -0.71193  -0.67624
 Alpha  occ. eigenvalues --   -0.65035  -0.63360  -0.61303  -0.57238  -0.51619
 Alpha  occ. eigenvalues --   -0.50216  -0.49860  -0.48677  -0.46787  -0.45322
 Alpha  occ. eigenvalues --   -0.44372  -0.43548  -0.42493  -0.41978  -0.40932
 Alpha  occ. eigenvalues --   -0.39901  -0.38105  -0.37696  -0.37341  -0.36721
 Alpha  occ. eigenvalues --   -0.36371  -0.35247  -0.34981  -0.33530  -0.32956
 Alpha  occ. eigenvalues --   -0.32386  -0.31245  -0.26252  -0.24773  -0.23882
 Alpha virt. eigenvalues --   -0.02557   0.02740   0.06020   0.07022   0.08497
 Alpha virt. eigenvalues --    0.09884   0.11200   0.12251   0.13293   0.13585
 Alpha virt. eigenvalues --    0.14221   0.14348   0.15084   0.15617   0.16363

 Mulliken charges:
               1
     1  C   -0.415495
     2  C   -0.190417
     3  C    0.128842
     4  C   -0.228773
     5  S   -0.282109
     6  C   -0.266586
     7  C   -0.098437
     8  O   -0.235085
     9  C   -0.090064
    10  C   -0.107958
    11  C   -0.402026
    12  C    0.368102
    13  O   -0.336758
    14  H    0.122574
    15  H    0.120174
    16  H    0.125237
    17  H    0.124535
    18  H    0.113001
    19  H    0.161697
    20  H    0.130835
    21  H    0.152669
    22  H    0.112976
    23  H    0.109608
    24  H    0.112018
    25  H    0.088021
    26  H    0.115274
    27  H    0.095372
    28  H    0.100206
    29  H    0.132745
    30  H    0.128780
    31  H    0.111042
 Sum of Mulliken charges =  -0.00000

 Dipole moment (field-independent basis, Debye):
    X=             -0.9953    Y=             -0.8913    Z=              1.4366  Tot=              1.9618
 Quadrupole moment (field-independent basis, Debye-Ang):
   XX=            -92.2249   YY=            -88.1451   ZZ=            -90.6131
   XY=             -2.7434   XZ=              2.7343   YZ=              4.3874

  Exact polarizability: 148.559  -4.767 123.921   1.596  -1.355 111.905
 Approx polarizability: 198.626  -4.348 185.570   1.815 -12.543 183.694

                      1                      2                      3
                      A                      A                      A
 Frequencies --     30.8224                75.5792                83.9104
 Red. masses --      4.6185                 4.1023                 2.4980
 Frc consts  --      0.0026                 0.0138                 0.0104
 IR Inten    --      0.3959                 1.7731                 0.0269

                      4                      5                      6
                      A                      A                      A
 Frequencies --    111.5272               148.2630               171.9069
 Red. masses --      2.6288                 3.9493                 3.0346
 Frc consts  --      0.0193                 0.0511                 0.0528
 IR Inten    --      1.0834                 4.5039                 3.3311

                      7                      8                      9
                      A                      A                      A
 Frequencies --    197.5048               201.3401               222.9113
 Red. masses --      1.5652                 1.1838                 1.2418
 Frc consts  --      0.0360                 0.0283                 0.0364
 IR Inten    --      5.5086                 0.4899                 5.5116

                     10                     11                     12
                      A                      A                      A
 Frequencies --    238.5429               272.3437               275.4600
 Red. masses --      4.8849                 1.5338                 3.6710
 Frc consts  --      0.1638                 0.0670                 0.1641
 IR Inten    --      0.1185                 1.4258                 0.4135

                     13                     14                     15
                      A                      A                      A
 Frequencies --    293.9734               311.4198               335.9485
 Red. masses --      1.9878                 3.1667                 2.8691
 Frc consts  --      0.1012                 0.1809                 0.1908
 IR Inten    --      0.1772                 7.5785                 1.4215

                     16                     17                     18
                      A                      A                      A
 Frequencies --    353.0540               369.4945               392.3840
 Red. masses --      3.3172                 2.6982                 1.9656
 Frc consts  --      0.2436                 0.2170                 0.1783
 IR Inten    --      0.3963                 7.5229                 1.8893

                     19                     20                     21
                      A                      A                      A
 Frequencies --    472.0353               501.0094               538.9128
 Red. masses --      3.7100                 3.8659                 2.1732
 Frc consts  --      0.4870                 0.5717                 0.3719
 IR Inten    --      1.5967                 3.2195                 5.2136

                     22                     23                     24
                      A                      A                      A
 Frequencies --    602.8606               688.1629               717.0713
 Red. masses --      3.6582                 4.6954                 2.8895
 Frc consts  --      0.7833                 1.3101                 0.8754
 IR Inten    --      6.9979                 8.4203                 3.9439

                     25                     26                     27
                      A                      A                      A
 Frequencies --    743.6927               749.0796               785.3864
 Red. masses --      2.0587                 1.5409                 1.5677
 Frc consts  --      0.6709                 0.5094                 0.5697
 IR Inten    --      2.8826                 1.5554                 7.6591

                     28                     29                     30
                      A                      A                      A
 Frequencies --    830.5178               871.5690               884.3791
 Red. masses --      2.2877                 2.3889                 1.8783
 Frc consts  --      0.9297                 1.0692                 0.8656
 IR Inten    --      1.5457                 5.0368                 9.1259

                     31                     32                     33
                      A                      A                      A
 Frequencies --    927.0765               947.2212               981.5429
 Red. masses --      2.0620                 1.6977                 2.0927
 Frc consts  --      1.0442                 0.8974                 1.1879
 IR Inten    --      4.4204                 9.2036                47.7503

                     34                     35                     36
                      A                      A                      A
 Frequencies --    984.0145              1009.3161              1022.3789
 Red. masses --      2.1291                 1.8492                 2.3763
 Frc consts  --      1.2146                 1.1099                 1.4634
 IR Inten    --      9.2691                 3.1914                22.6853

                     37                     38                     39
                      A                      A                      A
 Frequencies --   1058.2809              1060.7111              1095.4302
 Red. masses --      1.7971                 2.8154                 1.9382
 Frc consts  --      1.1858                 1.8663                 1.3703
 IR Inten    --      5.2797                10.2303                12.8741

                     40                     41                     42
                      A                      A                      A
 Frequencies --   1107.0947              1117.1373              1128.2797
 Red. masses --      2.0245                 2.2468                 2.0935
 Frc consts  --      1.4620                 1.6521                 1.5702
 IR Inten    --      9.0993                 1.1477                 3.6498

                     43                     44                     45
                      A                      A                      A
 Frequencies --   1150.6491              1174.3545              1197.1500
 Red. masses --      2.7591                 2.7462                 2.0910
 Frc consts  --      2.1523                 2.2314                 1.7656
 IR Inten    --     13.1732               119.5012                 8.0506

                     46                     47                     48
                      A                      A                      A
 Frequencies --   1243.2301              1261.8949              1269.7562
 Red. masses --      1.3626                 1.3598                 1.3007
 Frc consts  --      1.2409                 1.2758                 1.2355
 IR Inten    --      2.8899                19.0945                 3.2822

                     49                     50                     51
                      A                      A                      A
 Frequencies --   1290.1276              1304.5484              1331.8333
 Red. masses --      1.2825                 1.2592                 1.3048
 Frc consts  --      1.2577                 1.2626                 1.3637
 IR Inten    --     14.8554                35.0693                 8.6810

                     52                     53                     54
                      A                      A                      A
 Frequencies --   1341.8770              1360.0479              1365.8249
 Red. masses --      1.3097                 1.3695                 1.3466
 Frc consts  --      1.3894                 1.4925                 1.4801
 IR Inten    --      5.7454                 5.1933                 3.2907

                     55                     56                     57
                      A                      A                      A
 Frequencies --   1383.7641              1401.1562              1411.0698
 Red. masses --      1.4238                 1.3126                 1.2265
 Frc consts  --      1.6063                 1.5183                 1.4389
 IR Inten    --      2.5376                 6.3316                 7.7944

                     58                     59                     60
                      A                      A                      A
 Frequencies --   1417.0555              1424.6237              1466.5057
 Red. masses --      1.2281                 1.2778                 1.0861
 Frc consts  --      1.4530                 1.5279                 1.3763
 IR Inten    --      5.4844                 6.9135                 5.7632

                     61                     62                     63
                      A                      A                      A
 Frequencies --   1477.8579              1483.9970              1486.9541
 Red. masses --      1.0791                 1.0751                 1.0601
 Frc consts  --      1.3887                 1.3950                 1.3809
 IR Inten    --      7.9188                 6.1614                 2.3710

                     64                     65                     66
                      A                      A                      A
 Frequencies --   1490.2755              1495.0694              1502.7306
 Red. masses --      1.0509                 1.0661                 1.0890
 Frc consts  --      1.3752                 1.4040                 1.4489
 IR Inten    --      3.9868                 6.0372                11.5198

                     67                     68                     69
                      A                      A                      A
 Frequencies --   1503.3170              1505.3140              1775.0333
 Red. masses --      1.0611                 1.0446                11.9005
 Frc consts  --      1.4129                 1.3946                22.0916
 IR Inten    --      1.7757                 5.6607               100.6809

                     70                     71                     72
                      A                      A                      A
 Frequencies --   2676.8129              2960.4008              2970.2911
 Red. masses --      1.0387                 1.0702                 1.0699
 Frc consts  --      4.3850                 5.5259                 5.5613
 IR Inten    --      5.6039                27.8582                58.4006

                     73                     74                     75
                      A                      A                      A
 Frequencies --   3036.5024              3040.0811              3042.3779
 Red. masses --      1.0410                 1.0622                 1.0645
 Frc consts  --      5.6552                 5.7837                 5.8054
 IR Inten    --      9.3314                11.6735                 9.2442

                     76                     77                     78
                      A                      A                      A
 Frequencies --   3044.9437              3047.2552              3076.7533
 Red. masses --      1.0736                 1.0364                 1.0906
 Frc consts  --      5.8649                 5.6702                 6.0825
 IR Inten    --     27.0661                16.7166                36.3144

                     79                     80                     81
                      A                      A                      A
 Frequencies --   3079.6427              3080.4601              3084.2946
 Red. masses --      1.0926                 1.1010                 1.0636
 Frc consts  --      6.1053                 6.1555                 5.9611
 IR Inten    --     22.7518                 4.4433                 8.9864

                     82                     83                     84
                      A                      A                      A
 Frequencies --   3087.7630              3104.6561              3109.6994
 Red. masses --      1.0974                 1.1002                 1.1017
 Frc consts  --      6.1643                 6.2482                 6.2771
 IR Inten    --     21.9941                30.5756                31.9913

                     85                     86                     87
                      A                      A                      A
 Frequencies --   3119.2700              3127.2623              3141.0842
 Red. masses --      1.1017                 1.1011                 1.1018
 Frc consts  --      6.3158                 6.3447                 6.4047
 IR Inten    --     20.7404                16.0354                 3.8838

 - Thermochemistry -
 -------------------
 Temperature   298.150 Kelvin.  Pressure   1.00000 Atm.
 Atom     1 has atomic number  6 and mass  12.00000

 Molecular mass:   202.10275 amu.
 Principal axes and moments of inertia in atomic units:
                           1         2         3
     Eigenvalues --  1960.768203450.218764071.27355
           X            0.99977  -0.01513   0.01529
           Y            0.01411   0.99781   0.06460
           Z           -0.01624  -0.06437   0.99779
 This molecule is an asymmetric top.
 Rotational symmetry number  1.
 Warning -- assumption of classical behavior for rotation
           may cause significant error
 Rotational temperatures (Kelvin)      0.04417     0.02510     0.02127
 Rotational constants (GHZ):           0.92043     0.52308     0.44329
 Zero-point vibrational energy     701341.3 (Joules/Mol)
                                  167.62460 (Kcal/Mol)
 Warning -- explicit consideration of  22 degrees of freedom as
           vibrations may cause significant error
 Vibrational temperatures:     44.35   108.74   120.73   160.46   213.32
          (Kelvin)            247.34   284.17   289.68   320.72   343.21
                              391.84   396.33   422.96   448.06   483.35
                              507.97   531.62   564.55   679.15   720.84
                              775.38   867.38   990.11  1031.71  1070.01
                             1077.76  1130.00  1194.93  1253.99  1272.42
                             1333.86  1362.84  1412.22  1415.78  1452.18
                             1470.98  1522.63  1526.13  1576.08  1592.86
                             1607.31  1623.34  1655.53  1689.63  1722.43
                             1788.73  1815.59  1826.90  1856.21  1876.95
                             1916.21  1930.66  1956.81  1965.12  1990.93
                             2015.95  2030.21  2038.83  2049.72  2109.97
                             2126.31  2135.14  2139.40  2144.17  2151.07
                             2162.09  2162.94  2165.81  2553.88  3851.34
                             4259.36  4273.59  4368.85  4374.00  4377.30
                             4380.99  4384.32  4426.76  4430.92  4432.10
                             4437.61  4442.60  4466.91  4474.16  4487.93
                             4499.43  4519.32

 Zero-point correction=                           0.267127 (Hartree/Particle)
 Thermal correction to Energy=                    0.281777
 Thermal correction to Enthalpy=                  0.282721
 Thermal correction to Gibbs Free Energy=         0.225861
 Sum of electronic and zero-point Energies=           -940.304327
 Sum of electronic and thermal Energies=              -940.289676
 Sum of electronic and thermal Enthalpies=            -940.288732
 Sum of electronic and thermal Free Energies=         -940.345592

                     E (Thermal)             CV                S
                      KCal/Mol        Cal/Mol-Kelvin    Cal/Mol-Kelvin
 Total                  176.818             55.413            119.672
 Electronic               0.000              0.000              0.000
 Translational            0.889              2.981             41.815
 Rotational               0.889              2.981             31.688
 Vibrational            175.040             49.451             46.168
 Vibration     1          0.594              1.984              5.776
 Vibration     2          0.599              1.965              4.003
 Vibration     3          0.601              1.960              3.797
 Vibration     4          0.607              1.940              3.242
 Vibration     5          0.618              1.905              2.694
 Vibration     6          0.626              1.877              2.415
 Vibration     7          0.637              1.843              2.156
 Vibration     8          0.638              1.838              2.121
 Vibration     9          0.649              1.806              1.935
 Vibration    10          0.657              1.782              1.814
 Vibration    11          0.675              1.724              1.581
 Vibration    12          0.677              1.719              1.562
 Vibration    13          0.689              1.685              1.451
 Vibration    14          0.700              1.652              1.355
 Vibration    15          0.717              1.604              1.231
 Vibration    16          0.729              1.569              1.153
 Vibration    17          0.742              1.535              1.082
 Vibration    18          0.760              1.486              0.991
 Vibration    19          0.829              1.312              0.732
 Vibration    20          0.856              1.248              0.656
 Vibration    21          0.894              1.164              0.568
 Vibration    22          0.961              1.026              0.445

 Optimization completed.
    -- Stationary point found.
 Normal termination of Gaussian 16 at Tue May 23 19:56:59 2023.
