 Gaussian 16, Revision A.03,
 Gaussian 16:  ES64L-G16RevA.03 25-Dec-2016

 -----------------------------
 # opt freq b3lyp/6-31g(2df,p)
 -----------------------------

 -------------------
 Title Card Required
 -------------------
 Symbolic Z-matrix:
 Charge =  0 Multiplicity = 1

 SCF Done:  E(RB3LYP) =  -353.826164173     A.U. after   11 cycles
 SCF Done:  E(RB3LYP) =  -353.828707364     A.U. after   10 cycles
 SCF Done:  E(RB3LYP) =  -353.829749680     A.U. after   10 cycles
 SCF Done:  E(RB3LYP) =  -353.795851784     A.U. after   11 cycles
 SCF Done:  E(RB3LYP) =  -353.832795961     A.U. after   10 cycles
 SCF Done:  E(RB3LYP) =  -353.833614527     A.U. after   10 cycles
 SCF Done:  E(RB3LYP) =  -353.834120955     A.U. after   10 cycles
 SCF Done:  E(RB3LYP) =  -353.835119414     A.U. after   10 cycles
 SCF Done:  E(RB3LYP) =  -353.836143223     A.U. after   10 cycles
 SCF Done:  E(RB3LYP) =  -353.836750254     A.U. after   10 cycles
 SCF Done:  E(RB3LYP) =  -353.837901391     A.U. after   10 cycles
 SCF Done:  E(RB3LYP) =  -353.837982787     A.U. after    9 cycles
 SCF Done:  E(RB3LYP) =  -353.838000584     A.U. after    8 cycles
 SCF Done:  E(RB3LYP) =  -353.838006005     A.U. after    7 cycles
 SCF Done:  E(RB3LYP) =  -353.838006396     A.U. after    6 cycles
 Optimization completed.
    -- Stationary point found.
 Normal termination of Gaussian 16 at Sun May 28 16:45:41 2023.

 ----------------------------------------------------------------------
 #N Geom=AllCheck Guess=TCheck SCRF=Check GenChk RB3LYP/6-31G(2df,p) Fr
 eq
 ----------------------------------------------------------------------

 Structure from the checkpoint file:  "CCC1CCCCCC1.chk"
 -------------------
 Title Card Required
 -------------------
 Charge =  0 Multiplicity = 1

                         Standard orientation:
 ---------------------------------------------------------------------
 Center     Atomic      Atomic             Coordinates (Angstroms)
 Number     Number       Type             X           Y           Z
 ---------------------------------------------------------------------
      1          6           0        3.279645   -0.394718   -0.348009
      2          6           0        2.130358    0.614627   -0.253554
      3          6           0        0.914382    0.142963    0.570398
      4          6           0       -0.115472    1.287213    0.730738
      5          6           0       -1.147709    1.464042   -0.399921
      6          6           0       -2.402501    0.593430   -0.224816
      7          6           0       -2.201592   -0.917013   -0.404433
      8          6           0       -1.088392   -1.558098    0.441484
      9          6           0        0.334411   -1.170222   -0.002640
     10          1           0        4.136949    0.038381   -0.873238
     11          1           0        2.988809   -1.300745   -0.887889
     12          1           0        3.620982   -0.697851    0.648779
     13          1           0        1.797575    0.882185   -1.266336
     14          1           0        2.511978    1.541537    0.193353
     15          1           0        1.284871   -0.079942    1.582058
     16          1           0        0.445273    2.221018    0.858897
     17          1           0       -0.667002    1.149333    1.669231
     18          1           0       -0.687712    1.274237   -1.378872
     19          1           0       -1.465703    2.513167   -0.419751
     20          1           0       -3.172698    0.924807   -0.932647
     21          1           0       -2.812182    0.784774    0.777235
     22          1           0       -1.988616   -1.127950   -1.462078
     23          1           0       -3.152227   -1.418806   -0.184160
     24          1           0       -1.190355   -2.646675    0.356888
     25          1           0       -1.235686   -1.326675    1.505067
     26          1           0        0.346393   -1.121265   -1.101002
     27          1           0        1.020566   -1.982872    0.258986
 ---------------------------------------------------------------------

 SCF Done:  E(RB3LYP) =  -353.838006396     A.U. after    1 cycles

 The electronic state is 1-A.
 Alpha  occ. eigenvalues --  -10.17639 -10.17198 -10.17197 -10.17157 -10.17145
 Alpha  occ. eigenvalues --  -10.17115 -10.16948 -10.16887 -10.16773  -0.82118
 Alpha  occ. eigenvalues --   -0.77683  -0.74987  -0.72161  -0.64648  -0.63826
 Alpha  occ. eigenvalues --   -0.59230  -0.55450  -0.52715  -0.47263  -0.45208
 Alpha  occ. eigenvalues --   -0.44197  -0.42386  -0.41837  -0.40578  -0.39264
 Alpha  occ. eigenvalues --   -0.38165  -0.36537  -0.35543  -0.35161  -0.33418
 Alpha  occ. eigenvalues --   -0.31843  -0.31332  -0.30719  -0.29493  -0.29385
 Alpha  occ. eigenvalues --   -0.29071
 Alpha virt. eigenvalues --    0.07987   0.09775   0.10527   0.12378   0.12862
 Alpha virt. eigenvalues --    0.13910   0.14670   0.15262   0.16196   0.17185
 Alpha virt. eigenvalues --    0.17605   0.18107   0.18490   0.19117   0.19346

 Mulliken charges:
               1
     1  C   -0.388085
     2  C   -0.168788
     3  C    0.044311
     4  C   -0.205420
     5  C   -0.185322
     6  C   -0.176193
     7  C   -0.174632
     8  C   -0.204674
     9  C   -0.182122
    10  H    0.108672
    11  H    0.117378
    12  H    0.110764
    13  H    0.092555
    14  H    0.088498
    15  H    0.062904
    16  H    0.084086
    17  H    0.086112
    18  H    0.090747
    19  H    0.089329
    20  H    0.086166
    21  H    0.089561
    22  H    0.089567
    23  H    0.086688
    24  H    0.088457
    25  H    0.089862
    26  H    0.087196
    27  H    0.092384
 Sum of Mulliken charges =  -0.00000

 Dipole moment (field-independent basis, Debye):
    X=             -0.0376    Y=             -0.0042    Z=              0.0344  Tot=              0.0511
 Quadrupole moment (field-independent basis, Debye-Ang):
   XX=            -60.2958   YY=            -59.6805   ZZ=            -59.2532
   XY=              0.1747   XZ=              0.0547   YZ=             -0.0043

  Exact polarizability: 108.913  -0.066  94.105   0.349  -0.084  83.031
 Approx polarizability: 133.877   0.280 131.324  -0.371   0.156 132.781

                      1                      2                      3
                      A                      A                      A
 Frequencies --     73.6587               103.9287               150.8176
 Red. masses --      2.6615                 1.8230                 2.2616
 Frc consts  --      0.0085                 0.0116                 0.0303
 IR Inten    --      0.0062                 0.0040                 0.0029

                      4                      5                      6
                      A                      A                      A
 Frequencies --    222.7803               243.5562               259.1043
 Red. masses --      1.8321                 1.3210                 2.1190
 Frc consts  --      0.0536                 0.0462                 0.0838
 IR Inten    --      0.0165                 0.0086                 0.0587

                      7                      8                      9
                      A                      A                      A
 Frequencies --    306.6411               315.0744               353.4077
 Red. masses --      2.4779                 2.4512                 2.1233
 Frc consts  --      0.1373                 0.1434                 0.1563
 IR Inten    --      0.1081                 0.0670                 0.0427

                     10                     11                     12
                      A                      A                      A
 Frequencies --    416.9804               451.5320               498.9959
 Red. masses --      2.1426                 2.0755                 1.5234
 Frc consts  --      0.2195                 0.2493                 0.2235
 IR Inten    --      0.1773                 0.0236                 0.2541

                     13                     14                     15
                      A                      A                      A
 Frequencies --    554.4795               711.8894               777.7339
 Red. masses --      2.1145                 2.3735                 1.5207
 Frc consts  --      0.3830                 0.7087                 0.5419
 IR Inten    --      0.4472                 0.2742                 1.2236

                     16                     17                     18
                      A                      A                      A
 Frequencies --    787.0834               829.2216               841.2721
 Red. masses --      1.7385                 1.7161                 1.8428
 Frc consts  --      0.6346                 0.6953                 0.7684
 IR Inten    --      0.2442                 2.7572                 0.3799

                     19                     20                     21
                      A                      A                      A
 Frequencies --    857.5637               893.4456               958.4620
 Red. masses --      1.4421                 2.1650                 1.8827
 Frc consts  --      0.6248                 1.0182                 1.0190
 IR Inten    --      1.3403                 0.3810                 1.2646

                     22                     23                     24
                      A                      A                      A
 Frequencies --    968.0808               975.3828              1007.6177
 Red. masses --      1.5538                 2.1030                 1.9193
 Frc consts  --      0.8580                 1.1788                 1.1481
 IR Inten    --      2.5314                 3.3343                 0.5994

                     25                     26                     27
                      A                      A                      A
 Frequencies --   1023.1043              1058.0170              1061.2935
 Red. masses --      2.3831                 1.9328                 1.5865
 Frc consts  --      1.4697                 1.2748                 1.0529
 IR Inten    --      0.1217                 0.0291                 0.4530

                     28                     29                     30
                      A                      A                      A
 Frequencies --   1078.8979              1104.2516              1126.4777
 Red. masses --      1.3795                 1.8919                 1.9389
 Frc consts  --      0.9461                 1.3592                 1.4496
 IR Inten    --      0.2002                 0.0589                 0.0394

                     31                     32                     33
                      A                      A                      A
 Frequencies --   1169.0507              1208.2721              1220.6528
 Red. masses --      2.3213                 1.8134                 1.2269
 Frc consts  --      1.8692                 1.5598                 1.0770
 IR Inten    --      0.8080                 0.4921                 0.1613

                     34                     35                     36
                      A                      A                      A
 Frequencies --   1234.5752              1256.5218              1284.0023
 Red. masses --      1.2690                 1.2220                 1.3042
 Frc consts  --      1.1396                 1.1368                 1.2668
 IR Inten    --      2.2054                 1.0472                 1.1805

                     37                     38                     39
                      A                      A                      A
 Frequencies --   1311.0194              1314.1476              1335.8634
 Red. masses --      1.1592                 1.1476                 1.1928
 Frc consts  --      1.1739                 1.1677                 1.2541
 IR Inten    --      0.8026                 0.9992                 6.0232

                     40                     41                     42
                      A                      A                      A
 Frequencies --   1356.0012              1364.9264              1376.1214
 Red. masses --      1.2595                 1.3776                 1.4079
 Frc consts  --      1.3645                 1.5122                 1.5709
 IR Inten    --      0.1215                 1.2511                 2.8103

                     43                     44                     45
                      A                      A                      A
 Frequencies --   1379.2521              1388.5468              1394.8870
 Red. masses --      1.3902                 1.4690                 1.4501
 Frc consts  --      1.5582                 1.6687                 1.6624
 IR Inten    --      1.6685                 0.7816                 2.7047

                     46                     47                     48
                      A                      A                      A
 Frequencies --   1395.7820              1407.3015              1412.0685
 Red. masses --      1.4039                 1.3668                 1.2539
 Frc consts  --      1.6115                 1.5949                 1.4731
 IR Inten    --      2.0266                 2.3631                 1.2433

                     49                     50                     51
                      A                      A                      A
 Frequencies --   1481.1174              1484.6680              1486.2713
 Red. masses --      1.0799                 1.0841                 1.0845
 Frc consts  --      1.3957                 1.4079                 1.4115
 IR Inten    --      0.4964                 0.5358                 2.4505

                     52                     53                     54
                      A                      A                      A
 Frequencies --   1487.3942              1488.5743              1499.0174
 Red. masses --      1.0881                 1.0925                 1.0593
 Frc consts  --      1.4184                 1.4263                 1.4025
 IR Inten    --      2.1526                 0.8838                10.7932

                     55                     56                     57
                      A                      A                      A
 Frequencies --   1503.2198              1505.4700              1509.4733
 Red. masses --      1.0765                 1.0780                 1.0609
 Frc consts  --      1.4332                 1.4395                 1.4242
 IR Inten    --      8.3787                 0.8192                 2.0991

                     58                     59                     60
                      A                      A                      A
 Frequencies --   2981.3526              3001.4204              3003.3074
 Red. masses --      1.0808                 1.0686                 1.0620
 Frc consts  --      5.6601                 5.6718                 5.6441
 IR Inten    --     11.7264                13.8482                 8.1198

                     61                     62                     63
                      A                      A                      A
 Frequencies --   3004.2029              3007.9715              3013.1179
 Red. masses --      1.0658                 1.0618                 1.0616
 Frc consts  --      5.6676                 5.6604                 5.6785
 IR Inten    --     25.4266                24.3782                11.4317

                     64                     65                     66
                      A                      A                      A
 Frequencies --   3015.4300              3020.0738              3029.6136
 Red. masses --      1.0631                 1.0649                 1.0388
 Frc consts  --      5.6955                 5.7227                 5.6175
 IR Inten    --     28.4665                13.3998                25.1325

                     67                     68                     69
                      A                      A                      A
 Frequencies --   3041.5591              3044.1333              3047.0567
 Red. masses --      1.0976                 1.0940                 1.1006
 Frc consts  --      5.9825                 5.9733                 6.0207
 IR Inten    --      9.3321                85.9048                12.0922

                     70                     71                     72
                      A                      A                      A
 Frequencies --   3048.9883              3054.7084              3058.5149
 Red. masses --      1.1020                 1.0960                 1.1002
 Frc consts  --      6.0357                 6.0258                 6.0639
 IR Inten    --     49.6814                72.8394               107.2425

                     73                     74                     75
                      A                      A                      A
 Frequencies --   3062.8680              3093.4200              3106.6167
 Red. masses --      1.0944                 1.1003                 1.1005
 Frc consts  --      6.0491                 6.2035                 6.2577
 IR Inten    --     54.0236                40.2351                41.4312

 - Thermochemistry -
 -------------------
 Temperature   298.150 Kelvin.  Pressure   1.00000 Atm.
 Atom     1 has atomic number  6 and mass  12.00000

 Molecular mass:   126.14085 amu.
 Principal axes and moments of inertia in atomic units:
                           1         2         3
     Eigenvalues --   675.695621718.866722119.29170
           X            0.99999  -0.00438  -0.00244
           Y            0.00438   0.99999   0.00159
           Z            0.00243  -0.00160   1.00000
 This molecule is an asymmetric top.
 Rotational symmetry number  1.
 Warning -- assumption of classical behavior for rotation
           may cause significant error
 Rotational temperatures (Kelvin)      0.12818     0.05039     0.04087
 Rotational constants (GHZ):           2.67094     1.04996     0.85158
 Zero-point vibrational energy     669306.5 (Joules/Mol)
                                  159.96809 (Kcal/Mol)
 Warning -- explicit consideration of  13 degrees of freedom as
           vibrations may cause significant error
 Vibrational temperatures:    105.98   149.53   216.99   320.53   350.42
          (Kelvin)            372.79   441.19   453.32   508.47   599.94
                              649.65   717.94   797.77  1024.25  1118.99
                             1132.44  1193.06  1210.40  1233.84  1285.47
                             1379.01  1392.85  1403.36  1449.74  1472.02
                             1522.25  1526.96  1552.29  1588.77  1620.75
                             1682.00  1738.43  1756.25  1776.28  1807.85
                             1847.39  1886.26  1890.77  1922.01  1950.98
                             1963.82  1979.93  1984.44  1997.81  2006.93
                             2008.22  2024.79  2031.65  2131.00  2136.11
                             2138.41  2140.03  2141.73  2156.75  2162.80
                             2166.04  2171.80  4289.50  4318.37  4321.09
                             4322.38  4327.80  4335.20  4338.53  4345.21
                             4358.94  4376.13  4379.83  4384.03  4386.81
                             4395.04  4400.52  4406.78  4450.74  4469.73

 Zero-point correction=                           0.254925 (Hartree/Particle)
 Thermal correction to Energy=                    0.264644
 Thermal correction to Enthalpy=                  0.265588
 Thermal correction to Gibbs Free Energy=         0.220573
 Sum of electronic and zero-point Energies=           -353.583081
 Sum of electronic and thermal Energies=              -353.573362
 Sum of electronic and thermal Enthalpies=            -353.572418
 Sum of electronic and thermal Free Energies=         -353.617434

                     E (Thermal)             CV                S
                      KCal/Mol        Cal/Mol-Kelvin    Cal/Mol-Kelvin
 Total                  166.067             38.242             94.743
 Electronic               0.000              0.000              0.000
 Translational            0.889              2.981             40.410
 Rotational               0.889              2.981             29.289
 Vibrational            164.289             32.280             25.044
 Vibration     1          0.599              1.966              4.053
 Vibration     2          0.605              1.946              3.379
 Vibration     3          0.618              1.902              2.662
 Vibration     4          0.648              1.806              1.936
 Vibration     5          0.659              1.773              1.777
 Vibration     6          0.668              1.747              1.668
 Vibration     7          0.697              1.661              1.380
 Vibration     8          0.702              1.645              1.336
 Vibration     9          0.730              1.568              1.151
 Vibration    10          0.780              1.433              0.902
 Vibration    11          0.810              1.358              0.791
 Vibration    12          0.854              1.252              0.661
 Vibration    13          0.910              1.130              0.535

                           ! Non-Optimized Parameters !
 Normal termination of Gaussian 16 at Sun May 28 17:34:54 2023.
