 Gaussian 16, Revision A.03,
 Gaussian 16:  ES64L-G16RevA.03 25-Dec-2016

 -----------------------------
 # opt freq b3lyp/6-31g(2df,p)
 -----------------------------

 -------------------
 Title Card Required
 -------------------
 Symbolic Z-matrix:
 Charge =  0 Multiplicity = 1

 SCF Done:  E(RB3LYP) =  -352.368674852     A.U. after   13 cycles
 SCF Done:  E(RB3LYP) =  -352.437714405     A.U. after   11 cycles
 SCF Done:  E(RB3LYP) =  -352.464435806     A.U. after   13 cycles
 SCF Done:  E(RB3LYP) =  -352.495363205     A.U. after   12 cycles
 SCF Done:  E(RB3LYP) =  -352.475861454     A.U. after   12 cycles
 SCF Done:  E(RB3LYP) =  -352.506485932     A.U. after   11 cycles
 SCF Done:  E(RB3LYP) =  -352.521373721     A.U. after   10 cycles
 SCF Done:  E(RB3LYP) =  -352.523550383     A.U. after   11 cycles
 SCF Done:  E(RB3LYP) =  -352.530021244     A.U. after   11 cycles
 SCF Done:  E(RB3LYP) =  -352.531525605     A.U. after   11 cycles
 SCF Done:  E(RB3LYP) =  -352.541422883     A.U. after    9 cycles
 SCF Done:  E(RB3LYP) =  -352.541422947     A.U. after    9 cycles
 SCF Done:  E(RB3LYP) =  -352.541423357     A.U. after    6 cycles
 SCF Done:  E(RB3LYP) =  -352.541422857     A.U. after    9 cycles
 SCF Done:  E(RB3LYP) =  -352.530926987     A.U. after   11 cycles
 SCF Done:  E(RB3LYP) =  -352.541423018     A.U. after    9 cycles
 SCF Done:  E(RB3LYP) =  -352.541423412     A.U. after    6 cycles
 SCF Done:  E(RB3LYP) =  -352.541423281     A.U. after    9 cycles
 SCF Done:  E(RB3LYP) =  -352.541423791     A.U. after    8 cycles
 Optimization completed.
    -- Stationary point found.
 Normal termination of Gaussian 16 at Sun May 28 11:55:33 2023.

 ----------------------------------------------------------------------
 #N Geom=AllCheck Guess=TCheck SCRF=Check GenChk RB3LYP/6-31G(2df,p) Fr
 eq
 ----------------------------------------------------------------------

 Structure from the checkpoint file:  "CCC1C2CC1qCrC2C.chk"
 -------------------
 Title Card Required
 -------------------
 Charge =  0 Multiplicity = 1

                         Standard orientation:
 ---------------------------------------------------------------------
 Center     Atomic      Atomic             Coordinates (Angstroms)
 Number     Number       Type             X           Y           Z
 ---------------------------------------------------------------------
      1          6           0       -3.095445    0.212274   -0.057795
      2          6           0       -1.722654   -0.446927   -0.244066
      3          6           0       -0.592968    0.395601    0.375765
      4          6           0        0.452849   -0.155110    1.396997
      5          6           0        1.258260    1.147654    1.122228
      6          6           0        0.819370    0.625599   -0.282803
      7          6           0        1.107579    1.251674   -1.622360
      8          6           0        1.279488   -0.788076    0.229281
      9          6           0        0.947336   -2.100190   -0.471167
     10          1           0       -3.893667   -0.396469   -0.494252
     11          1           0       -3.127938    1.198548   -0.533919
     12          1           0       -3.323947    0.352477    1.004571
     13          1           0       -1.547509   -0.596383   -1.316614
     14          1           0       -1.751725   -1.445600    0.203582
     15          1           0       -1.025964    1.346001    0.713830
     16          1           0        0.244343   -0.599476    2.372740
     17          1           0        2.329334    1.117579    1.340308
     18          1           0        0.805205    2.084273    1.458682
     19          1           0        0.659036    0.671814   -2.437421
     20          1           0        2.186118    1.306069   -1.808989
     21          1           0        0.706044    2.269824   -1.677747
     22          1           0        2.353155   -0.803687    0.459750
     23          1           0        1.609290   -2.233586   -1.335050
     24          1           0       -0.076550   -2.182105   -0.829877
     25          1           0        1.131889   -2.944282    0.203927
 ---------------------------------------------------------------------

 SCF Done:  E(RB3LYP) =  -352.541423791     A.U. after    1 cycles

 The electronic state is 1-A.
 Alpha  occ. eigenvalues --  -10.19547 -10.18888 -10.18260 -10.18028 -10.17599
 Alpha  occ. eigenvalues --  -10.17476 -10.17112 -10.16979 -10.16648  -0.90159
 Alpha  occ. eigenvalues --   -0.76420  -0.72789  -0.71949  -0.65739  -0.61311
 Alpha  occ. eigenvalues --   -0.58751  -0.58162  -0.51286  -0.45376  -0.44063
 Alpha  occ. eigenvalues --   -0.43900  -0.43438  -0.41432  -0.40116  -0.38843
 Alpha  occ. eigenvalues --   -0.38337  -0.37634  -0.35879  -0.34723  -0.32204
 Alpha  occ. eigenvalues --   -0.30015  -0.29252  -0.29070  -0.28343  -0.27620
 Alpha virt. eigenvalues --    0.09149   0.11006   0.11780   0.11910   0.12295
 Alpha virt. eigenvalues --    0.14574   0.14875   0.15491   0.15872   0.16178
 Alpha virt. eigenvalues --    0.16964   0.17253   0.17652   0.18246   0.19423

 Mulliken charges:
               1
     1  C   -0.392730
     2  C   -0.230325
     3  C    0.037491
     4  C   -0.091403
     5  C   -0.262343
     6  C    0.301931
     7  C   -0.518600
     8  C    0.037493
     9  C   -0.452246
    10  H    0.107565
    11  H    0.114717
    12  H    0.115954
    13  H    0.100056
    14  H    0.104874
    15  H    0.053640
    16  H    0.059435
    17  H    0.082618
    18  H    0.082630
    19  H    0.117187
    20  H    0.116578
    21  H    0.116199
    22  H    0.055462
    23  H    0.111956
    24  H    0.118656
    25  H    0.113204
 Sum of Mulliken charges =   0.00000

 Dipole moment (field-independent basis, Debye):
    X=             -0.0330    Y=             -0.0512    Z=             -0.2371  Tot=              0.2448
 Quadrupole moment (field-independent basis, Debye-Ang):
   XX=            -58.2202   YY=            -58.1660   ZZ=            -58.2709
   XY=              0.0801   XZ=             -0.1936   YZ=             -0.2991

  Exact polarizability: 100.820  -0.493  93.341   0.440   1.393  88.167
 Approx polarizability: 134.735  -0.810 133.747   0.276   1.433 130.749

                      1                      2                      3
                      A                      A                      A
 Frequencies --     13.2468               151.1819               175.5635
 Red. masses --      2.0137                 1.2595                 1.6476
 Frc consts  --      0.0002                 0.0170                 0.0299
 IR Inten    --      0.0135                 0.0059                 0.0049

                      4                      5                      6
                      A                      A                      A
 Frequencies --    184.4349               196.8585               209.3897
 Red. masses --      1.3461                 2.0652                 1.6412
 Frc consts  --      0.0270                 0.0472                 0.0424
 IR Inten    --      0.0049                 0.0443                 0.0197

                      7                      8                      9
                      A                      A                      A
 Frequencies --    254.6009               308.1390               332.9246
 Red. masses --      1.3514                 2.7739                 2.0952
 Frc consts  --      0.0516                 0.1552                 0.1368
 IR Inten    --      0.0121                 0.1508                 0.1613

                     10                     11                     12
                      A                      A                      A
 Frequencies --    383.3653               407.3140               534.9931
 Red. masses --      2.6745                 2.4239                 2.3363
 Frc consts  --      0.2316                 0.2369                 0.3940
 IR Inten    --      0.3383                 0.2539                 0.0549

                     13                     14                     15
                      A                      A                      A
 Frequencies --    617.3029               626.7982               748.1456
 Red. masses --      3.4565                 3.0401                 3.0736
 Frc consts  --      0.7760                 0.7037                 1.0136
 IR Inten    --      0.2665                 0.1448                 0.0564

                     16                     17                     18
                      A                      A                      A
 Frequencies --    753.2878               785.0848               821.6403
 Red. masses --      1.8509                 1.9482                 1.5068
 Frc consts  --      0.6188                 0.7075                 0.5993
 IR Inten    --      0.4041                 0.7427                 1.5972

                     19                     20                     21
                      A                      A                      A
 Frequencies --    865.8692               894.9050               936.0182
 Red. masses --      2.2079                 2.1736                 2.0884
 Frc consts  --      0.9753                 1.0256                 1.0780
 IR Inten    --      1.8803                 0.1790                 0.4239

                     22                     23                     24
                      A                      A                      A
 Frequencies --    974.1405              1013.5664              1016.8443
 Red. masses --      2.0273                 1.1169                 1.3047
 Frc consts  --      1.1335                 0.6760                 0.7948
 IR Inten    --      2.7597                 1.5601                 2.2344

                     25                     26                     27
                      A                      A                      A
 Frequencies --   1033.7331              1047.7829              1069.0834
 Red. masses --      1.2490                 1.2303                 1.6924
 Frc consts  --      0.7864                 0.7958                 1.1397
 IR Inten    --      0.2321                 1.4313                 2.5645

                     28                     29                     30
                      A                      A                      A
 Frequencies --   1106.9208              1118.3131              1135.3243
 Red. masses --      2.0262                 1.8819                 2.1031
 Frc consts  --      1.4627                 1.3867                 1.5972
 IR Inten    --      2.6728                 1.3084                 2.0443

                     31                     32                     33
                      A                      A                      A
 Frequencies --   1140.5563              1158.1858              1166.2633
 Red. masses --      1.7425                 2.5135                 1.6402
 Frc consts  --      1.3356                 1.9865                 1.3145
 IR Inten    --      0.8268                 0.1229                 1.0684

                     34                     35                     36
                      A                      A                      A
 Frequencies --   1209.7059              1216.0011              1238.5026
 Red. masses --      1.6600                 2.0099                 1.7878
 Frc consts  --      1.4313                 1.7511                 1.6157
 IR Inten    --      0.0910                 0.4610                 3.1261

                     37                     38                     39
                      A                      A                      A
 Frequencies --   1263.5390              1305.5765              1324.7104
 Red. masses --      2.1310                 1.3633                 2.3376
 Frc consts  --      2.0045                 1.3691                 2.4169
 IR Inten    --      0.3965                 0.7547                15.9457

                     40                     41                     42
                      A                      A                      A
 Frequencies --   1340.3673              1405.7963              1408.9736
 Red. masses --      1.3574                 1.3461                 1.2336
 Frc consts  --      1.4368                 1.5674                 1.4429
 IR Inten    --      6.1788                 3.1691                 0.2323

                     43                     44                     45
                      A                      A                      A
 Frequencies --   1413.6138              1425.2012              1457.7402
 Red. masses --      1.2307                 1.2433                 1.2191
 Frc consts  --      1.4490                 1.4879                 1.5263
 IR Inten    --      2.3208                 4.9056                 2.3884

                     46                     47                     48
                      A                      A                      A
 Frequencies --   1485.7158              1488.4939              1492.3707
 Red. masses --      1.0556                 1.0498                 1.0500
 Frc consts  --      1.3728                 1.3704                 1.3778
 IR Inten    --      0.2619                 3.8745                 4.0542

                     49                     50                     51
                      A                      A                      A
 Frequencies --   1499.2473              1501.1047              1503.9811
 Red. masses --      1.0419                 1.0478                 1.0508
 Frc consts  --      1.3798                 1.3911                 1.4005
 IR Inten    --      6.1469                 2.0983                 1.8868

                     52                     53                     54
                      A                      A                      A
 Frequencies --   1508.3598              1528.8253              3001.4174
 Red. masses --      1.0677                 1.1790                 1.0818
 Frc consts  --      1.4313                 1.6235                 5.7420
 IR Inten    --      1.0642                 2.8095                55.4927

                     55                     56                     57
                      A                      A                      A
 Frequencies --   3007.8517              3020.4368              3023.7061
 Red. masses --      1.0811                 1.0359                 1.0623
 Frc consts  --      5.7628                 5.5680                 5.7224
 IR Inten    --     12.9333                28.3129                23.1932

                     58                     59                     60
                      A                      A                      A
 Frequencies --   3027.9391              3032.2321              3046.0329
 Red. masses --      1.0366                 1.0455                 1.0542
 Frc consts  --      5.5995                 5.6634                 5.7630
 IR Inten    --     47.9099                43.1950                54.2910

                     61                     62                     63
                      A                      A                      A
 Frequencies --   3062.8606              3077.9154              3084.9735
 Red. masses --      1.0986                 1.0997                 1.0989
 Frc consts  --      6.0720                 6.1380                 6.1618
 IR Inten    --      5.9046                23.1927                23.7752

                     64                     65                     66
                      A                      A                      A
 Frequencies --   3085.7049              3089.0906              3097.3217
 Red. masses --      1.0924                 1.1009                 1.1025
 Frc consts  --      6.1281                 6.1897                 6.2314
 IR Inten    --     63.0552                18.2008                47.9439

                     67                     68                     69
                      A                      A                      A
 Frequencies --   3100.6713              3110.3546              3168.8315
 Red. masses --      1.1011                 1.1104                 1.0909
 Frc consts  --      6.2371                 6.3294                 6.4543
 IR Inten    --     39.1019                52.4332                19.0395

 - Thermochemistry -
 -------------------
 Temperature   298.150 Kelvin.  Pressure   1.00000 Atm.
 Atom     1 has atomic number  6 and mass  12.00000

 Molecular mass:   124.12520 amu.
 Principal axes and moments of inertia in atomic units:
                           1         2         3
     Eigenvalues --   887.347761424.080161560.81661
           X            0.99996  -0.00582  -0.00732
           Y            0.00591   0.99989   0.01340
           Z            0.00724  -0.01344   0.99988
 This molecule is an asymmetric top.
 Rotational symmetry number  1.
 Warning -- assumption of classical behavior for rotation
           may cause significant error
 Rotational temperatures (Kelvin)      0.09761     0.06082     0.05549
 Rotational constants (GHZ):           2.03386     1.26730     1.15628
 Zero-point vibrational energy     599550.1 (Joules/Mol)
                                  143.29591 (Kcal/Mol)
 Warning -- explicit consideration of  13 degrees of freedom as
           vibrations may cause significant error
 Vibrational temperatures:     19.06   217.52   252.60   265.36   283.24
          (Kelvin)            301.27   366.31   443.34   479.00   551.58
                              586.03   769.74   888.16   901.82  1076.41
                             1083.81  1129.56  1182.16  1245.79  1287.57
                             1346.72  1401.57  1458.30  1463.01  1487.31
                             1507.53  1538.17  1592.61  1609.00  1633.48
                             1641.01  1666.37  1677.99  1740.50  1749.55
                             1781.93  1817.95  1878.43  1905.96  1928.49
                             2022.63  2027.20  2033.87  2050.55  2097.36
                             2137.61  2141.61  2147.19  2157.08  2159.75
                             2163.89  2170.19  2199.64  4318.37  4327.63
                             4345.73  4350.44  4356.53  4362.71  4382.56
                             4406.77  4428.43  4438.59  4439.64  4444.51
                             4456.36  4461.17  4475.11  4559.24

 Zero-point correction=                           0.228357 (Hartree/Particle)
 Thermal correction to Energy=                    0.238437
 Thermal correction to Enthalpy=                  0.239381
 Thermal correction to Gibbs Free Energy=         0.192507
 Sum of electronic and zero-point Energies=           -352.313067
 Sum of electronic and thermal Energies=              -352.302987
 Sum of electronic and thermal Enthalpies=            -352.302043
 Sum of electronic and thermal Free Energies=         -352.348916

                     E (Thermal)             CV                S
                      KCal/Mol        Cal/Mol-Kelvin    Cal/Mol-Kelvin
 Total                  149.622             38.498             98.655
 Electronic               0.000              0.000              0.000
 Translational            0.889              2.981             40.362
 Rotational               0.889              2.981             29.068
 Vibrational            147.844             32.536             29.224
 Vibration     1          0.593              1.987              7.452
 Vibration     2          0.619              1.901              2.657
 Vibration     3          0.628              1.872              2.375
 Vibration     4          0.631              1.861              2.283
 Vibration     5          0.636              1.844              2.162
 Vibration     6          0.642              1.826              2.049
 Vibration     7          0.665              1.755              1.699
 Vibration     8          0.698              1.658              1.372
 Vibration     9          0.715              1.610              1.246
 Vibration    10          0.753              1.506              1.026
 Vibration    11          0.772              1.454              0.936
 Vibration    12          0.890              1.173              0.576
 Vibration    13          0.977              0.995              0.421

                           ! Non-Optimized Parameters !
 Normal termination of Gaussian 16 at Sun May 28 12:37:46 2023.
