 Gaussian 16, Revision A.03,
 Gaussian 16:  ES64L-G16RevA.03 25-Dec-2016

 -----------------------------
 # opt freq b3lyp/6-31g(2df,p)
 -----------------------------

 -------------------
 Title Card Required
 -------------------
 Symbolic Z-matrix:
 Charge =  0 Multiplicity = 1

 SCF Done:  E(RB3LYP) =  -432.465939896     A.U. after   12 cycles
 SCF Done:  E(RB3LYP) =  -432.468168009     A.U. after   10 cycles
 SCF Done:  E(RB3LYP) =  -432.468276740     A.U. after    9 cycles
 SCF Done:  E(RB3LYP) =  -432.468488996     A.U. after    9 cycles
 SCF Done:  E(RB3LYP) =  -432.468647729     A.U. after    9 cycles
 SCF Done:  E(RB3LYP) =  -432.468734312     A.U. after    9 cycles
 SCF Done:  E(RB3LYP) =  -432.468875479     A.U. after    9 cycles
 SCF Done:  E(RB3LYP) =  -432.468599381     A.U. after   10 cycles
 SCF Done:  E(RB3LYP) =  -432.468959268     A.U. after   10 cycles
 SCF Done:  E(RB3LYP) =  -432.469046876     A.U. after    9 cycles
 SCF Done:  E(RB3LYP) =  -432.469805729     A.U. after   10 cycles
 SCF Done:  E(RB3LYP) =  -432.470597895     A.U. after    9 cycles
 SCF Done:  E(RB3LYP) =  -432.470816412     A.U. after    9 cycles
 SCF Done:  E(RB3LYP) =  -432.470888207     A.U. after    8 cycles
 SCF Done:  E(RB3LYP) =  -432.470916671     A.U. after    8 cycles
 SCF Done:  E(RB3LYP) =  -432.470933405     A.U. after    8 cycles
 SCF Done:  E(RB3LYP) =  -432.470935122     A.U. after    8 cycles
 SCF Done:  E(RB3LYP) =  -432.470936422     A.U. after    8 cycles
 SCF Done:  E(RB3LYP) =  -432.470936501     A.U. after    6 cycles
 Optimization completed.
    -- Stationary point found.
 Normal termination of Gaussian 16 at Sun May 28 22:26:11 2023.

 ----------------------------------------------------------------------
 #N Geom=AllCheck Guess=TCheck SCRF=Check GenChk RB3LYP/6-31G(2df,p) Fr
 eq
 ----------------------------------------------------------------------

 Structure from the checkpoint file:  "CCC1CqCrCCC1CqCrC.chk"
 -------------------
 Title Card Required
 -------------------
 Charge =  0 Multiplicity = 1

                         Standard orientation:
 ---------------------------------------------------------------------
 Center     Atomic      Atomic             Coordinates (Angstroms)
 Number     Number       Type             X           Y           Z
 ---------------------------------------------------------------------
      1          6           0       -0.337241    2.771021   -0.700432
      2          6           0       -1.233045    1.538935   -0.534822
      3          6           0       -0.628058    0.410592    0.325507
      4          6           0       -1.621539   -0.760081    0.587343
      5          6           0       -3.078510   -0.393449    0.868703
      6          6           0       -1.403353   -1.683496   -0.618942
      7          6           0        0.123430   -1.703646   -0.754310
      8          6           0        0.609599   -0.275513   -0.355677
      9          6           0        1.894987   -0.313195    0.505733
     10          6           0        3.021580   -1.086945   -0.199145
     11          6           0        2.410581    1.082115    0.887499
     12          1           0       -0.837931    3.535563   -1.303357
     13          1           0        0.609620    2.532268   -1.194015
     14          1           0       -0.098233    3.219220    0.270346
     15          1           0       -1.493737    1.146883   -1.527061
     16          1           0       -2.175900    1.865472   -0.082307
     17          1           0       -0.340455    0.853438    1.286537
     18          1           0       -1.242151   -1.296743    1.469597
     19          1           0       -3.564570    0.055716   -0.003110
     20          1           0       -3.165016    0.313738    1.701361
     21          1           0       -3.651852   -1.287556    1.136543
     22          1           0       -1.874016   -1.253855   -1.512719
     23          1           0       -1.832679   -2.680870   -0.478553
     24          1           0        0.465719   -2.000460   -1.749524
     25          1           0        0.529469   -2.439881   -0.049546
     26          1           0        0.855066    0.278398   -1.271251
     27          1           0        1.647614   -0.848446    1.435701
     28          1           0        3.295257   -0.596095   -1.141412
     29          1           0        2.739520   -2.117101   -0.431295
     30          1           0        3.920005   -1.121602    0.426071
     31          1           0        2.695666    1.650912   -0.005494
     32          1           0        3.299758    1.002456    1.522180
     33          1           0        1.668251    1.670516    1.432564
 ---------------------------------------------------------------------

 SCF Done:  E(RB3LYP) =  -432.470936501     A.U. after    1 cycles

 The electronic state is 1-A.
 Alpha  occ. eigenvalues --  -10.18053 -10.17583 -10.17399 -10.17336 -10.17196
 Alpha  occ. eigenvalues --  -10.16873 -10.16804 -10.16780 -10.16744 -10.16566
 Alpha  occ. eigenvalues --  -10.16538  -0.84093  -0.78584  -0.75965  -0.72728
 Alpha  occ. eigenvalues --   -0.68587  -0.67396  -0.64769  -0.60615  -0.57467
 Alpha  occ. eigenvalues --   -0.55092  -0.52419  -0.47452  -0.45671  -0.44208
 Alpha  occ. eigenvalues --   -0.43278  -0.42229  -0.41694  -0.39825  -0.39479
 Alpha  occ. eigenvalues --   -0.38957  -0.37371  -0.36651  -0.36239  -0.35311
 Alpha  occ. eigenvalues --   -0.34614  -0.33500  -0.32950  -0.31628  -0.30898
 Alpha  occ. eigenvalues --   -0.30033  -0.29838  -0.29031  -0.28769
 Alpha virt. eigenvalues --    0.08056   0.08965   0.09649   0.10684   0.12731
 Alpha virt. eigenvalues --    0.13021   0.14071   0.14546   0.14895   0.15658
 Alpha virt. eigenvalues --    0.16680   0.16862   0.17534   0.18126   0.18477

 Mulliken charges:
               1
     1  C   -0.387834
     2  C   -0.183471
     3  C   -0.006787
     4  C    0.040832
     5  C   -0.421938
     6  C   -0.218653
     7  C   -0.235001
     8  C    0.050531
     9  C    0.022925
    10  C   -0.390626
    11  C   -0.393366
    12  H    0.107781
    13  H    0.117775
    14  H    0.112455
    15  H    0.090860
    16  H    0.094263
    17  H    0.055772
    18  H    0.064538
    19  H    0.115488
    20  H    0.109132
    21  H    0.107606
    22  H    0.092146
    23  H    0.086541
    24  H    0.090919
    25  H    0.094307
    26  H    0.059593
    27  H    0.065526
    28  H    0.108669
    29  H    0.113520
    30  H    0.106093
    31  H    0.110800
    32  H    0.106114
    33  H    0.113489
 Sum of Mulliken charges =  -0.00000

 Dipole moment (field-independent basis, Debye):
    X=             -0.0872    Y=             -0.0763    Z=              0.0774  Tot=              0.1393
 Quadrupole moment (field-independent basis, Debye-Ang):
   XX=            -74.0547   YY=            -73.5676   ZZ=            -72.2836
   XY=             -0.1751   XZ=              0.1588   YZ=             -0.4075

  Exact polarizability: 130.100   0.557 119.869  -0.231   0.754 101.613
 Approx polarizability: 165.159  -0.061 164.267   0.476  -0.817 162.290

                      1                      2                      3
                      A                      A                      A
 Frequencies --     57.6774                74.7952               111.8604
 Red. masses --      2.8587                 2.5375                 1.8684
 Frc consts  --      0.0056                 0.0084                 0.0138
 IR Inten    --      0.0034                 0.0012                 0.0293

                      4                      5                      6
                      A                      A                      A
 Frequencies --    163.3634               187.7235               207.0866
 Red. masses --      3.0025                 1.7826                 1.9556
 Frc consts  --      0.0472                 0.0370                 0.0494
 IR Inten    --      0.0242                 0.0193                 0.0260

                      7                      8                      9
                      A                      A                      A
 Frequencies --    229.0543               234.5199               243.9959
 Red. masses --      1.2931                 1.4884                 1.1766
 Frc consts  --      0.0400                 0.0482                 0.0413
 IR Inten    --      0.0110                 0.0174                 0.0029

                     10                     11                     12
                      A                      A                      A
 Frequencies --    256.9525               276.9645               299.3913
 Red. masses --      1.1909                 1.4265                 2.2428
 Frc consts  --      0.0463                 0.0645                 0.1184
 IR Inten    --      0.0196                 0.0235                 0.0198

                     13                     14                     15
                      A                      A                      A
 Frequencies --    328.4406               363.4698               414.0556
 Red. masses --      2.1702                 2.4693                 2.7495
 Frc consts  --      0.1379                 0.1922                 0.2777
 IR Inten    --      0.1133                 0.0185                 0.0592

                     16                     17                     18
                      A                      A                      A
 Frequencies --    419.5429               466.8582               530.6976
 Red. masses --      2.2796                 2.3565                 2.8630
 Frc consts  --      0.2364                 0.3026                 0.4751
 IR Inten    --      0.2887                 0.1459                 0.5150

                     19                     20                     21
                      A                      A                      A
 Frequencies --    557.1878               633.2649               756.3824
 Red. masses --      2.2863                 2.4647                 1.5369
 Frc consts  --      0.4182                 0.5823                 0.5180
 IR Inten    --      0.9160                 0.2105                 1.5376

                     22                     23                     24
                      A                      A                      A
 Frequencies --    811.9731               838.4078               871.1749
 Red. masses --      1.8923                 2.0081                 1.7903
 Frc consts  --      0.7351                 0.8317                 0.8006
 IR Inten    --      0.2912                 1.4601                 0.2103

                     25                     26                     27
                      A                      A                      A
 Frequencies --    881.5497               899.0840               927.2386
 Red. masses --      2.2380                 2.2283                 1.1643
 Frc consts  --      1.0247                 1.0612                 0.5898
 IR Inten    --      1.5546                 1.4322                 0.4847

                     28                     29                     30
                      A                      A                      A
 Frequencies --    940.1285               957.0981               963.7455
 Red. masses --      1.6923                 1.5024                 1.4177
 Frc consts  --      0.8813                 0.8109                 0.7758
 IR Inten    --      0.8465                 1.1315                 0.1140

                     31                     32                     33
                      A                      A                      A
 Frequencies --    972.9801              1006.2042              1019.3936
 Red. masses --      2.0933                 1.7638                 1.8779
 Frc consts  --      1.1676                 1.0521                 1.1498
 IR Inten    --      0.9597                 0.6171                 0.4338

                     34                     35                     36
                      A                      A                      A
 Frequencies --   1045.2458              1058.4262              1078.7541
 Red. masses --      1.4361                 2.2368                 1.4212
 Frc consts  --      0.9244                 1.4764                 0.9744
 IR Inten    --      1.3353                 0.2979                 0.8865

                     37                     38                     39
                      A                      A                      A
 Frequencies --   1090.2302              1104.8856              1155.3856
 Red. masses --      1.7045                 2.4570                 1.9960
 Frc consts  --      1.1936                 1.7672                 1.5698
 IR Inten    --      0.4401                 0.8620                 2.3950

                     40                     41                     42
                      A                      A                      A
 Frequencies --   1159.2625              1175.1685              1190.8983
 Red. masses --      2.2850                 2.4537                 1.7730
 Frc consts  --      1.8093                 1.9965                 1.4815
 IR Inten    --      0.2331                 0.7348                 4.2116

                     43                     44                     45
                      A                      A                      A
 Frequencies --   1218.7222              1228.4860              1271.6199
 Red. masses --      1.8336                 1.4470                 1.3310
 Frc consts  --      1.6046                 1.2867                 1.2681
 IR Inten    --      2.0749                 0.9266                 0.4956

                     46                     47                     48
                      A                      A                      A
 Frequencies --   1286.1882              1304.1427              1315.4577
 Red. masses --      1.3034                 1.3302                 1.2838
 Frc consts  --      1.2704                 1.3329                 1.3089
 IR Inten    --      3.8950                 3.4439                 0.0934

                     49                     50                     51
                      A                      A                      A
 Frequencies --   1326.7618              1339.8215              1346.2322
 Red. masses --      1.3788                 1.2032                 1.3754
 Frc consts  --      1.4300                 1.2726                 1.4687
 IR Inten    --      0.2675                 3.2865                 2.2037

                     52                     53                     54
                      A                      A                      A
 Frequencies --   1353.4686              1356.9688              1377.7269
 Red. masses --      1.3238                 1.2711                 1.4186
 Frc consts  --      1.4288                 1.3790                 1.5865
 IR Inten    --      1.7288                 3.6718                 3.3601

                     55                     56                     57
                      A                      A                      A
 Frequencies --   1389.2460              1390.3355              1401.0702
 Red. masses --      1.5081                 1.4257                 1.2547
 Frc consts  --      1.7150                 1.6238                 1.4511
 IR Inten    --      0.4493                 0.5456                 3.7771

                     58                     59                     60
                      A                      A                      A
 Frequencies --   1410.6046              1413.3091              1421.9232
 Red. masses --      1.2372                 1.2469                 1.2235
 Frc consts  --      1.4504                 1.4674                 1.4575
 IR Inten    --      1.0783                 1.4599                 5.3697

                     61                     62                     63
                      A                      A                      A
 Frequencies --   1481.7654              1487.7499              1490.1011
 Red. masses --      1.0483                 1.0665                 1.0618
 Frc consts  --      1.3562                 1.3909                 1.3891
 IR Inten    --      1.7012                 0.4561                 2.6002

                     64                     65                     66
                      A                      A                      A
 Frequencies --   1493.2699              1498.1281              1500.4212
 Red. masses --      1.0605                 1.0459                 1.0487
 Frc consts  --      1.3932                 1.3830                 1.3910
 IR Inten    --      1.8245                 5.5320                 5.6100

                     67                     68                     69
                      A                      A                      A
 Frequencies --   1501.9849              1505.0198              1506.9516
 Red. masses --      1.0687                 1.0809                 1.0549
 Frc consts  --      1.4205                 1.4426                 1.4115
 IR Inten    --      5.2129                 2.5527                 3.4755

                     70                     71                     72
                      A                      A                      A
 Frequencies --   1509.8774              1514.3118              2979.6870
 Red. masses --      1.0637                 1.0522                 1.0808
 Frc consts  --      1.4288                 1.4216                 5.6540
 IR Inten    --      6.0228                 3.5816                 5.1717

                     73                     74                     75
                      A                      A                      A
 Frequencies --   2984.5882              3010.3112              3014.4017
 Red. masses --      1.0819                 1.0823                 1.0680
 Frc consts  --      5.6784                 5.7786                 5.7176
 IR Inten    --     19.7031                21.6749                 0.4685

                     76                     77                     78
                      A                      A                      A
 Frequencies --   3023.5882              3024.0013              3026.0380
 Red. masses --      1.0602                 1.0440                 1.0625
 Frc consts  --      5.7108                 5.6248                 5.7324
 IR Inten    --     12.6447                 5.7415                27.5330

                     79                     80                     81
                      A                      A                      A
 Frequencies --   3028.0205              3030.0575              3030.2215
 Red. masses --      1.0505                 1.0548                 1.0451
 Frc consts  --      5.6748                 5.7058                 5.6538
 IR Inten    --     28.8646                57.6860                23.4964

                     82                     83                     84
                      A                      A                      A
 Frequencies --   3033.4662              3060.5436              3073.6828
 Red. masses --      1.0414                 1.0966                 1.0966
 Frc consts  --      5.6463                 6.0520                 6.1038
 IR Inten    --     76.9217                25.3040                30.8179

                     85                     86                     87
                      A                      A                      A
 Frequencies --   3084.5933              3086.4887              3089.1760
 Red. masses --      1.1000                 1.1005                 1.1008
 Frc consts  --      6.1666                 6.1768                 6.1891
 IR Inten    --      3.5014                21.4110                32.1011

                     88                     89                     90
                      A                      A                      A
 Frequencies --   3091.7590              3095.8617              3100.2817
 Red. masses --      1.0996                 1.1012                 1.1004
 Frc consts  --      6.1930                 6.2186                 6.2314
 IR Inten    --     83.0077                38.2820                50.0416

                     91                     92                     93
                      A                      A                      A
 Frequencies --   3106.8140              3111.7823              3113.5103
 Red. masses --      1.1001                 1.0989                 1.0986
 Frc consts  --      6.2561                 6.2693                 6.2747
 IR Inten    --     29.4887                34.1865                43.6440

 - Thermochemistry -
 -------------------
 Temperature   298.150 Kelvin.  Pressure   1.00000 Atm.
 Atom     1 has atomic number  6 and mass  12.00000

 Molecular mass:   154.17215 amu.
 Principal axes and moments of inertia in atomic units:
                           1         2         3
     Eigenvalues --  1357.707392182.539912977.54820
           X            1.00000  -0.00168  -0.00157
           Y            0.00168   1.00000  -0.00067
           Z            0.00157   0.00067   1.00000
 This molecule is an asymmetric top.
 Rotational symmetry number  1.
 Warning -- assumption of classical behavior for rotation
           may cause significant error
 Rotational temperatures (Kelvin)      0.06379     0.03968     0.02909
 Rotational constants (GHZ):           1.32926     0.82690     0.60612
 Zero-point vibrational energy     812270.7 (Joules/Mol)
                                  194.13736 (Kcal/Mol)
 Warning -- explicit consideration of  19 degrees of freedom as
           vibrations may cause significant error
 Vibrational temperatures:     82.98   107.61   160.94   235.04   270.09
          (Kelvin)            297.95   329.56   337.42   351.06   369.70
                              398.49   430.76   472.55   522.95   595.73
                              603.63   671.70   763.56   801.67   911.13
                             1088.27  1168.25  1206.28  1253.43  1268.35
                             1293.58  1334.09  1352.64  1377.05  1386.61
                             1399.90  1447.70  1466.68  1503.88  1522.84
                             1552.09  1568.60  1589.68  1662.34  1667.92
                             1690.81  1713.44  1753.47  1767.52  1829.58
                             1850.54  1876.37  1892.65  1908.91  1927.70
                             1936.93  1947.34  1952.38  1982.24  1998.82
                             2000.38  2015.83  2029.55  2033.44  2045.83
                             2131.93  2140.54  2143.92  2148.48  2155.47
                             2158.77  2161.02  2165.39  2168.17  2172.38
                             2178.76  4287.11  4294.16  4331.17  4337.05
                             4350.27  4350.86  4353.79  4356.65  4359.58
                             4359.81  4364.48  4403.44  4422.34  4438.04
                             4440.77  4444.64  4448.35  4454.25  4460.61
                             4470.01  4477.16  4479.65

 Zero-point correction=                           0.309378 (Hartree/Particle)
 Thermal correction to Energy=                    0.322384
 Thermal correction to Enthalpy=                  0.323328
 Thermal correction to Gibbs Free Energy=         0.271211
 Sum of electronic and zero-point Energies=           -432.161559
 Sum of electronic and thermal Energies=              -432.148552
 Sum of electronic and thermal Enthalpies=            -432.147608
 Sum of electronic and thermal Free Energies=         -432.199726

                     E (Thermal)             CV                S
                      KCal/Mol        Cal/Mol-Kelvin    Cal/Mol-Kelvin
 Total                  202.299             50.550            109.691
 Electronic               0.000              0.000              0.000
 Translational            0.889              2.981             41.008
 Rotational               0.889              2.981             30.557
 Vibrational            200.522             44.589             38.126
 Vibration     1          0.596              1.974              4.535
 Vibration     2          0.599              1.966              4.023
 Vibration     3          0.607              1.940              3.236
 Vibration     4          0.623              1.887              2.510
 Vibration     5          0.632              1.857              2.250
 Vibration     6          0.641              1.830              2.069
 Vibration     7          0.652              1.797              1.886
 Vibration     8          0.654              1.788              1.844
 Vibration     9          0.659              1.773              1.774
 Vibration    10          0.667              1.751              1.682
 Vibration    11          0.678              1.716              1.552
 Vibration    12          0.692              1.675              1.420
 Vibration    13          0.712              1.619              1.268
 Vibration    14          0.737              1.547              1.107
 Vibration    15          0.778              1.440              0.912
 Vibration    16          0.782              1.428              0.894
 Vibration    17          0.824              1.324              0.746
 Vibration    18          0.886              1.182              0.586
 Vibration    19          0.913              1.124              0.529

 Optimization completed.
    -- Stationary point found.
 Normal termination of Gaussian 16 at Sun May 28 23:56:29 2023.
