 Gaussian 16, Revision A.03,
 Gaussian 16:  ES64L-G16RevA.03 25-Dec-2016

 -----------------------------
 # opt freq b3lyp/6-31g(2df,p)
 -----------------------------

 -------------------
 Title Card Required
 -------------------
 Symbolic Z-matrix:
 Charge =  0 Multiplicity = 1

 SCF Done:  E(RB3LYP) =  -736.628315198     A.U. after   13 cycles
 SCF Done:  E(RB3LYP) =  -736.636641584     A.U. after   12 cycles
 SCF Done:  E(RB3LYP) =  -736.638931992     A.U. after   12 cycles
 SCF Done:  E(RB3LYP) =  -736.640681362     A.U. after   11 cycles
 SCF Done:  E(RB3LYP) =  -736.642578540     A.U. after   11 cycles
 SCF Done:  E(RB3LYP) =  -736.643758508     A.U. after   11 cycles
 SCF Done:  E(RB3LYP) =  -736.644772730     A.U. after   11 cycles
 SCF Done:  E(RB3LYP) =  -736.645834733     A.U. after   11 cycles
 SCF Done:  E(RB3LYP) =  -736.646085616     A.U. after   11 cycles
 SCF Done:  E(RB3LYP) =  -736.646167550     A.U. after   10 cycles
 SCF Done:  E(RB3LYP) =  -736.646179252     A.U. after    9 cycles
 SCF Done:  E(RB3LYP) =  -736.646181849     A.U. after    8 cycles
 SCF Done:  E(RB3LYP) =  -736.646182587     A.U. after    7 cycles
 SCF Done:  E(RB3LYP) =  -736.646182706     A.U. after    6 cycles
 Optimization completed.
    -- Stationary point found.
 Normal termination of Gaussian 16 at Tue May 23 21:33:35 2023.

 ----------------------------------------------------------------------
 #N Geom=AllCheck Guess=TCheck SCRF=Check GenChk RB3LYP/6-31G(2df,p) Fr
 eq
 ----------------------------------------------------------------------

 Structure from the checkpoint file:  "CCC1CCCCCC1CqCOCrCOO.chk"
 -------------------
 Title Card Required
 -------------------
 Charge =  0 Multiplicity = 1

                         Standard orientation:
 ---------------------------------------------------------------------
 Center     Atomic      Atomic             Coordinates (Angstroms)
 Number     Number       Type             X           Y           Z
 ---------------------------------------------------------------------
      1          6           0       -1.521327   -1.792713    2.301940
      2          6           0       -0.742277   -2.174086    1.035266
      3          6           0       -0.985943   -1.326317   -0.243057
      4          6           0       -2.480321   -1.374251   -0.664232
      5          6           0       -3.477060   -0.371827   -0.045997
      6          6           0       -3.534994    0.969196   -0.784458
      7          6           0       -2.257144    1.805216   -0.681640
      8          6           0       -0.961378    1.120845   -1.145234
      9          6           0       -0.344931    0.090768   -0.158522
     10          6           0        1.217921    0.132041   -0.364400
     11          6           0        1.873328    1.176178    0.552565
     12          8           0        1.317607    2.455772    0.337093
     13          6           0        1.898848    3.445630    1.150755
     14          6           0        2.027968   -1.166107   -0.215162
     15          8           0        3.260052   -0.918356   -0.893630
     16          8           0        4.113813   -2.057151   -0.653191
     17          1           0       -1.186103   -2.406202    3.144700
     18          1           0       -2.596341   -1.956318    2.189717
     19          1           0       -1.369751   -0.745334    2.583212
     20          1           0       -0.975426   -3.218793    0.791355
     21          1           0        0.322378   -2.164205    1.283352
     22          1           0       -0.468654   -1.860203   -1.051568
     23          1           0       -2.827180   -2.393947   -0.455072
     24          1           0       -2.544627   -1.270601   -1.754479
     25          1           0       -3.256814   -0.195570    1.011758
     26          1           0       -4.475854   -0.824756   -0.073601
     27          1           0       -4.377324    1.558858   -0.401094
     28          1           0       -3.756073    0.776679   -1.844149
     29          1           0       -2.118553    2.139965    0.355856
     30          1           0       -2.394246    2.719125   -1.273045
     31          1           0       -0.223588    1.909700   -1.295645
     32          1           0       -1.110030    0.647167   -2.126113
     33          1           0       -0.531268    0.476874    0.851994
     34          1           0        1.393438    0.445945   -1.401452
     35          1           0        2.957890    1.196149    0.369506
     36          1           0        1.722632    0.875034    1.605727
     37          1           0        1.415056    4.395260    0.909614
     38          1           0        2.980901    3.539530    0.968182
     39          1           0        1.750871    3.232401    2.221543
     40          1           0        1.531997   -2.027443   -0.674214
     41          1           0        2.244617   -1.407700    0.832857
     42          1           0        4.084151   -2.491190   -1.518063
 ---------------------------------------------------------------------

 SCF Done:  E(RB3LYP) =  -736.646182706     A.U. after    1 cycles

 The electronic state is 1-A.
 Alpha  occ. eigenvalues --  -19.18962 -19.18746 -19.13926 -10.22744 -10.22279
 Alpha  occ. eigenvalues --  -10.22163 -10.18924 -10.18230 -10.18126 -10.17578
 Alpha  occ. eigenvalues --  -10.17192 -10.17087 -10.16988 -10.16821 -10.16677
 Alpha  occ. eigenvalues --  -10.16328  -1.11249  -1.03220  -0.90920  -0.82798
 Alpha  occ. eigenvalues --   -0.78499  -0.77546  -0.73702  -0.72126  -0.69396
 Alpha  occ. eigenvalues --   -0.65622  -0.63874  -0.63314  -0.59131  -0.57603
 Alpha  occ. eigenvalues --   -0.55457  -0.53483  -0.51752  -0.49447  -0.47935
 Alpha  occ. eigenvalues --   -0.47422  -0.45635  -0.45329  -0.44898  -0.44588
 Alpha  occ. eigenvalues --   -0.43160  -0.42574  -0.41402  -0.40550  -0.39983
 Alpha  occ. eigenvalues --   -0.38928  -0.38476  -0.38234  -0.36945  -0.36148
 Alpha  occ. eigenvalues --   -0.34946  -0.34367  -0.34190  -0.33762  -0.32155
 Alpha  occ. eigenvalues --   -0.31183  -0.30808  -0.30056  -0.29548  -0.29239
 Alpha  occ. eigenvalues --   -0.28634  -0.28358  -0.26348  -0.25014
 Alpha virt. eigenvalues --    0.03593   0.07678   0.07770   0.08818   0.09891
 Alpha virt. eigenvalues --    0.10311   0.11884   0.12314   0.12724   0.13309
 Alpha virt. eigenvalues --    0.13934   0.14351   0.15244   0.15598   0.16112

 Mulliken charges:
               1
     1  C   -0.378766
     2  C   -0.193858
     3  C    0.002656
     4  C   -0.227395
     5  C   -0.180885
     6  C   -0.185594
     7  C   -0.195583
     8  C   -0.205104
     9  C    0.002720
    10  C   -0.050309
    11  C   -0.057956
    12  O   -0.230580
    13  C   -0.229826
    14  C   -0.057619
    15  O   -0.206470
    16  O   -0.321979
    17  H    0.108650
    18  H    0.122853
    19  H    0.117293
    20  H    0.090566
    21  H    0.097705
    22  H    0.066457
    23  H    0.085769
    24  H    0.090881
    25  H    0.094464
    26  H    0.086527
    27  H    0.084377
    28  H    0.086983
    29  H    0.091815
    30  H    0.086376
    31  H    0.119543
    32  H    0.078976
    33  H    0.071439
    34  H    0.095919
    35  H    0.109213
    36  H    0.079902
    37  H    0.126072
    38  H    0.106935
    39  H    0.102945
    40  H    0.097400
    41  H    0.107758
    42  H    0.309730
 Sum of Mulliken charges =  -0.00000

 Dipole moment (field-independent basis, Debye):
    X=             -0.5294    Y=             -0.6474    Z=              0.0071  Tot=              0.8363
 Quadrupole moment (field-independent basis, Debye-Ang):
   XX=           -106.8299   YY=            -95.4022   ZZ=            -97.6994
   XY=              0.4503   XZ=             -1.5098   YZ=              6.0218

  Exact polarizability: 170.467  -5.409 159.117   1.012  -0.695 133.274
 Approx polarizability: 217.244  -7.805 217.276   0.791   0.759 208.818

                      1                      2                      3
                      A                      A                      A
 Frequencies --     31.2162                45.1869                75.0389
 Red. masses --      3.7577                 3.4182                 4.7536
 Frc consts  --      0.0022                 0.0041                 0.0158
 IR Inten    --      0.1306                 0.1127                 2.8460

                      4                      5                      6
                      A                      A                      A
 Frequencies --     79.2196                87.9327                92.6750
 Red. masses --      2.9387                 2.8749                 2.0930
 Frc consts  --      0.0109                 0.0131                 0.0106
 IR Inten    --      0.1245                 2.6668                 4.5125

                      7                      8                      9
                      A                      A                      A
 Frequencies --    111.5870               125.4104               156.1607
 Red. masses --      3.5702                 3.1425                 2.4645
 Frc consts  --      0.0262                 0.0291                 0.0354
 IR Inten    --      0.1005                 9.2990                 0.5383

                     10                     11                     12
                      A                      A                      A
 Frequencies --    183.8546               210.7563               221.1135
 Red. masses --      2.4303                 2.0963                 1.3056
 Frc consts  --      0.0484                 0.0549                 0.0376
 IR Inten    --      4.0562                 8.4821                65.5532

                     13                     14                     15
                      A                      A                      A
 Frequencies --    224.9227               235.9492               239.1451
 Red. masses --      2.3539                 1.5476                 2.9751
 Frc consts  --      0.0702                 0.0508                 0.1002
 IR Inten    --     10.6519                 2.3263                 8.2069

                     16                     17                     18
                      A                      A                      A
 Frequencies --    249.4816               278.3783               287.6923
 Red. masses --      2.5701                 1.3131                 2.3531
 Frc consts  --      0.0942                 0.0600                 0.1147
 IR Inten    --      1.7567                 0.0501                 0.5423

                     19                     20                     21
                      A                      A                      A
 Frequencies --    331.2248               342.8783               361.1191
 Red. masses --      3.3153                 1.9363                 3.6037
 Frc consts  --      0.2143                 0.1341                 0.2769
 IR Inten    --      0.1077                 0.1778                 1.8726

                     22                     23                     24
                      A                      A                      A
 Frequencies --    377.8095               386.5503               426.5601
 Red. masses --      3.4759                 2.1548                 2.6818
 Frc consts  --      0.2923                 0.1897                 0.2875
 IR Inten    --      0.6839                 0.4867                 0.4936

                     25                     26                     27
                      A                      A                      A
 Frequencies --    483.3803               511.6689               537.0713
 Red. masses --      1.7526                 2.3738                 2.3624
 Frc consts  --      0.2413                 0.3662                 0.4015
 IR Inten    --      2.3427                 0.1079                 0.2205

                     28                     29                     30
                      A                      A                      A
 Frequencies --    571.2880               620.2085               760.1535
 Red. masses --      3.3762                 2.6108                 1.9157
 Frc consts  --      0.6492                 0.5917                 0.6522
 IR Inten    --      9.2883                 5.1624                 2.3241

                     31                     32                     33
                      A                      A                      A
 Frequencies --    771.2346               793.4171               824.7185
 Red. masses --      1.7170                 2.1939                 1.6431
 Frc consts  --      0.6017                 0.8137                 0.6585
 IR Inten    --      0.1375                 0.0607                 3.3081

                     34                     35                     36
                      A                      A                      A
 Frequencies --    842.0148               865.3752               901.4054
 Red. masses --      1.9908                 1.7614                 2.3900
 Frc consts  --      0.8316                 0.7772                 1.1442
 IR Inten    --      4.8215                 1.2826                 1.1796

                     37                     38                     39
                      A                      A                      A
 Frequencies --    919.0466               930.8992               945.3688
 Red. masses --      1.8249                 1.7715                 6.1597
 Frc consts  --      0.9082                 0.9045                 3.2435
 IR Inten    --      1.2741                 0.8120                17.6007

                     40                     41                     42
                      A                      A                      A
 Frequencies --    965.1118               973.1628               999.8548
 Red. masses --      2.3530                 2.0001                 4.0705
 Frc consts  --      1.2913                 1.1160                 2.3976
 IR Inten    --      2.1641                 3.6528                12.6472

                     43                     44                     45
                      A                      A                      A
 Frequencies --   1008.1591              1015.4501              1025.5336
 Red. masses --      2.4206                 2.0866                 2.9071
 Frc consts  --      1.4495                 1.2677                 1.8014
 IR Inten    --      9.6744                 7.1876                 7.5138

                     46                     47                     48
                      A                      A                      A
 Frequencies --   1058.7812              1067.8125              1075.0186
 Red. masses --      1.6730                 1.9179                 1.9198
 Frc consts  --      1.1050                 1.2884                 1.3072
 IR Inten    --      2.7838                 4.8416                 1.2814

                     49                     50                     51
                      A                      A                      A
 Frequencies --   1089.1891              1110.6113              1126.2963
 Red. masses --      2.1286                 2.1724                 2.3558
 Frc consts  --      1.4878                 1.5788                 1.7607
 IR Inten    --      2.6654                 3.7749                 5.0750

                     52                     53                     54
                      A                      A                      A
 Frequencies --   1131.9705              1141.6058              1164.8040
 Red. masses --      2.2110                 2.5260                 4.4145
 Frc consts  --      1.6692                 1.9396                 3.5289
 IR Inten    --     13.8186                 1.5287               148.8831

                     55                     56                     57
                      A                      A                      A
 Frequencies --   1170.7458              1184.4333              1196.7196
 Red. masses --      1.7036                 1.3380                 1.9176
 Frc consts  --      1.3758                 1.1059                 1.6180
 IR Inten    --     17.9109                 2.2045                 3.2739

                     58                     59                     60
                      A                      A                      A
 Frequencies --   1221.4817              1230.8459              1251.3375
 Red. masses --      1.2154                 1.5926                 1.2552
 Frc consts  --      1.0684                 1.4215                 1.1580
 IR Inten    --      4.2613                25.7353                 4.0685

                     61                     62                     63
                      A                      A                      A
 Frequencies --   1252.9550              1264.6012              1285.6436
 Red. masses --      1.3313                 1.2438                 1.1942
 Frc consts  --      1.2314                 1.1720                 1.1630
 IR Inten    --      3.2601                 0.6855                 4.6200

                     64                     65                     66
                      A                      A                      A
 Frequencies --   1300.0978              1307.7666              1323.7087
 Red. masses --      1.2199                 1.1662                 1.1638
 Frc consts  --      1.2149                 1.1751                 1.2015
 IR Inten    --      0.2070                 3.3788                 7.3294

                     67                     68                     69
                      A                      A                      A
 Frequencies --   1331.8511              1340.3262              1348.0059
 Red. masses --      1.2199                 1.2622                 1.2689
 Frc consts  --      1.2749                 1.3359                 1.3585
 IR Inten    --      1.9062                 1.8766                 0.7796

                     70                     71                     72
                      A                      A                      A
 Frequencies --   1363.2305              1371.0902              1378.2068
 Red. masses --      1.2403                 1.3047                 1.3709
 Frc consts  --      1.3580                 1.4450                 1.5342
 IR Inten    --      5.2066                 2.0153                 0.2622

                     73                     74                     75
                      A                      A                      A
 Frequencies --   1386.5408              1387.0604              1390.5441
 Red. masses --      1.3059                 1.2129                 1.3246
 Frc consts  --      1.4792                 1.3748                 1.5091
 IR Inten    --     23.6954                27.1797                 3.7362

                     76                     77                     78
                      A                      A                      A
 Frequencies --   1392.6200              1401.1225              1411.9743
 Red. masses --      1.3975                 1.3945                 1.3170
 Frc consts  --      1.5969                 1.6130                 1.5470
 IR Inten    --      2.5665                 0.5836                 2.9381

                     79                     80                     81
                      A                      A                      A
 Frequencies --   1416.3339              1421.0317              1425.0529
 Red. masses --      1.2636                 1.3054                 1.3413
 Frc consts  --      1.4934                 1.5531                 1.6048
 IR Inten    --      6.3248                 8.4942                 8.7546

                     82                     83                     84
                      A                      A                      A
 Frequencies --   1478.6391              1480.3966              1483.9557
 Red. masses --      1.1043                 1.1218                 1.0876
 Frc consts  --      1.4225                 1.4486                 1.4111
 IR Inten    --      1.4433                 0.9870                 2.1080

                     85                     86                     87
                      A                      A                      A
 Frequencies --   1484.9264              1486.0555              1488.2495
 Red. masses --      1.0482                 1.0904                 1.0781
 Frc consts  --      1.3617                 1.4188                 1.4068
 IR Inten    --      4.4318                 0.0265                 4.1443

                     88                     89                     90
                      A                      A                      A
 Frequencies --   1495.7924              1503.1351              1503.9967
 Red. masses --      1.0888                 1.0580                 1.0699
 Frc consts  --      1.4354                 1.4085                 1.4258
 IR Inten    --      4.3982                12.8392                 0.8294

                     91                     92                     93
                      A                      A                      A
 Frequencies --   1506.6490              1511.4580              1523.6741
 Red. masses --      1.0630                 1.0595                 1.0798
 Frc consts  --      1.4217                 1.4261                 1.4770
 IR Inten    --     13.3870                 6.0786                 7.7434

                     94                     95                     96
                      A                      A                      A
 Frequencies --   1531.5434              2934.4125              2969.8854
 Red. masses --      1.0951                 1.0660                 1.0383
 Frc consts  --      1.5134                 5.4082                 5.3960
 IR Inten    --      3.2113                34.4274                75.9607

                     97                     98                     99
                      A                      A                      A
 Frequencies --   2992.7847              3001.0911              3005.1200
 Red. masses --      1.0783                 1.0646                 1.0694
 Frc consts  --      5.6903                 5.6492                 5.6900
 IR Inten    --     15.7345                21.2563                 4.1519

                    100                    101                    102
                      A                      A                      A
 Frequencies --   3008.2309              3008.5403              3013.7396
 Red. masses --      1.0855                 1.0729                 1.0775
 Frc consts  --      5.7874                 5.7217                 5.7659
 IR Inten    --     38.2394                25.9789                18.8533

                    103                    104                    105
                      A                      A                      A
 Frequencies --   3014.2555              3016.5740              3018.7103
 Red. masses --      1.0874                 1.0717                 1.0687
 Frc consts  --      5.8211                 5.7457                 5.7381
 IR Inten    --     10.7632                31.1628                11.5048

                    106                    107                    108
                      A                      A                      A
 Frequencies --   3025.1935              3029.7238              3031.0468
 Red. masses --      1.0716                 1.0729                 1.0782
 Frc consts  --      5.7783                 5.8025                 5.8363
 IR Inten    --     25.3141                63.7278                58.8833

                    109                    110                    111
                      A                      A                      A
 Frequencies --   3036.9219              3043.0031              3047.6868
 Red. masses --      1.0378                 1.0945                 1.0985
 Frc consts  --      5.6395                 5.9712                 6.0117
 IR Inten    --     24.6492                62.8769                19.2228

                    112                    113                    114
                      A                      A                      A
 Frequencies --   3051.6222              3070.8544              3080.6027
 Red. masses --      1.1000                 1.1051                 1.0955
 Frc consts  --      6.0356                 6.1401                 6.1252
 IR Inten    --     85.6291                38.3422                61.3675

                    115                    116                    117
                      A                      A                      A
 Frequencies --   3088.1525              3096.2831              3113.3905
 Red. masses --      1.0892                 1.0996                 1.0960
 Frc consts  --      6.1199                 6.2109                 6.2594
 IR Inten    --     22.5076                39.6323                28.1571

                    118                    119                    120
                      A                      A                      A
 Frequencies --   3114.7497              3117.8382              3746.4017
 Red. masses --      1.0897                 1.0995                 1.0687
 Frc consts  --      6.2289                 6.2974                 8.8375
 IR Inten    --      7.9653                41.5331                30.8657

 - Thermochemistry -
 -------------------
 Temperature   298.150 Kelvin.  Pressure   1.00000 Atm.
 Atom     1 has atomic number  6 and mass  12.00000

 Molecular mass:   230.18819 amu.
 Principal axes and moments of inertia in atomic units:
                           1         2         3
     Eigenvalues --  3156.719745265.613636915.54296
           X            0.99961   0.02690   0.00691
           Y           -0.02687   0.99963  -0.00475
           Z           -0.00704   0.00456   0.99996
 This molecule is an asymmetric top.
 Rotational symmetry number  1.
 Warning -- assumption of classical behavior for rotation
           may cause significant error
 Rotational temperatures (Kelvin)      0.02744     0.01645     0.01252
 Rotational constants (GHZ):           0.57171     0.34274     0.26097
 Zero-point vibrational energy    1000694.7 (Joules/Mol)
                                  239.17177 (Kcal/Mol)
 Warning -- explicit consideration of  29 degrees of freedom as
           vibrations may cause significant error
 Vibrational temperatures:     44.91    65.01   107.96   113.98   126.52
          (Kelvin)            133.34   160.55   180.44   224.68   264.53
                              303.23   318.13   323.61   339.48   344.08
                              358.95   400.52   413.93   476.56   493.33
                              519.57   543.58   556.16   613.72   695.48
                              736.18   772.73   821.96   892.34  1093.69
                             1109.63  1141.55  1186.59  1211.47  1245.08
                             1296.92  1322.30  1339.36  1360.17  1388.58
                             1400.16  1438.57  1450.52  1461.01  1475.51
                             1523.35  1536.34  1546.71  1567.10  1597.92
                             1620.49  1628.65  1642.52  1675.89  1684.44
                             1704.14  1721.81  1757.44  1770.91  1800.40
                             1802.72  1819.48  1849.75  1870.55  1881.58
                             1904.52  1916.24  1928.43  1939.48  1961.38
                             1972.69  1982.93  1994.92  1995.67  2000.68
                             2003.67  2015.90  2031.52  2037.79  2044.55
                             2050.33  2127.43  2129.96  2135.08  2136.48
                             2138.10  2141.26  2152.11  2162.68  2163.92
                             2167.73  2174.65  2192.23  2203.55  4221.97
                             4273.00  4305.95  4317.90  4323.70  4328.17
                             4328.62  4336.10  4336.84  4340.18  4343.25
                             4352.58  4359.10  4361.00  4369.45  4378.20
                             4384.94  4390.60  4418.27  4432.30  4443.16
                             4454.86  4479.47  4481.43  4485.87  5390.24

 Zero-point correction=                           0.381144 (Hartree/Particle)
 Thermal correction to Energy=                    0.399823
 Thermal correction to Enthalpy=                  0.400767
 Thermal correction to Gibbs Free Energy=         0.334351
 Sum of electronic and zero-point Energies=           -736.265038
 Sum of electronic and thermal Energies=              -736.246360
 Sum of electronic and thermal Enthalpies=            -736.245416
 Sum of electronic and thermal Free Energies=         -736.311832

                     E (Thermal)             CV                S
                      KCal/Mol        Cal/Mol-Kelvin    Cal/Mol-Kelvin
 Total                  250.893             69.753            139.785
 Electronic               0.000              0.000              0.000
 Translational            0.889              2.981             42.203
 Rotational               0.889              2.981             33.108
 Vibrational            249.115             63.791             64.474
 Vibration     1          0.594              1.983              5.751
 Vibration     2          0.595              1.979              5.018
 Vibration     3          0.599              1.966              4.017
 Vibration     4          0.600              1.963              3.910
 Vibration     5          0.601              1.958              3.706
 Vibration     6          0.602              1.954              3.603
 Vibration     7          0.607              1.940              3.241
 Vibration     8          0.610              1.928              3.015
 Vibration     9          0.620              1.896              2.596
 Vibration    10          0.631              1.862              2.289
 Vibration    11          0.643              1.824              2.037
 Vibration    12          0.648              1.809              1.950
 Vibration    13          0.650              1.803              1.919
 Vibration    14          0.655              1.786              1.833
 Vibration    15          0.657              1.781              1.809
 Vibration    16          0.662              1.764              1.734
 Vibration    17          0.679              1.714              1.544
 Vibration    18          0.685              1.697              1.487
 Vibration    19          0.714              1.613              1.254
 Vibration    20          0.722              1.590              1.199
 Vibration    21          0.735              1.552              1.117
 Vibration    22          0.748              1.517              1.048
 Vibration    23          0.755              1.499              1.013
 Vibration    24          0.788              1.412              0.870
 Vibration    25          0.840              1.287              0.701
 Vibration    26          0.867              1.224              0.630
 Vibration    27          0.892              1.168              0.572
 Vibration    28          0.927              1.093              0.502
 Vibration    29          0.980              0.989              0.416

                           ! Non-Optimized Parameters !
 Normal termination of Gaussian 16 at Wed May 24 02:30:56 2023.
