 Gaussian 16, Revision A.03,
 Gaussian 16:  ES64L-G16RevA.03 25-Dec-2016

 -----------------------------
 # opt freq b3lyp/6-31g(2df,p)
 -----------------------------

 -------------------
 Title Card Required
 -------------------
 Symbolic Z-matrix:
 Charge =  0 Multiplicity = 1

 SCF Done:  E(RB3LYP) =  -235.849379458     A.U. after   11 cycles
 SCF Done:  E(RB3LYP) =  -235.856424197     A.U. after   10 cycles
 SCF Done:  E(RB3LYP) =  -235.857334809     A.U. after    9 cycles
 SCF Done:  E(RB3LYP) =  -235.859103146     A.U. after   10 cycles
 SCF Done:  E(RB3LYP) =  -235.860046554     A.U. after    9 cycles
 SCF Done:  E(RB3LYP) =  -235.860644108     A.U. after    9 cycles
 SCF Done:  E(RB3LYP) =  -235.860691726     A.U. after    8 cycles
 SCF Done:  E(RB3LYP) =  -235.860743171     A.U. after    9 cycles
 SCF Done:  E(RB3LYP) =  -235.860748004     A.U. after    8 cycles
 SCF Done:  E(RB3LYP) =  -235.860771874     A.U. after    8 cycles
 SCF Done:  E(RB3LYP) =  -235.860774071     A.U. after    7 cycles
 SCF Done:  E(RB3LYP) =  -235.860775332     A.U. after    6 cycles
 Optimization completed.
    -- Stationary point found.
 Normal termination of Gaussian 16 at Sun May 28 08:15:35 2023.

 ----------------------------------------------------------------------
 #N Geom=AllCheck Guess=TCheck SCRF=Check GenChk RB3LYP/6-31G(2df,p) Fr
 eq
 ----------------------------------------------------------------------

 Structure from the checkpoint file:  "CCC1CCC1.chk"
 -------------------
 Title Card Required
 -------------------
 Charge =  0 Multiplicity = 1

                         Standard orientation:
 ---------------------------------------------------------------------
 Center     Atomic      Atomic             Coordinates (Angstroms)
 Number     Number       Type             X           Y           Z
 ---------------------------------------------------------------------
      1          6           0        2.103661    0.001078   -0.721889
      2          6           0        1.455311   -0.001191    0.666819
      3          6           0       -0.074178   -0.001033    0.695126
      4          6           0       -0.896745    1.083435   -0.061290
      5          6           0       -1.969855    0.000696   -0.354709
      6          6           0       -0.897293   -1.083261   -0.063819
      7          1           0        3.194816    0.000740   -0.635981
      8          1           0        1.822398    0.885907   -1.301974
      9          1           0        1.822152   -0.881630   -1.305081
     10          1           0        1.811805    0.873576    1.227746
     11          1           0        1.811606   -0.877882    1.224867
     12          1           0       -0.393406   -0.002223    1.744621
     13          1           0       -0.398542    1.405660   -0.980684
     14          1           0       -1.199542    1.973272    0.497044
     15          1           0       -2.437202    0.001924   -1.342318
     16          1           0       -2.759834    0.000055    0.402096
     17          1           0       -0.399209   -1.403371   -0.984030
     18          1           0       -1.200458   -1.974372    0.492263
 ---------------------------------------------------------------------

 SCF Done:  E(RB3LYP) =  -235.860775332     A.U. after    1 cycles

 The electronic state is 1-A.
 Alpha  occ. eigenvalues --  -10.17865 -10.17438 -10.17394 -10.17152 -10.17151
 Alpha  occ. eigenvalues --  -10.16892  -0.83662  -0.75317  -0.65725  -0.64864
 Alpha  occ. eigenvalues --   -0.59073  -0.52807  -0.47245  -0.45328  -0.43828
 Alpha  occ. eigenvalues --   -0.40844  -0.38048  -0.36158  -0.35394  -0.34340
 Alpha  occ. eigenvalues --   -0.32203  -0.30401  -0.28936  -0.28589
 Alpha virt. eigenvalues --    0.08908   0.09923   0.11347   0.12766   0.15206
 Alpha virt. eigenvalues --    0.15650   0.16098   0.18235   0.18765   0.19596
 Alpha virt. eigenvalues --    0.19876   0.20790   0.23094   0.23440   0.24065

 Mulliken charges:
               1
     1  C   -0.378595
     2  C   -0.206294
     3  C    0.071763
     4  C   -0.224262
     5  C   -0.203023
     6  C   -0.224260
     7  H    0.111106
     8  H    0.116515
     9  H    0.116506
    10  H    0.093013
    11  H    0.093006
    12  H    0.066495
    13  H    0.098589
    14  H    0.089779
    15  H    0.092281
    16  H    0.099020
    17  H    0.098579
    18  H    0.089781
 Sum of Mulliken charges =  -0.00000

 Dipole moment (field-independent basis, Debye):
    X=              0.0873    Y=             -0.0001    Z=              0.1167  Tot=              0.1457
 Quadrupole moment (field-independent basis, Debye-Ang):
   XX=            -40.0791   YY=            -39.9155   ZZ=            -39.2684
   XY=              0.0004   XZ=             -0.2661   YZ=             -0.0006

  Exact polarizability:  70.836  -0.001  60.483   0.395   0.001  59.181
 Approx polarizability:  88.354  -0.000  86.939   0.178   0.001  86.439

                      1                      2                      3
                      A                      A                      A
 Frequencies --     83.0215               135.9976               230.9922
 Red. masses --      1.6407                 2.0598                 1.2792
 Frc consts  --      0.0067                 0.0224                 0.0402
 IR Inten    --      0.0000                 0.0004                 0.0099

                      4                      5                      6
                      A                      A                      A
 Frequencies --    279.4598               316.7828               519.8576
 Red. masses --      2.3079                 1.8471                 2.0059
 Frc consts  --      0.1062                 0.1092                 0.3194
 IR Inten    --      0.0197                 0.0378                 1.8653

                      7                      8                      9
                      A                      A                      A
 Frequencies --    590.6906               737.8482               749.8398
 Red. masses --      2.5155                 1.5169                 1.2271
 Frc consts  --      0.5171                 0.4866                 0.4065
 IR Inten    --      1.7040                 0.2924                 2.2647

                     10                     11                     12
                      A                      A                      A
 Frequencies --    801.5621               890.6609               924.2353
 Red. masses --      1.1875                 2.2609                 2.2026
 Frc consts  --      0.4495                 1.0567                 1.1085
 IR Inten    --      0.0772                 1.4516                 0.5723

                     13                     14                     15
                      A                      A                      A
 Frequencies --    928.8407               933.3771               990.3716
 Red. masses --      1.9187                 2.4255                 1.0701
 Frc consts  --      0.9753                 1.2450                 0.6184
 IR Inten    --      1.1578                 1.0028                 0.0005

                     16                     17                     18
                      A                      A                      A
 Frequencies --    990.7592              1017.0408              1132.9015
 Red. masses --      2.4286                 1.4502                 2.2079
 Frc consts  --      1.4046                 0.8838                 1.6696
 IR Inten    --      1.0803                 0.5968                 1.2736

                     19                     20                     21
                      A                      A                      A
 Frequencies --   1141.6679              1157.8645              1206.5492
 Red. masses --      1.6276                 2.3213                 1.4333
 Frc consts  --      1.2499                 1.8336                 1.2294
 IR Inten    --      0.2611                 1.6744                 0.1599

                     22                     23                     24
                      A                      A                      A
 Frequencies --   1242.9181              1255.8577              1263.6382
 Red. masses --      1.3406                 1.2259                 1.2570
 Frc consts  --      1.2202                 1.1392                 1.1826
 IR Inten    --      0.4414                 0.1910                 0.3152

                     25                     26                     27
                      A                      A                      A
 Frequencies --   1277.4390              1283.5522              1333.0788
 Red. masses --      1.4719                 1.2265                 1.3021
 Frc consts  --      1.4152                 1.1906                 1.3633
 IR Inten    --      1.1901                 0.0081                 0.2479

                     28                     29                     30
                      A                      A                      A
 Frequencies --   1356.5112              1390.0965              1417.2831
 Red. masses --      1.7231                 1.2870                 1.2904
 Frc consts  --      1.8682                 1.4652                 1.5271
 IR Inten    --      0.0906                 8.5166                 9.3084

                     31                     32                     33
                      A                      A                      A
 Frequencies --   1477.5500              1479.9281              1486.4300
 Red. masses --      1.0882                 1.0719                 1.0837
 Frc consts  --      1.3997                 1.3833                 1.4108
 IR Inten    --      0.0000                 0.4943                 2.1230

                     34                     35                     36
                      A                      A                      A
 Frequencies --   1503.9249              1504.9175              1513.3288
 Red. masses --      1.0421                 1.0819                 1.1207
 Frc consts  --      1.3887                 1.4436                 1.5121
 IR Inten    --      4.9283                 4.4807                 0.6147

                     37                     38                     39
                      A                      A                      A
 Frequencies --   3004.0335              3026.5184              3036.1281
 Red. masses --      1.0624                 1.0805                 1.0370
 Frc consts  --      5.6488                 5.8314                 5.6321
 IR Inten    --     20.7664                50.0707                10.3403

                     40                     41                     42
                      A                      A                      A
 Frequencies --   3036.6229              3049.9946              3051.5542
 Red. masses --      1.1014                 1.0569                 1.0565
 Frc consts  --      5.9839                 5.7925                 5.7967
 IR Inten    --     25.2104                61.5524                33.9110

                     43                     44                     45
                      A                      A                      A
 Frequencies --   3058.5032              3092.6030              3098.6358
 Red. masses --      1.0618                 1.1058                 1.1063
 Frc consts  --      5.8518                 6.2313                 6.2582
 IR Inten    --     14.8104                26.1774                47.6027

                     46                     47                     48
                      A                      A                      A
 Frequencies --   3101.4098              3105.7347              3116.1032
 Red. masses --      1.1010                 1.1025                 1.1070
 Frc consts  --      6.2394                 6.2657                 6.3331
 IR Inten    --     28.0649                14.5653                82.0116

 - Thermochemistry -
 -------------------
 Temperature   298.150 Kelvin.  Pressure   1.00000 Atm.
 Atom     1 has atomic number  6 and mass  12.00000

 Molecular mass:    84.09390 amu.
 Principal axes and moments of inertia in atomic units:
                           1         2         3
     Eigenvalues --   272.95488 779.90434 814.89480
           X            0.99996   0.00001  -0.00841
           Y           -0.00001   1.00000  -0.00012
           Z            0.00841   0.00012   0.99996
 This molecule is an asymmetric top.
 Rotational symmetry number  1.
 Rotational temperatures (Kelvin)      0.31732     0.11106     0.10629
 Rotational constants (GHZ):           6.61187     2.31405     2.21469
 Zero-point vibrational energy     438578.6 (Joules/Mol)
                                  104.82280 (Kcal/Mol)
 Warning -- explicit consideration of   7 degrees of freedom as
           vibrations may cause significant error
 Vibrational temperatures:    119.45   195.67   332.35   402.08   455.78
          (Kelvin)            747.96   849.87  1061.60  1078.85  1153.27
                             1281.46  1329.77  1336.39  1342.92  1424.92
                             1425.48  1463.29  1629.99  1642.61  1665.91
                             1735.96  1788.28  1806.90  1818.09  1837.95
                             1846.75  1918.00  1951.72  2000.04  2039.15
                             2125.86  2129.29  2138.64  2163.81  2165.24
                             2177.34  4322.13  4354.49  4368.31  4369.02
                             4388.26  4390.51  4400.50  4449.57  4458.25
                             4462.24  4468.46  4483.38

 Zero-point correction=                           0.167046 (Hartree/Particle)
 Thermal correction to Energy=                    0.173839
 Thermal correction to Enthalpy=                  0.174783
 Thermal correction to Gibbs Free Energy=         0.136595
 Sum of electronic and zero-point Energies=           -235.693730
 Sum of electronic and thermal Energies=              -235.686937
 Sum of electronic and thermal Enthalpies=            -235.685992
 Sum of electronic and thermal Free Energies=         -235.724181

                     E (Thermal)             CV                S
                      KCal/Mol        Cal/Mol-Kelvin    Cal/Mol-Kelvin
 Total                  109.085             25.112             80.374
 Electronic               0.000              0.000              0.000
 Translational            0.889              2.981             39.202
 Rotational               0.889              2.981             26.653
 Vibrational            107.308             19.150             14.520
 Vibration     1          0.600              1.961              3.818
 Vibration     2          0.614              1.917              2.859
 Vibration     3          0.653              1.794              1.871
 Vibration     4          0.680              1.712              1.537
 Vibration     5          0.704              1.642              1.327
 Vibration     6          0.875              1.206              0.610
 Vibration     7          0.948              1.052              0.466

 Optimization completed.
    -- Stationary point found.
 Normal termination of Gaussian 16 at Sun May 28 08:30:21 2023.
