 Gaussian 16, Revision A.03,
 Gaussian 16:  ES64L-G16RevA.03 25-Dec-2016

 -----------------------------
 # opt freq b3lyp/6-31g(2df,p)
 -----------------------------

 -------------------
 Title Card Required
 -------------------
 Symbolic Z-matrix:
 Charge =  0 Multiplicity = 1

 SCF Done:  E(RB3LYP) =  -661.411046587     A.U. after   13 cycles
 SCF Done:  E(RB3LYP) =  -661.427516882     A.U. after   11 cycles
 SCF Done:  E(RB3LYP) =  -661.433797531     A.U. after   11 cycles
 SCF Done:  E(RB3LYP) =  -661.435991115     A.U. after   10 cycles
 SCF Done:  E(RB3LYP) =  -661.437106173     A.U. after   11 cycles
 SCF Done:  E(RB3LYP) =  -661.438030025     A.U. after   12 cycles
 SCF Done:  E(RB3LYP) =  -661.438079827     A.U. after   13 cycles
 SCF Done:  E(RB3LYP) =  -661.438442970     A.U. after   12 cycles
 SCF Done:  E(RB3LYP) =  -661.438551987     A.U. after    9 cycles
 SCF Done:  E(RB3LYP) =  -661.438615503     A.U. after   10 cycles
 SCF Done:  E(RB3LYP) =  -661.438641363     A.U. after   10 cycles
 SCF Done:  E(RB3LYP) =  -661.438642987     A.U. after    7 cycles
 SCF Done:  E(RB3LYP) =  -661.438642248     A.U. after    8 cycles
 SCF Done:  E(RB3LYP) =  -661.438643412     A.U. after    8 cycles
 SCF Done:  E(RB3LYP) =  -661.438643592     A.U. after    6 cycles
 SCF Done:  E(RB3LYP) =  -661.438643640     A.U. after    6 cycles
 Optimization completed.
    -- Stationary point found.
 Normal termination of Gaussian 16 at Wed May 24 12:54:29 2023.

 ----------------------------------------------------------------------
 #N Geom=AllCheck Guess=TCheck SCRF=Check GenChk RB3LYP/6-31G(2df,p) Fr
 eq
 ----------------------------------------------------------------------

 Structure from the checkpoint file:  "CCC1CCCqCrCCCqOOrCqCrC1.chk"
 -------------------
 Title Card Required
 -------------------
 Charge =  0 Multiplicity = 1

                         Standard orientation:
 ---------------------------------------------------------------------
 Center     Atomic      Atomic             Coordinates (Angstroms)
 Number     Number       Type             X           Y           Z
 ---------------------------------------------------------------------
      1          6           0       -2.037108   -2.881920    1.416645
      2          6           0       -0.874985   -2.046753    0.865642
      3          6           0       -1.035607   -1.661375   -0.623910
      4          6           0       -2.204299   -0.661739   -0.915256
      5          6           0       -1.935803    0.848967   -1.054501
      6          6           0       -1.501185    1.603110    0.229748
      7          6           0       -2.645811    2.462562    0.785335
      8          6           0       -0.235680    2.462369    0.025688
      9          6           0        0.979808    1.722325   -0.558343
     10          6           0        1.387767    0.465317    0.231925
     11          8           0        2.620028    0.844586    0.873358
     12          8           0        2.956607   -0.170717    1.847681
     13          6           0        1.563217   -0.827534   -0.592979
     14          6           0        2.732579   -0.698654   -1.583674
     15          6           0        0.308409   -1.331629   -1.355521
     16          1           0       -1.855575   -3.162773    2.459020
     17          1           0       -2.164599   -3.805584    0.840614
     18          1           0       -2.988681   -2.341744    1.386101
     19          1           0        0.046362   -2.630220    0.978269
     20          1           0       -0.745367   -1.160273    1.495274
     21          1           0       -1.377002   -2.591124   -1.098245
     22          1           0       -2.983763   -0.809350   -0.157295
     23          1           0       -2.663793   -0.976807   -1.860512
     24          1           0       -2.861850    1.302366   -1.429715
     25          1           0       -1.206917    1.009816   -1.854009
     26          1           0       -1.272387    0.857864    0.998695
     27          1           0       -2.923991    3.250160    0.074791
     28          1           0       -2.364098    2.947389    1.726551
     29          1           0       -3.538996    1.857597    0.975076
     30          1           0        0.044459    2.903425    0.991536
     31          1           0       -0.478280    3.306486   -0.634159
     32          1           0        1.839142    2.401196   -0.576602
     33          1           0        0.793647    1.456903   -1.602037
     34          1           0        0.667913    0.275074    1.032368
     35          1           0        2.740994    0.294898    2.668211
     36          1           0        1.842443   -1.594716    0.137245
     37          1           0        2.511073    0.022089   -2.379513
     38          1           0        2.937422   -1.660858   -2.063586
     39          1           0        3.639454   -0.369185   -1.072824
     40          1           0        0.640985   -2.256537   -1.841594
     41          1           0        0.100523   -0.647310   -2.186767
 ---------------------------------------------------------------------

 SCF Done:  E(RB3LYP) =  -661.438643640     A.U. after    1 cycles

 The electronic state is 1-A.
 Alpha  occ. eigenvalues --  -19.18422 -19.18306 -10.22365 -10.18343 -10.18236
 Alpha  occ. eigenvalues --  -10.17833 -10.17782 -10.17768 -10.17592 -10.17540
 Alpha  occ. eigenvalues --  -10.17496 -10.17312 -10.17119 -10.17113 -10.16128
 Alpha  occ. eigenvalues --   -1.10557  -0.90518  -0.82265  -0.79912  -0.77822
 Alpha  occ. eigenvalues --   -0.74647  -0.72400  -0.69479  -0.66212  -0.64585
 Alpha  occ. eigenvalues --   -0.62312  -0.60468  -0.57346  -0.54105  -0.53585
 Alpha  occ. eigenvalues --   -0.50834  -0.47822  -0.47076  -0.45504  -0.45353
 Alpha  occ. eigenvalues --   -0.44377  -0.43061  -0.42252  -0.41681  -0.41052
 Alpha  occ. eigenvalues --   -0.40358  -0.39009  -0.38547  -0.37639  -0.37067
 Alpha  occ. eigenvalues --   -0.36131  -0.35297  -0.35230  -0.34937  -0.34529
 Alpha  occ. eigenvalues --   -0.33679  -0.33237  -0.31834  -0.31418  -0.30023
 Alpha  occ. eigenvalues --   -0.29809  -0.29529  -0.28864  -0.27945  -0.25254
 Alpha virt. eigenvalues --    0.04064   0.07197   0.07772   0.08802   0.09510
 Alpha virt. eigenvalues --    0.10921   0.11086   0.12695   0.12999   0.13515
 Alpha virt. eigenvalues --    0.13877   0.14784   0.15691   0.15824   0.16134

 Mulliken charges:
               1
     1  C   -0.396106
     2  C   -0.182945
     3  C    0.037082
     4  C   -0.228296
     5  C   -0.200380
     6  C    0.068561
     7  C   -0.408858
     8  C   -0.209529
     9  C   -0.251170
    10  C    0.198684
    11  O   -0.210915
    12  O   -0.335932
    13  C   -0.008698
    14  C   -0.407397
    15  C   -0.241935
    16  H    0.110028
    17  H    0.113578
    18  H    0.117565
    19  H    0.099539
    20  H    0.100195
    21  H    0.073816
    22  H    0.094280
    23  H    0.091681
    24  H    0.088482
    25  H    0.091774
    26  H    0.073085
    27  H    0.112534
    28  H    0.106757
    29  H    0.109661
    30  H    0.093950
    31  H    0.090355
    32  H    0.114536
    33  H    0.104880
    34  H    0.052801
    35  H    0.307671
    36  H    0.093378
    37  H    0.108247
    38  H    0.105578
    39  H    0.134279
    40  H    0.096364
    41  H    0.092817
 Sum of Mulliken charges =  -0.00000

 Dipole moment (field-independent basis, Debye):
    X=             -1.5785    Y=              0.1964    Z=              0.5037  Tot=              1.6686
 Quadrupole moment (field-independent basis, Debye-Ang):
   XX=           -104.0629   YY=            -95.6058   ZZ=            -90.5571
   XY=              0.2426   XZ=              1.1349   YZ=              1.1045

  Exact polarizability: 155.868  -2.481 150.150  -0.764  -1.015 137.356
 Approx polarizability: 207.258  -2.898 209.481   4.498  -5.620 211.865

                      1                      2                      3
                      A                      A                      A
 Frequencies --     50.3745                72.5439                76.0627
 Red. masses --      3.5510                 3.4367                 2.9110
 Frc consts  --      0.0053                 0.0107                 0.0099
 IR Inten    --      0.3470                 0.0341                 0.6355

                      4                      5                      6
                      A                      A                      A
 Frequencies --    101.7328               122.5947               133.9449
 Red. masses --      2.0368                 2.8742                 3.1133
 Frc consts  --      0.0124                 0.0255                 0.0329
 IR Inten    --      0.3156                 0.1318                 0.3555

                      7                      8                      9
                      A                      A                      A
 Frequencies --    154.6058               177.9032               209.5705
 Red. masses --      2.9814                 2.8373                 1.1270
 Frc consts  --      0.0420                 0.0529                 0.0292
 IR Inten    --      4.9485                 0.2505                 0.1344

                     10                     11                     12
                      A                      A                      A
 Frequencies --    213.0310               222.1155               230.9657
 Red. masses --      1.7174                 1.6707                 1.4502
 Frc consts  --      0.0459                 0.0486                 0.0456
 IR Inten    --     56.5980                34.1323                 2.1702

                     13                     14                     15
                      A                      A                      A
 Frequencies --    241.5283               257.3101               270.2094
 Red. masses --      1.6532                 1.3320                 2.6273
 Frc consts  --      0.0568                 0.0520                 0.1130
 IR Inten    --      7.6551                 0.5139                 4.2867

                     16                     17                     18
                      A                      A                      A
 Frequencies --    287.4660               296.8964               326.4702
 Red. masses --      2.3381                 2.2120                 2.0110
 Frc consts  --      0.1138                 0.1149                 0.1263
 IR Inten    --      4.7091                 1.4738                 0.3429

                     19                     20                     21
                      A                      A                      A
 Frequencies --    327.8857               349.7985               392.1243
 Red. masses --      3.0161                 2.7343                 2.0732
 Frc consts  --      0.1910                 0.1971                 0.1878
 IR Inten    --      0.2837                 0.9439                 0.2360

                     22                     23                     24
                      A                      A                      A
 Frequencies --    411.5177               448.1831               479.6967
 Red. masses --      2.1578                 2.4864                 2.4033
 Frc consts  --      0.2153                 0.2943                 0.3258
 IR Inten    --      0.2707                 1.3694                 1.5834

                     25                     26                     27
                      A                      A                      A
 Frequencies --    504.2002               538.1985               580.2421
 Red. masses --      3.1692                 4.2547                 2.5309
 Frc consts  --      0.4747                 0.7261                 0.5020
 IR Inten    --      1.2178                 3.5311                 1.7406

                     28                     29                     30
                      A                      A                      A
 Frequencies --    648.1025               698.6857               731.0932
 Red. masses --      2.9609                 2.5776                 1.8275
 Frc consts  --      0.7327                 0.7414                 0.5755
 IR Inten    --      2.6169                 0.9324                 0.7427

                     31                     32                     33
                      A                      A                      A
 Frequencies --    773.6004               807.4616               829.5532
 Red. masses --      1.5331                 2.0343                 1.7967
 Frc consts  --      0.5406                 0.7815                 0.7285
 IR Inten    --      0.3652                 1.3141                 1.0890

                     34                     35                     36
                      A                      A                      A
 Frequencies --    848.7900               883.7693               905.4738
 Red. masses --      1.8244                 2.0030                 2.0068
 Frc consts  --      0.7744                 0.9217                 0.9694
 IR Inten    --      2.1787                 7.4113                 4.2380

                     37                     38                     39
                      A                      A                      A
 Frequencies --    907.6886               931.3488               951.0441
 Red. masses --      1.6531                 3.3850                 3.3850
 Frc consts  --      0.8024                 1.7299                 1.8039
 IR Inten    --      2.3452                10.1404                 2.1146

                     40                     41                     42
                      A                      A                      A
 Frequencies --    958.0026               961.2417               975.1991
 Red. masses --      1.6803                 1.8439                 1.8934
 Frc consts  --      0.9086                 1.0038                 1.0609
 IR Inten    --      1.6900                 0.0467                 1.5273

                     43                     44                     45
                      A                      A                      A
 Frequencies --   1025.0352              1030.2494              1039.8652
 Red. masses --      2.5307                 1.9668                 2.1378
 Frc consts  --      1.5666                 1.2300                 1.3620
 IR Inten    --      2.7029                18.0479                 3.3718

                     46                     47                     48
                      A                      A                      A
 Frequencies --   1052.4951              1063.7247              1079.7452
 Red. masses --      1.8051                 2.6971                 1.9115
 Frc consts  --      1.1781                 1.7981                 1.3130
 IR Inten    --      2.0490                 2.9153                 0.8701

                     49                     50                     51
                      A                      A                      A
 Frequencies --   1089.6912              1096.8941              1124.2827
 Red. masses --      1.8016                 1.9431                 2.1818
 Frc consts  --      1.2604                 1.3774                 1.6248
 IR Inten    --      2.2763                 2.9193                 0.9397

                     52                     53                     54
                      A                      A                      A
 Frequencies --   1144.5140              1160.4650              1166.2490
 Red. masses --      2.2216                 2.0748                 2.1954
 Frc consts  --      1.7146                 1.6462                 1.7594
 IR Inten    --      7.4250                 1.2678                 0.7518

                     55                     56                     57
                      A                      A                      A
 Frequencies --   1176.2080              1219.7554              1241.7115
 Red. masses --      2.3837                 1.3314                 1.2057
 Frc consts  --      1.9430                 1.1671                 1.0952
 IR Inten    --      0.0309                 2.1671                 2.6592

                     58                     59                     60
                      A                      A                      A
 Frequencies --   1261.6600              1270.5993              1282.7212
 Red. masses --      1.2590                 1.3051                 1.2402
 Frc consts  --      1.1808                 1.2414                 1.2023
 IR Inten    --      6.7080                 1.3751                 0.3529

                     61                     62                     63
                      A                      A                      A
 Frequencies --   1308.0490              1310.8975              1319.1458
 Red. masses --      1.3262                 1.3171                 1.1913
 Frc consts  --      1.3370                 1.3335                 1.2214
 IR Inten    --      0.8484                 0.6651                 0.3371

                     64                     65                     66
                      A                      A                      A
 Frequencies --   1325.8638              1343.0819              1354.5756
 Red. masses --      1.2089                 1.2104                 1.2390
 Frc consts  --      1.2521                 1.2864                 1.3394
 IR Inten    --      1.3067                 1.3138                 4.3434

                     67                     68                     69
                      A                      A                      A
 Frequencies --   1357.8010              1368.9622              1379.1000
 Red. masses --      1.1963                 1.2534                 1.2850
 Frc consts  --      1.2994                 1.3839                 1.4399
 IR Inten    --      9.3005                 0.8578                14.6834

                     70                     71                     72
                      A                      A                      A
 Frequencies --   1384.1698              1386.0736              1390.9365
 Red. masses --      1.3377                 1.3191                 1.3336
 Frc consts  --      1.5101                 1.4931                 1.5201
 IR Inten    --      1.7540                15.8410                15.6481

                     73                     74                     75
                      A                      A                      A
 Frequencies --   1396.3086              1399.5266              1405.5453
 Red. masses --      1.3532                 1.3108                 1.3312
 Frc consts  --      1.5545                 1.5127                 1.5495
 IR Inten    --      1.9185                 1.2867                 3.5704

                     76                     77                     78
                      A                      A                      A
 Frequencies --   1410.4473              1413.3504              1415.3356
 Red. masses --      1.3312                 1.2507                 1.2659
 Frc consts  --      1.5603                 1.4719                 1.4941
 IR Inten    --      1.7742                12.1870                 4.0185

                     79                     80                     81
                      A                      A                      A
 Frequencies --   1416.0222              1474.9841              1478.4506
 Red. masses --      1.3032                 1.0732                 1.0699
 Frc consts  --      1.5396                 1.3756                 1.3779
 IR Inten    --      6.2878                 1.9865                 2.4013

                     82                     83                     84
                      A                      A                      A
 Frequencies --   1482.5823              1486.0215              1486.3756
 Red. masses --      1.0788                 1.0852                 1.0857
 Frc consts  --      1.3971                 1.4119                 1.4132
 IR Inten    --      6.6829                 0.9964                 0.4344

                     85                     86                     87
                      A                      A                      A
 Frequencies --   1497.4419              1498.1355              1500.4307
 Red. masses --      1.0468                 1.0444                 1.0584
 Frc consts  --      1.3830                 1.3811                 1.4038
 IR Inten    --      1.2678                 5.7810                 2.9655

                     88                     89                     90
                      A                      A                      A
 Frequencies --   1501.2498              1506.2354              1506.3511
 Red. masses --      1.0503                 1.0598                 1.0592
 Frc consts  --      1.3947                 1.4167                 1.4160
 IR Inten    --      3.7582                 4.6595                 6.5296

                     91                     92                     93
                      A                      A                      A
 Frequencies --   1514.6411              2987.0095              3007.8834
 Red. masses --      1.0781                 1.0807                 1.0588
 Frc consts  --      1.4572                 5.6813                 5.6440
 IR Inten    --     10.3963                 6.7848                28.5143

                     94                     95                     96
                      A                      A                      A
 Frequencies --   3015.0191              3020.5123              3025.3022
 Red. masses --      1.0649                 1.0378                 1.0607
 Frc consts  --      5.7032                 5.5788                 5.7196
 IR Inten    --     15.5439                25.1869                16.6356

                     97                     98                     99
                      A                      A                      A
 Frequencies --   3029.0182              3030.7461              3031.9643
 Red. masses --      1.0512                 1.0623                 1.0453
 Frc consts  --      5.6824                 5.7490                 5.6615
 IR Inten    --     18.9476                48.9386                39.9676

                    100                    101                    102
                      A                      A                      A
 Frequencies --   3033.8062              3035.7634              3043.0746
 Red. masses --      1.0628                 1.0757                 1.0845
 Frc consts  --      5.7633                 5.8409                 5.9168
 IR Inten    --     18.8572                29.1712                13.9774

                    103                    104                    105
                      A                      A                      A
 Frequencies --   3047.0030              3049.5091              3054.1468
 Red. masses --      1.0946                 1.0956                 1.0724
 Frc consts  --      5.9878                 6.0031                 5.8939
 IR Inten    --     16.4187                51.0450                 9.2882

                    106                    107                    108
                      A                      A                      A
 Frequencies --   3056.5980              3065.1830              3076.0155
 Red. masses --      1.0908                 1.0927                 1.0900
 Frc consts  --      6.0045                 6.0486                 6.0766
 IR Inten    --      8.8393                34.0295                 5.3638

                    109                    110                    111
                      A                      A                      A
 Frequencies --   3077.0401              3090.0398              3092.6680
 Red. masses --      1.0914                 1.0996                 1.0996
 Frc consts  --      6.0886                 6.1859                 6.1965
 IR Inten    --     45.1489                37.0472                14.5225

                    112                    113                    114
                      A                      A                      A
 Frequencies --   3093.3264              3097.0932              3098.8045
 Red. masses --      1.1000                 1.0962                 1.0994
 Frc consts  --      6.2017                 6.1950                 6.2203
 IR Inten    --     55.0368                33.4932                72.4330

                    115                    116                    117
                      A                      A                      A
 Frequencies --   3102.9398              3130.5204              3749.0882
 Red. masses --      1.1009                 1.0990                 1.0687
 Frc consts  --      6.2450                 6.3460                 8.8505
 IR Inten    --     51.2575                15.6281                25.0705

 - Thermochemistry -
 -------------------
 Temperature   298.150 Kelvin.  Pressure   1.00000 Atm.
 Atom     1 has atomic number  6 and mass  12.00000

 Molecular mass:   214.19328 amu.
 Principal axes and moments of inertia in atomic units:
                           1         2         3
     Eigenvalues --  2949.295493803.285154929.43906
           X            0.99932  -0.01722  -0.03258
           Y            0.01702   0.99983  -0.00646
           Z            0.03268   0.00590   0.99945
 This molecule is an asymmetric top.
 Rotational symmetry number  1.
 Warning -- assumption of classical behavior for rotation
           may cause significant error
 Rotational temperatures (Kelvin)      0.02937     0.02277     0.01757
 Rotational constants (GHZ):           0.61192     0.47452     0.36611
 Zero-point vibrational energy     986753.2 (Joules/Mol)
                                  235.83969 (Kcal/Mol)
 Warning -- explicit consideration of  27 degrees of freedom as
           vibrations may cause significant error
 Vibrational temperatures:     72.48   104.37   109.44   146.37   176.39
          (Kelvin)            192.72   222.44   255.96   301.53   306.50
                              319.57   332.31   347.51   370.21   388.77
                              413.60   427.17   469.72   471.75   503.28
                              564.18   592.08   644.84   690.18   725.43
                              774.35   834.84   932.47  1005.25  1051.88
                             1113.04  1161.76  1193.54  1221.22  1271.55
                             1302.77  1305.96  1340.00  1368.34  1378.35
                             1383.01  1403.09  1474.80  1482.30  1496.13
                             1514.31  1530.46  1553.51  1567.82  1578.19
                             1617.59  1646.70  1669.65  1677.97  1692.30
                             1754.96  1786.55  1815.25  1828.11  1845.55
                             1881.99  1886.09  1897.96  1907.62  1932.40
                             1948.93  1953.57  1969.63  1984.22  1991.51
                             1994.25  2001.25  2008.98  2013.61  2022.27
                             2029.32  2033.50  2036.35  2037.34  2122.17
                             2127.16  2133.11  2138.05  2138.56  2154.48
                             2155.48  2158.79  2159.96  2167.14  2167.30
                             2179.23  4297.64  4327.67  4337.94  4345.84
                             4352.74  4358.08  4360.57  4362.32  4364.97
                             4367.79  4378.31  4383.96  4387.56  4394.24
                             4397.76  4410.11  4425.70  4427.17  4445.88
                             4449.66  4450.61  4456.03  4458.49  4464.44
                             4504.12  5394.10

 Zero-point correction=                           0.375834 (Hartree/Particle)
 Thermal correction to Energy=                    0.393317
 Thermal correction to Enthalpy=                  0.394261
 Thermal correction to Gibbs Free Energy=         0.332234
 Sum of electronic and zero-point Energies=           -661.062809
 Sum of electronic and thermal Energies=              -661.045327
 Sum of electronic and thermal Enthalpies=            -661.044382
 Sum of electronic and thermal Free Energies=         -661.106410

                     E (Thermal)             CV                S
                      KCal/Mol        Cal/Mol-Kelvin    Cal/Mol-Kelvin
 Total                  246.810             67.622            130.548
 Electronic               0.000              0.000              0.000
 Translational            0.889              2.981             41.989
 Rotational               0.889              2.981             32.381
 Vibrational            245.033             61.661             56.179
 Vibration     1          0.595              1.977              4.803
 Vibration     2          0.599              1.967              4.083
 Vibration     3          0.599              1.965              3.990
 Vibration     4          0.604              1.948              3.421
 Vibration     5          0.610              1.930              3.059
 Vibration     6          0.613              1.919              2.889
 Vibration     7          0.620              1.898              2.615
 Vibration     8          0.628              1.870              2.350
 Vibration     9          0.642              1.826              2.047
 Vibration    10          0.644              1.821              2.018
 Vibration    11          0.648              1.807              1.942
 Vibration    12          0.653              1.794              1.871
 Vibration    13          0.658              1.777              1.792
 Vibration    14          0.667              1.750              1.680
 Vibration    15          0.674              1.728              1.595
 Vibration    16          0.685              1.697              1.489
 Vibration    17          0.691              1.680              1.434
 Vibration    18          0.710              1.623              1.277
 Vibration    19          0.711              1.620              1.270
 Vibration    20          0.727              1.576              1.167
 Vibration    21          0.760              1.487              0.992
 Vibration    22          0.775              1.445              0.921
 Vibration    23          0.807              1.365              0.801
 Vibration    24          0.836              1.295              0.711
 Vibration    25          0.859              1.241              0.648
 Vibration    26          0.893              1.166              0.569
 Vibration    27          0.937              1.074              0.485

 Optimization completed.
    -- Stationary point found.
 Normal termination of Gaussian 16 at Wed May 24 17:01:10 2023.
