 Gaussian 16, Revision A.03,
 Gaussian 16:  ES64L-G16RevA.03 25-Dec-2016

 -----------------------------
 # opt freq b3lyp/6-31g(2df,p)
 -----------------------------

 -------------------
 Title Card Required
 -------------------
 Symbolic Z-matrix:
 Charge =  0 Multiplicity = 1

 SCF Done:  E(RB3LYP) =  -662.516126882     A.U. after   12 cycles
 SCF Done:  E(RB3LYP) =  -662.521673017     A.U. after   10 cycles
 SCF Done:  E(RB3LYP) =  -662.523424469     A.U. after   10 cycles
 SCF Done:  E(RB3LYP) =  -662.524605466     A.U. after   10 cycles
 SCF Done:  E(RB3LYP) =  -662.524909835     A.U. after    9 cycles
 SCF Done:  E(RB3LYP) =  -662.525043309     A.U. after    9 cycles
 SCF Done:  E(RB3LYP) =  -662.525071786     A.U. after    8 cycles
 SCF Done:  E(RB3LYP) =  -662.525078916     A.U. after    8 cycles
 SCF Done:  E(RB3LYP) =  -662.525080403     A.U. after    6 cycles
 SCF Done:  E(RB3LYP) =  -662.525080586     A.U. after    5 cycles
 SCF Done:  E(RB3LYP) =  -662.525080602     A.U. after    5 cycles
 Optimization completed.
    -- Stationary point found.
 Normal termination of Gaussian 16 at Tue May 23 11:53:40 2023.

 ----------------------------------------------------------------------
 #N Geom=AllCheck Guess=TCheck SCRF=Check GenChk RB3LYP/6-31G(2df,p) Fr
 eq
 ----------------------------------------------------------------------

 Structure from the checkpoint file:  "CCC12CCC3CqCrCqC1rOCqCrC2C3C.chk"
 -------------------
 Title Card Required
 -------------------
 Charge =  0 Multiplicity = 1

                         Standard orientation:
 ---------------------------------------------------------------------
 Center     Atomic      Atomic             Coordinates (Angstroms)
 Number     Number       Type             X           Y           Z
 ---------------------------------------------------------------------
      1          6           0        3.852471   -0.138907    0.272029
      2          6           0        2.662870    0.671909   -0.259268
      3          6           0        1.280978   -0.029056   -0.238973
      4          6           0        1.309969   -1.221581   -1.213715
      5          6           0       -0.005179   -2.026135   -1.223659
      6          6           0       -1.222296   -1.160229   -0.825940
      7          6           0       -1.544867   -1.159945    0.691213
      8          6           0       -1.722165   -2.573098    1.268967
      9          6           0       -0.568021   -0.320397    1.545388
     10          6           0        0.918741   -0.506991    1.204188
     11          8           0       -0.941188    1.062556    1.479116
     12          6           0       -0.182499    1.836167    0.555342
     13          6           0       -0.897090    3.171174    0.361755
     14          6           0        0.174209    0.999613   -0.693003
     15          6           0       -1.006178    0.259521   -1.409286
     16          6           0       -2.321422    1.037083   -1.550342
     17          1           0        4.761878    0.470028    0.252799
     18          1           0        4.048004   -1.031772   -0.329019
     19          1           0        3.698460   -0.461317    1.306662
     20          1           0        2.873874    0.972947   -1.294197
     21          1           0        2.600995    1.603978    0.315391
     22          1           0        2.144057   -1.885761   -0.966991
     23          1           0        1.521614   -0.834798   -2.218543
     24          1           0        0.076826   -2.899354   -0.571375
     25          1           0       -0.168590   -2.426024   -2.230613
     26          1           0       -2.104991   -1.587495   -1.319004
     27          1           0       -2.509531   -0.652293    0.808711
     28          1           0       -0.773884   -3.110256    1.373844
     29          1           0       -2.375590   -3.181131    0.634410
     30          1           0       -2.176366   -2.523845    2.264109
     31          1           0       -0.720951   -0.601876    2.594944
     32          1           0        1.194660   -1.557320    1.346138
     33          1           0        1.497181    0.057417    1.943607
     34          1           0        0.778434    2.097697    1.027764
     35          1           0       -1.903527    3.067304   -0.039713
     36          1           0       -0.316769    3.812326   -0.309714
     37          1           0       -0.973495    3.675994    1.329676
     38          1           0        0.627056    1.683153   -1.422772
     39          1           0       -0.655456    0.094236   -2.437279
     40          1           0       -2.811482    1.203262   -0.588907
     41          1           0       -3.012898    0.469858   -2.183656
     42          1           0       -2.167135    2.009830   -2.027371
 ---------------------------------------------------------------------

 SCF Done:  E(RB3LYP) =  -662.525080602     A.U. after    1 cycles

 The electronic state is 1-A.
 Alpha  occ. eigenvalues --  -19.12196 -10.21960 -10.21930 -10.18863 -10.18002
 Alpha  occ. eigenvalues --  -10.17778 -10.17592 -10.17565 -10.17458 -10.17422
 Alpha  occ. eigenvalues --  -10.17151 -10.17097 -10.17057 -10.17029 -10.16514
 Alpha  occ. eigenvalues --  -10.16473  -1.01724  -0.84770  -0.80063  -0.78595
 Alpha  occ. eigenvalues --   -0.74710  -0.73485  -0.73323  -0.68801  -0.67319
 Alpha  occ. eigenvalues --   -0.63869  -0.63018  -0.60387  -0.59795  -0.55173
 Alpha  occ. eigenvalues --   -0.52214  -0.49944  -0.49101  -0.47943  -0.46326
 Alpha  occ. eigenvalues --   -0.45201  -0.44187  -0.42992  -0.42391  -0.41767
 Alpha  occ. eigenvalues --   -0.41224  -0.39673  -0.38984  -0.38552  -0.38121
 Alpha  occ. eigenvalues --   -0.37520  -0.37103  -0.36589  -0.36324  -0.35488
 Alpha  occ. eigenvalues --   -0.35242  -0.34216  -0.34027  -0.33413  -0.32233
 Alpha  occ. eigenvalues --   -0.31295  -0.30372  -0.29644  -0.28591  -0.27539
 Alpha  occ. eigenvalues --   -0.26822  -0.23000
 Alpha virt. eigenvalues --    0.06462   0.09169   0.09599   0.10333   0.11210
 Alpha virt. eigenvalues --    0.11915   0.12692   0.13351   0.14212   0.14669
 Alpha virt. eigenvalues --    0.14716   0.15340   0.15596   0.16182   0.16954

 Mulliken charges:
               1
     1  C   -0.401286
     2  C   -0.236556
     3  C    0.314809
     4  C   -0.252058
     5  C   -0.253303
     6  C   -0.007325
     7  C    0.017126
     8  C   -0.423015
     9  C    0.093353
    10  C   -0.286126
    11  O   -0.296162
    12  C    0.155271
    13  C   -0.425575
    14  C   -0.095433
    15  C    0.007884
    16  C   -0.437128
    17  H    0.111926
    18  H    0.118494
    19  H    0.117783
    20  H    0.089725
    21  H    0.095165
    22  H    0.089809
    23  H    0.090014
    24  H    0.094587
    25  H    0.090944
    26  H    0.056781
    27  H    0.081093
    28  H    0.116687
    29  H    0.111604
    30  H    0.112391
    31  H    0.064852
    32  H    0.096512
    33  H    0.101717
    34  H    0.062066
    35  H    0.124634
    36  H    0.107324
    37  H    0.118132
    38  H    0.055339
    39  H    0.068501
    40  H    0.137216
    41  H    0.103084
    42  H    0.109144
 Sum of Mulliken charges =  -0.00000

 Dipole moment (field-independent basis, Debye):
    X=              0.8204    Y=             -0.5786    Z=             -0.8060  Tot=              1.2874
 Quadrupole moment (field-independent basis, Debye-Ang):
   XX=           -101.9660   YY=           -100.8672   ZZ=           -101.8168
   XY=              1.8715   XZ=              1.6155   YZ=             -1.9478

  Exact polarizability: 162.754   1.522 159.422   1.281  -1.939 142.177
 Approx polarizability: 224.258   1.194 226.697  -1.084  -1.971 222.557

                      1                      2                      3
                      A                      A                      A
 Frequencies --     90.8122               102.9546               133.1672
 Red. masses --      2.5811                 2.0834                 2.4226
 Frc consts  --      0.0125                 0.0130                 0.0253
 IR Inten    --      0.4045                 0.3609                 0.2150

                      4                      5                      6
                      A                      A                      A
 Frequencies --    153.1543               176.7666               204.7372
 Red. masses --      2.3646                 1.4838                 1.7244
 Frc consts  --      0.0327                 0.0273                 0.0426
 IR Inten    --      0.1536                 0.0490                 0.0523

                      7                      8                      9
                      A                      A                      A
 Frequencies --    208.2411               222.1204               237.7854
 Red. masses --      1.3794                 1.4089                 1.8706
 Frc consts  --      0.0352                 0.0410                 0.0623
 IR Inten    --      0.4088                 0.8983                 0.5279

                     10                     11                     12
                      A                      A                      A
 Frequencies --    263.6126               270.8244               304.7575
 Red. masses --      2.6855                 2.3638                 2.1650
 Frc consts  --      0.1100                 0.1022                 0.1185
 IR Inten    --      0.2360                 0.0905                 0.7997

                     13                     14                     15
                      A                      A                      A
 Frequencies --    313.3355               318.2486               339.5218
 Red. masses --      2.2812                 2.8493                 1.0861
 Frc consts  --      0.1320                 0.1700                 0.0738
 IR Inten    --      0.1658                 0.4919                 0.1600

                     16                     17                     18
                      A                      A                      A
 Frequencies --    361.9895               366.8328               395.0834
 Red. masses --      2.7106                 2.3339                 3.0754
 Frc consts  --      0.2093                 0.1850                 0.2828
 IR Inten    --      0.1560                 0.1632                 1.7272

                     19                     20                     21
                      A                      A                      A
 Frequencies --    410.8618               421.5181               442.1624
 Red. masses --      2.8268                 3.7615                 3.5646
 Frc consts  --      0.2811                 0.3938                 0.4106
 IR Inten    --      0.4783                 0.8856                 1.1991

                     22                     23                     24
                      A                      A                      A
 Frequencies --    474.4154               516.3351               564.8645
 Red. masses --      3.2430                 3.6243                 2.7376
 Frc consts  --      0.4300                 0.5693                 0.5146
 IR Inten    --      0.8212                 0.3280                 0.5199

                     25                     26                     27
                      A                      A                      A
 Frequencies --    569.9626               647.1350               685.2163
 Red. masses --      3.2702                 3.5880                 2.6688
 Frc consts  --      0.6259                 0.8853                 0.7383
 IR Inten    --      0.4130                 0.8478                 1.8590

                     28                     29                     30
                      A                      A                      A
 Frequencies --    729.7404               748.3383               779.3816
 Red. masses --      2.2853                 2.3757                 1.2946
 Frc consts  --      0.7170                 0.7839                 0.4633
 IR Inten    --      1.6224                 1.4719                 1.0196

                     31                     32                     33
                      A                      A                      A
 Frequencies --    809.7983               811.4470               845.4302
 Red. masses --      3.1152                 2.2783                 2.7660
 Frc consts  --      1.2036                 0.8839                 1.1648
 IR Inten    --      4.3243                 4.4106                 1.4944

                     34                     35                     36
                      A                      A                      A
 Frequencies --    867.2264               888.2757               913.6559
 Red. masses --      2.1819                 2.4508                 2.1700
 Frc consts  --      0.9668                 1.1393                 1.0673
 IR Inten    --      4.0602                 3.4597                 1.7963

                     37                     38                     39
                      A                      A                      A
 Frequencies --    921.7888               950.0666               957.7668
 Red. masses --      2.0457                 2.0438                 1.8377
 Frc consts  --      1.0241                 1.0869                 0.9932
 IR Inten    --      0.5743                 1.2978                 4.2068

                     40                     41                     42
                      A                      A                      A
 Frequencies --    962.8806               990.8288              1000.2540
 Red. masses --      2.0484                 2.0667                 1.7640
 Frc consts  --      1.1189                 1.1954                 1.0399
 IR Inten    --      0.4605                 1.2233                 3.5771

                     43                     44                     45
                      A                      A                      A
 Frequencies --   1007.0677              1028.3040              1047.2364
 Red. masses --      1.8632                 1.5787                 2.1878
 Frc consts  --      1.1134                 0.9835                 1.4137
 IR Inten    --      4.6952                 4.4867                 2.2513

                     46                     47                     48
                      A                      A                      A
 Frequencies --   1051.9647              1073.9461              1075.8664
 Red. masses --      1.6984                 1.9228                 2.5535
 Frc consts  --      1.1074                 1.3066                 1.7414
 IR Inten    --      6.9226                19.2981                27.6347

                     49                     50                     51
                      A                      A                      A
 Frequencies --   1089.0282              1096.6943              1109.8593
 Red. masses --      2.2812                 2.3611                 1.8681
 Frc consts  --      1.5940                 1.6731                 1.3558
 IR Inten    --      3.5820                17.4816                10.3564

                     52                     53                     54
                      A                      A                      A
 Frequencies --   1118.0119              1135.0959              1142.1978
 Red. masses --      2.3671                 2.0609                 2.1380
 Frc consts  --      1.7433                 1.5645                 1.6434
 IR Inten    --      0.6215                 9.1985                22.3123

                     55                     56                     57
                      A                      A                      A
 Frequencies --   1161.3554              1186.3068              1194.9407
 Red. masses --      2.0990                 1.7182                 2.0379
 Frc consts  --      1.6680                 1.4247                 1.7144
 IR Inten    --      6.5424                 6.2250                 9.6827

                     58                     59                     60
                      A                      A                      A
 Frequencies --   1203.6652              1231.8322              1252.9579
 Red. masses --      1.6525                 1.4938                 1.4675
 Frc consts  --      1.4106                 1.3355                 1.3573
 IR Inten    --      2.2778                14.9231                 3.7517

                     61                     62                     63
                      A                      A                      A
 Frequencies --   1259.0558              1278.4868              1289.2821
 Red. masses --      1.5001                 1.3416                 1.5482
 Frc consts  --      1.4010                 1.2920                 1.5163
 IR Inten    --      6.8153                 1.2193                10.6562

                     64                     65                     66
                      A                      A                      A
 Frequencies --   1298.1262              1314.5452              1336.2668
 Red. masses --      1.4283                 1.4421                 1.3516
 Frc consts  --      1.4181                 1.4683                 1.4219
 IR Inten    --      0.8022                 2.9812                 5.5694

                     67                     68                     69
                      A                      A                      A
 Frequencies --   1337.5037              1349.9752              1364.2095
 Red. masses --      1.2800                 1.3613                 1.3650
 Frc consts  --      1.3492                 1.4617                 1.4968
 IR Inten    --      0.1610                 0.7018                 3.4192

                     70                     71                     72
                      A                      A                      A
 Frequencies --   1366.8865              1374.3851              1376.5303
 Red. masses --      1.3784                 1.4500                 1.3697
 Frc consts  --      1.5173                 1.6137                 1.5291
 IR Inten    --      0.1241                 4.2495                 2.6057

                     73                     74                     75
                      A                      A                      A
 Frequencies --   1379.0555              1389.2361              1393.3362
 Red. masses --      1.4065                 1.3266                 1.3085
 Frc consts  --      1.5760                 1.5085                 1.4967
 IR Inten    --      0.7672                 2.3875                 3.5288

                     76                     77                     78
                      A                      A                      A
 Frequencies --   1403.2047              1403.6795              1407.1230
 Red. masses --      1.3140                 1.3852                 1.2694
 Frc consts  --      1.5244                 1.6080                 1.4809
 IR Inten    --      1.0398                 1.0261                 3.5472

                     79                     80                     81
                      A                      A                      A
 Frequencies --   1412.7981              1414.8351              1419.6641
 Red. masses --      1.2574                 1.2367                 1.2965
 Frc consts  --      1.4787                 1.4585                 1.5395
 IR Inten    --      8.9082                 2.8456                10.5984

                     82                     83                     84
                      A                      A                      A
 Frequencies --   1428.1319              1480.0231              1482.8978
 Red. masses --      1.3538                 1.0723                 1.0584
 Frc consts  --      1.6269                 1.3839                 1.3712
 IR Inten    --      5.5805                 2.4156                 0.3687

                     85                     86                     87
                      A                      A                      A
 Frequencies --   1486.2825              1490.8367              1495.2849
 Red. masses --      1.0680                 1.0736                 1.0490
 Frc consts  --      1.3901                 1.4059                 1.3820
 IR Inten    --      2.9265                 3.6509                 4.3403

                     88                     89                     90
                      A                      A                      A
 Frequencies --   1497.1534              1503.0686              1504.6151
 Red. masses --      1.0602                 1.0653                 1.0460
 Frc consts  --      1.4002                 1.4181                 1.3952
 IR Inten    --      2.9328                 4.9043                 1.8794

                     91                     92                     93
                      A                      A                      A
 Frequencies --   1508.8313              1509.0269              1517.3353
 Red. masses --      1.0589                 1.0525                 1.0775
 Frc consts  --      1.4203                 1.4121                 1.4616
 IR Inten    --      2.6295                 2.3695                 6.2776

                     94                     95                     96
                      A                      A                      A
 Frequencies --   1524.5490              2951.2153              2989.5985
 Red. masses --      1.0522                 1.0807                 1.0828
 Frc consts  --      1.4408                 5.5457                 5.7022
 IR Inten    --      3.2240                49.4853                12.2941

                     97                     98                     99
                      A                      A                      A
 Frequencies --   3005.2521              3010.4919              3013.7714
 Red. masses --      1.0829                 1.0681                 1.0817
 Frc consts  --      5.7622                 5.7037                 5.7885
 IR Inten    --     20.8264                 7.7215                36.7856

                    100                    101                    102
                      A                      A                      A
 Frequencies --   3016.4410              3022.9433              3030.0135
 Red. masses --      1.0750                 1.0695                 1.0401
 Frc consts  --      5.7630                 5.7581                 5.6260
 IR Inten    --      5.3317                70.8058                21.6524

                    103                    104                    105
                      A                      A                      A
 Frequencies --   3031.1116              3034.2647              3037.9590
 Red. masses --      1.0670                 1.0505                 1.0465
 Frc consts  --      5.7761                 5.6984                 5.6905
 IR Inten    --     16.5753                53.0391                12.0033

                    106                    107                    108
                      A                      A                      A
 Frequencies --   3040.5263              3046.2898              3048.4116
 Red. masses --      1.0539                 1.0658                 1.0452
 Frc consts  --      5.7407                 5.8270                 5.7226
 IR Inten    --     59.1379                54.5635                13.6869

                    109                    110                    111
                      A                      A                      A
 Frequencies --   3048.9689              3065.3868              3072.7001
 Red. masses --      1.0976                 1.0941                 1.1026
 Frc consts  --      6.0116                 6.0575                 6.1336
 IR Inten    --     25.8821                21.8793                20.8870

                    112                    113                    114
                      A                      A                      A
 Frequencies --   3088.4436              3091.2562              3097.1206
 Red. masses --      1.0982                 1.0995                 1.1011
 Frc consts  --      6.1715                 6.1904                 6.2227
 IR Inten    --     40.9566                34.1274                24.0760

                    115                    116                    117
                      A                      A                      A
 Frequencies --   3100.0736              3101.8669              3106.7604
 Red. masses --      1.0988                 1.1000                 1.1009
 Frc consts  --      6.2216                 6.2357                 6.2604
 IR Inten    --     48.7783                33.1899                20.9335

                    118                    119                    120
                      A                      A                      A
 Frequencies --   3110.4080              3127.6975              3167.7639
 Red. masses --      1.1009                 1.0995                 1.0946
 Frc consts  --      6.2752                 6.3370                 6.4717
 IR Inten    --     39.5528                21.7499                16.0265

 - Thermochemistry -
 -------------------
 Temperature   298.150 Kelvin.  Pressure   1.00000 Atm.
 Atom     1 has atomic number  6 and mass  12.00000

 Molecular mass:   222.19837 amu.
 Principal axes and moments of inertia in atomic units:
                           1         2         3
     Eigenvalues --  2763.631183227.124834039.40363
           X            0.99988   0.00212   0.01541
           Y           -0.00166   0.99956  -0.02969
           Z           -0.01546   0.02966   0.99944
 This molecule is an asymmetric top.
 Rotational symmetry number  1.
 Warning -- assumption of classical behavior for rotation
           may cause significant error
 Rotational temperatures (Kelvin)      0.03134     0.02684     0.02144
 Rotational constants (GHZ):           0.65303     0.55924     0.44678
 Zero-point vibrational energy    1017020.7 (Joules/Mol)
                                  243.07378 (Kcal/Mol)
 Warning -- explicit consideration of  25 degrees of freedom as
           vibrations may cause significant error
 Vibrational temperatures:    130.66   148.13   191.60   220.35   254.33
          (Kelvin)            294.57   299.61   319.58   342.12   379.28
                              389.66   438.48   450.82   457.89   488.50
                              520.82   527.79   568.44   591.14   606.47
                              636.17   682.58   742.89   812.71   820.05
                              931.08   985.87  1049.93  1076.69  1121.36
                             1165.12  1167.49  1216.39  1247.75  1278.03
                             1314.55  1326.25  1366.93  1378.01  1385.37
                             1425.58  1439.14  1448.95  1479.50  1506.74
                             1513.54  1545.17  1547.93  1566.87  1577.90
                             1596.84  1608.57  1633.15  1643.37  1670.93
                             1706.83  1719.25  1731.81  1772.33  1802.73
                             1811.50  1839.46  1854.99  1867.71  1891.34
                             1922.59  1924.37  1942.31  1962.79  1966.64
                             1977.43  1980.52  1984.15  1998.80  2004.70
                             2018.90  2019.58  2024.54  2032.70  2035.63
                             2042.58  2054.76  2129.42  2133.56  2138.43
                             2144.98  2151.38  2154.07  2162.58  2164.81
                             2170.87  2171.15  2183.11  2193.49  4246.14
                             4301.37  4323.89  4331.43  4336.14  4339.99
                             4349.34  4359.51  4361.09  4365.63  4370.95
                             4374.64  4382.93  4385.98  4386.79  4410.41
                             4420.93  4443.58  4447.63  4456.07  4460.31
                             4462.89  4469.94  4475.18  4500.06  4557.71

 Zero-point correction=                           0.387363 (Hartree/Particle)
 Thermal correction to Energy=                    0.402764
 Thermal correction to Enthalpy=                  0.403708
 Thermal correction to Gibbs Free Energy=         0.347471
 Sum of electronic and zero-point Energies=           -662.137718
 Sum of electronic and thermal Energies=              -662.122317
 Sum of electronic and thermal Enthalpies=            -662.121373
 Sum of electronic and thermal Free Energies=         -662.177610

                     E (Thermal)             CV                S
                      KCal/Mol        Cal/Mol-Kelvin    Cal/Mol-Kelvin
 Total                  252.738             64.625            118.362
 Electronic               0.000              0.000              0.000
 Translational            0.889              2.981             42.098
 Rotational               0.889              2.981             31.955
 Vibrational            250.961             58.664             44.309
 Vibration     1          0.602              1.956              3.642
 Vibration     2          0.605              1.947              3.398
 Vibration     3          0.613              1.920              2.900
 Vibration     4          0.619              1.899              2.633
 Vibration     5          0.628              1.871              2.362
 Vibration     6          0.640              1.833              2.090
 Vibration     7          0.642              1.828              2.059
 Vibration     8          0.648              1.807              1.942
 Vibration     9          0.656              1.783              1.819
 Vibration    10          0.670              1.740              1.638
 Vibration    11          0.675              1.727              1.591
 Vibration    12          0.696              1.665              1.391
 Vibration    13          0.701              1.648              1.345
 Vibration    14          0.705              1.639              1.319
 Vibration    15          0.719              1.597              1.214
 Vibration    16          0.736              1.551              1.114
 Vibration    17          0.740              1.540              1.093
 Vibration    18          0.762              1.481              0.981
 Vibration    19          0.775              1.447              0.924
 Vibration    20          0.784              1.423              0.887
 Vibration    21          0.802              1.378              0.820
 Vibration    22          0.831              1.307              0.725
 Vibration    23          0.871              1.214              0.619
 Vibration    24          0.921              1.107              0.514
 Vibration    25          0.926              1.096              0.504

                           ! Non-Optimized Parameters !
 Normal termination of Gaussian 16 at Tue May 23 18:31:48 2023.
