 Gaussian 16, Revision A.03,
 Gaussian 16:  ES64L-G16RevA.03 25-Dec-2016

 -----------------------------
 # opt freq b3lyp/6-31g(2df,p)
 -----------------------------

 -------------------
 Title Card Required
 -------------------
 Symbolic Z-matrix:
 Charge =  0 Multiplicity = 1

 SCF Done:  E(RB3LYP) =  -353.809478222     A.U. after   12 cycles
 SCF Done:  E(RB3LYP) =  -353.830492924     A.U. after   10 cycles
 SCF Done:  E(RB3LYP) =  -353.836933152     A.U. after   10 cycles
 SCF Done:  E(RB3LYP) =  -353.839089801     A.U. after   10 cycles
 SCF Done:  E(RB3LYP) =  -353.839734460     A.U. after   10 cycles
 SCF Done:  E(RB3LYP) =  -353.839808014     A.U. after    8 cycles
 SCF Done:  E(RB3LYP) =  -353.839824267     A.U. after    8 cycles
 SCF Done:  E(RB3LYP) =  -353.839828173     A.U. after    7 cycles
 SCF Done:  E(RB3LYP) =  -353.839829611     A.U. after    6 cycles
 SCF Done:  E(RB3LYP) =  -353.839829891     A.U. after    6 cycles
 SCF Done:  E(RB3LYP) =  -353.839830254     A.U. after    6 cycles
 SCF Done:  E(RB3LYP) =  -353.839830375     A.U. after    6 cycles
 Optimization completed.
    -- Stationary point found.
 Normal termination of Gaussian 16 at Sun May 28 20:07:56 2023.

 ----------------------------------------------------------------------
 #N Geom=AllCheck Guess=TCheck SCRF=Check GenChk RB3LYP/6-31G(2df,p) Fr
 eq
 ----------------------------------------------------------------------

 Structure from the checkpoint file:  "CCC1CCqCrCqCrC1.chk"
 -------------------
 Title Card Required
 -------------------
 Charge =  0 Multiplicity = 1

                         Standard orientation:
 ---------------------------------------------------------------------
 Center     Atomic      Atomic             Coordinates (Angstroms)
 Number     Number       Type             X           Y           Z
 ---------------------------------------------------------------------
      1          6           0        2.948191   -0.702417   -0.682657
      2          6           0        2.311618   -0.326927    0.661527
      3          6           0        0.846302    0.149705    0.605804
      4          6           0        0.617625    1.340762   -0.337402
      5          6           0       -0.792469    1.942389   -0.141276
      6          6           0       -1.843151    0.870409    0.233637
      7          6           0       -1.477689   -0.504933   -0.343026
      8          6           0       -2.593232   -1.535181   -0.148063
      9          6           0       -0.143002   -0.995111    0.268974
     10          1           0        3.970461   -1.064568   -0.534499
     11          1           0        2.999614    0.155958   -1.359703
     12          1           0        2.393689   -1.495053   -1.195523
     13          1           0        2.915712    0.463631    1.125629
     14          1           0        2.370705   -1.188595    1.339854
     15          1           0        0.604974    0.502062    1.618839
     16          1           0        0.738255    1.010264   -1.376221
     17          1           0        1.380184    2.111421   -0.174001
     18          1           0       -1.096232    2.457189   -1.059846
     19          1           0       -0.762329    2.709234    0.641261
     20          1           0       -2.836208    1.178609   -0.112572
     21          1           0       -1.918933    0.781100    1.325817
     22          1           0       -1.330068   -0.377435   -1.425106
     23          1           0       -2.824177   -1.664247    0.916316
     24          1           0       -2.304369   -2.515101   -0.544092
     25          1           0       -3.515018   -1.227821   -0.653801
     26          1           0        0.321322   -1.707364   -0.423533
     27          1           0       -0.352732   -1.561471    1.186076
 ---------------------------------------------------------------------

 SCF Done:  E(RB3LYP) =  -353.839830375     A.U. after    1 cycles

 The electronic state is 1-A.
 Alpha  occ. eigenvalues --  -10.17748 -10.17581 -10.17313 -10.17179 -10.16949
 Alpha  occ. eigenvalues --  -10.16925 -10.16804 -10.16792 -10.16661  -0.82986
 Alpha  occ. eigenvalues --   -0.77511  -0.74554  -0.70797  -0.66704  -0.62997
 Alpha  occ. eigenvalues --   -0.59259  -0.56405  -0.51211  -0.48052  -0.45225
 Alpha  occ. eigenvalues --   -0.43934  -0.42943  -0.41996  -0.39981  -0.38287
 Alpha  occ. eigenvalues --   -0.37659  -0.36674  -0.35498  -0.34752  -0.34114
 Alpha  occ. eigenvalues --   -0.33640  -0.32533  -0.31758  -0.28909  -0.28466
 Alpha  occ. eigenvalues --   -0.28409
 Alpha virt. eigenvalues --    0.07786   0.09923   0.10938   0.11246   0.13916
 Alpha virt. eigenvalues --    0.14386   0.14914   0.15125   0.16151   0.17049
 Alpha virt. eigenvalues --    0.17426   0.17599   0.18215   0.19148   0.19396

 Mulliken charges:
               1
     1  C   -0.375172
     2  C   -0.206736
     3  C    0.047804
     4  C   -0.196015
     5  C   -0.218061
     6  C   -0.185737
     7  C    0.050701
     8  C   -0.407081
     9  C   -0.204250
    10  H    0.110214
    11  H    0.116981
    12  H    0.115899
    13  H    0.088406
    14  H    0.088917
    15  H    0.064303
    16  H    0.094862
    17  H    0.084315
    18  H    0.092069
    19  H    0.093097
    20  H    0.085492
    21  H    0.090300
    22  H    0.067590
    23  H    0.109831
    24  H    0.107759
    25  H    0.106632
    26  H    0.090832
    27  H    0.087046
 Sum of Mulliken charges =  -0.00000

 Dipole moment (field-independent basis, Debye):
    X=              0.0399    Y=              0.0711    Z=              0.0067  Tot=              0.0818
 Quadrupole moment (field-independent basis, Debye-Ang):
   XX=            -60.3972   YY=            -60.0217   ZZ=            -59.1632
   XY=             -0.1414   XZ=              0.3768   YZ=              0.1001

  Exact polarizability: 107.929   0.112  95.025   0.242  -0.276  83.554
 Approx polarizability: 133.306  -0.067 131.671   0.161   0.066 131.841

                      1                      2                      3
                      A                      A                      A
 Frequencies --     69.7969               103.1355               167.5130
 Red. masses --      2.3427                 1.9029                 2.1641
 Frc consts  --      0.0067                 0.0119                 0.0358
 IR Inten    --      0.0101                 0.0018                 0.0241

                      4                      5                      6
                      A                      A                      A
 Frequencies --    173.0006               203.6729               245.8300
 Red. masses --      1.8406                 1.3954                 1.0971
 Frc consts  --      0.0325                 0.0341                 0.0391
 IR Inten    --      0.0128                 0.0020                 0.0136

                      7                      8                      9
                      A                      A                      A
 Frequencies --    264.7911               276.5980               344.3099
 Red. masses --      2.2628                 1.7741                 2.0925
 Frc consts  --      0.0935                 0.0800                 0.1462
 IR Inten    --      0.0258                 0.0135                 0.1019

                     10                     11                     12
                      A                      A                      A
 Frequencies --    393.8555               422.8674               455.0375
 Red. masses --      2.2021                 2.5476                 3.0939
 Frc consts  --      0.2013                 0.2684                 0.3774
 IR Inten    --      0.2848                 0.0763                 0.0974

                     13                     14                     15
                      A                      A                      A
 Frequencies --    526.9222               575.3870               756.9688
 Red. masses --      2.2788                 2.8722                 1.2914
 Frc consts  --      0.3728                 0.5603                 0.4360
 IR Inten    --      0.9599                 0.2551                 1.3291

                     16                     17                     18
                      A                      A                      A
 Frequencies --    779.4030               828.4931               830.2785
 Red. masses --      1.1926                 2.3588                 2.4084
 Frc consts  --      0.4268                 0.9539                 0.9782
 IR Inten    --      1.3642                 0.1834                 1.4277

                     19                     20                     21
                      A                      A                      A
 Frequencies --    886.9721               896.0369               902.0591
 Red. masses --      1.8471                 2.0636                 1.7032
 Frc consts  --      0.8562                 0.9762                 0.8165
 IR Inten    --      0.5367                 0.9502                 0.4815

                     22                     23                     24
                      A                      A                      A
 Frequencies --    951.6077               969.7630               991.2678
 Red. masses --      1.9881                 1.5921                 1.4456
 Frc consts  --      1.0607                 0.8822                 0.8369
 IR Inten    --      0.3749                 1.0528                 0.3459

                     25                     26                     27
                      A                      A                      A
 Frequencies --   1013.2832              1048.4923              1068.7463
 Red. masses --      1.9010                 1.5423                 2.2300
 Frc consts  --      1.1500                 0.9989                 1.5007
 IR Inten    --      0.1853                 1.8894                 0.7576

                     28                     29                     30
                      A                      A                      A
 Frequencies --   1096.3804              1113.9789              1120.3676
 Red. masses --      1.9016                 2.1063                 1.2395
 Frc consts  --      1.3467                 1.5400                 0.9167
 IR Inten    --      0.6257                 0.0159                 0.1271

                     31                     32                     33
                      A                      A                      A
 Frequencies --   1135.7454              1175.7652              1195.1040
 Red. masses --      1.9608                 2.3617                 1.9347
 Frc consts  --      1.4902                 1.9236                 1.6280
 IR Inten    --      0.3234                 0.3510                 0.8879

                     34                     35                     36
                      A                      A                      A
 Frequencies --   1235.5278              1267.5324              1295.2128
 Red. masses --      1.3706                 1.3618                 1.2183
 Frc consts  --      1.2327                 1.2891                 1.2041
 IR Inten    --      0.7323                 1.1461                 1.2090

                     37                     38                     39
                      A                      A                      A
 Frequencies --   1301.4988              1313.3629              1321.6117
 Red. masses --      1.2298                 1.2460                 1.2398
 Frc consts  --      1.2274                 1.2664                 1.2759
 IR Inten    --      0.2760                 1.3331                 0.0496

                     40                     41                     42
                      A                      A                      A
 Frequencies --   1340.9279              1364.5505              1369.0976
 Red. masses --      1.2745                 1.4003                 1.4509
 Frc consts  --      1.3502                 1.5362                 1.6024
 IR Inten    --      1.3307                 3.8829                 4.4771

                     43                     44                     45
                      A                      A                      A
 Frequencies --   1375.1046              1386.1404              1393.8458
 Red. masses --      1.3138                 1.3368                 1.4900
 Frc consts  --      1.4637                 1.5134                 1.7056
 IR Inten    --      1.2669                 3.9333                 1.7733

                     46                     47                     48
                      A                      A                      A
 Frequencies --   1403.7306              1411.4050              1417.6527
 Red. masses --      1.3605                 1.2452                 1.3184
 Frc consts  --      1.5794                 1.4615                 1.5612
 IR Inten    --      0.4872                 1.9597                 8.5922

                     49                     50                     51
                      A                      A                      A
 Frequencies --   1483.3119              1485.4296              1488.5732
 Red. masses --      1.0747                 1.0730                 1.0766
 Frc consts  --      1.3932                 1.3949                 1.4055
 IR Inten    --      0.1898                 1.4064                 0.5414

                     52                     53                     54
                      A                      A                      A
 Frequencies --   1496.1402              1498.6298              1500.8126
 Red. masses --      1.0663                 1.0538                 1.0617
 Frc consts  --      1.4063                 1.3945                 1.4090
 IR Inten    --      1.7831                 3.9014                 3.3357

                     55                     56                     57
                      A                      A                      A
 Frequencies --   1503.8669              1507.2120              1511.6059
 Red. masses --      1.0619                 1.0631                 1.0860
 Frc consts  --      1.4150                 1.4229                 1.4620
 IR Inten    --      4.5443                 2.5614                 0.3691

                     58                     59                     60
                      A                      A                      A
 Frequencies --   2984.4666              2992.6583              3010.6117
 Red. masses --      1.0797                 1.0811                 1.0617
 Frc consts  --      5.6663                 5.7044                 5.6696
 IR Inten    --      9.6756                 6.3344                18.2810

                     61                     62                     63
                      A                      A                      A
 Frequencies --   3012.7111              3016.7152              3020.9027
 Red. masses --      1.0630                 1.0549                 1.0556
 Frc consts  --      5.6843                 5.6563                 5.6759
 IR Inten    --      9.0165                44.1520                26.2032

                     64                     65                     66
                      A                      A                      A
 Frequencies --   3022.5481              3031.6891              3036.9282
 Red. masses --      1.0493                 1.0625                 1.0387
 Frc consts  --      5.6483                 5.7537                 5.6440
 IR Inten    --     81.8020                27.4217                13.1343

                     67                     68                     69
                      A                      A                      A
 Frequencies --   3041.5702              3047.2414              3056.3814
 Red. masses --      1.1018                 1.0985                 1.0992
 Frc consts  --      6.0057                 6.0100                 6.0500
 IR Inten    --     14.2636                29.9821                34.4023

                     70                     71                     72
                      A                      A                      A
 Frequencies --   3058.7805              3075.5639              3086.7255
 Red. masses --      1.0983                 1.1041                 1.1005
 Frc consts  --      6.0544                 6.1531                 6.1780
 IR Inten    --     41.0845                64.0532                59.5380

                     73                     74                     75
                      A                      A                      A
 Frequencies --   3092.2192              3100.3690              3105.3459
 Red. masses --      1.1013                 1.1005                 1.1012
 Frc consts  --      6.2046                 6.2327                 6.2568
 IR Inten    --     38.2944                43.9376                38.9684

 - Thermochemistry -
 -------------------
 Temperature   298.150 Kelvin.  Pressure   1.00000 Atm.
 Atom     1 has atomic number  6 and mass  12.00000

 Molecular mass:   126.14085 amu.
 Principal axes and moments of inertia in atomic units:
                           1         2         3
     Eigenvalues --   746.417051664.729642126.56454
           X            0.99998   0.00336  -0.00547
           Y           -0.00335   0.99999   0.00171
           Z            0.00547  -0.00169   0.99998
 This molecule is an asymmetric top.
 Rotational symmetry number  1.
 Warning -- assumption of classical behavior for rotation
           may cause significant error
 Rotational temperatures (Kelvin)      0.11604     0.05203     0.04073
 Rotational constants (GHZ):           2.41787     1.08410     0.84867
 Zero-point vibrational energy     666616.9 (Joules/Mol)
                                  159.32526 (Kcal/Mol)
 Warning -- explicit consideration of  14 degrees of freedom as
           vibrations may cause significant error
 Vibrational temperatures:    100.42   148.39   241.01   248.91   293.04
          (Kelvin)            353.69   380.98   397.96   495.39   566.67
                              608.41   654.70   758.12   827.85  1089.11
                             1121.39  1192.02  1194.59  1276.16  1289.20
                             1297.86  1369.15  1395.27  1426.21  1457.89
                             1508.55  1537.69  1577.45  1602.77  1611.96
                             1634.08  1691.66  1719.49  1777.65  1823.70
                             1863.52  1872.57  1889.64  1901.50  1929.30
                             1963.28  1969.83  1978.47  1994.35  2005.43
                             2019.66  2030.70  2039.69  2134.15  2137.20
                             2141.72  2152.61  2156.19  2159.33  2163.73
                             2168.54  2174.86  4293.98  4305.77  4331.60
                             4334.62  4340.38  4346.41  4348.77  4361.92
                             4369.46  4376.14  4384.30  4397.45  4400.90
                             4425.05  4441.11  4449.01  4460.74  4467.90

 Zero-point correction=                           0.253901 (Hartree/Particle)
 Thermal correction to Energy=                    0.264063
 Thermal correction to Enthalpy=                  0.265007
 Thermal correction to Gibbs Free Energy=         0.219035
 Sum of electronic and zero-point Energies=           -353.585929
 Sum of electronic and thermal Energies=              -353.575768
 Sum of electronic and thermal Enthalpies=            -353.574823
 Sum of electronic and thermal Free Energies=         -353.620795

                     E (Thermal)             CV                S
                      KCal/Mol        Cal/Mol-Kelvin    Cal/Mol-Kelvin
 Total                  165.702             39.285             96.756
 Electronic               0.000              0.000              0.000
 Translational            0.889              2.981             40.410
 Rotational               0.889              2.981             29.359
 Vibrational            163.924             33.323             26.986
 Vibration     1          0.598              1.969              4.159
 Vibration     2          0.605              1.947              3.394
 Vibration     3          0.624              1.882              2.463
 Vibration     4          0.627              1.876              2.403
 Vibration     5          0.639              1.835              2.100
 Vibration     6          0.660              1.770              1.760
 Vibration     7          0.671              1.738              1.630
 Vibration     8          0.678              1.717              1.555
 Vibration     9          0.723              1.587              1.192
 Vibration    10          0.761              1.483              0.986
 Vibration    11          0.785              1.421              0.882
 Vibration    12          0.813              1.350              0.781
 Vibration    13          0.882              1.190              0.594
 Vibration    14          0.932              1.084              0.494

 Optimization completed.
    -- Stationary point found.
 Normal termination of Gaussian 16 at Sun May 28 20:54:49 2023.
