 Gaussian 16, Revision A.03,
 Gaussian 16:  ES64L-G16RevA.03 25-Dec-2016

 -----------------------------
 # opt freq b3lyp/6-31g(2df,p)
 -----------------------------

 -------------------
 Title Card Required
 -------------------
 Symbolic Z-matrix:
 Charge =  0 Multiplicity = 1

 SCF Done:  E(RB3LYP) =  -497.957580748     A.U. after   14 cycles
 SCF Done:  E(RB3LYP) =  -497.965865604     A.U. after   12 cycles
 SCF Done:  E(RB3LYP) =  -497.970467830     A.U. after   13 cycles
 SCF Done:  E(RB3LYP) =  -497.976526336     A.U. after   13 cycles
 SCF Done:  E(RB3LYP) =  -497.978737886     A.U. after   12 cycles
 SCF Done:  E(RB3LYP) =  -497.980528505     A.U. after   11 cycles
 SCF Done:  E(RB3LYP) =  -497.981157612     A.U. after   11 cycles
 SCF Done:  E(RB3LYP) =  -497.981649659     A.U. after   11 cycles
 SCF Done:  E(RB3LYP) =  -497.982201537     A.U. after   12 cycles
 SCF Done:  E(RB3LYP) =  -497.983987730     A.U. after   12 cycles
 SCF Done:  E(RB3LYP) =  -497.988917431     A.U. after   11 cycles
 SCF Done:  E(RB3LYP) =  -497.989090258     A.U. after   11 cycles
 SCF Done:  E(RB3LYP) =  -497.989197846     A.U. after   10 cycles
 SCF Done:  E(RB3LYP) =  -497.989321815     A.U. after   11 cycles
 SCF Done:  E(RB3LYP) =  -497.989385802     A.U. after   10 cycles
 SCF Done:  E(RB3LYP) =  -497.989401921     A.U. after    9 cycles
 SCF Done:  E(RB3LYP) =  -497.989403723     A.U. after    8 cycles
 SCF Done:  E(RB3LYP) =  -497.989404030     A.U. after    7 cycles
 SCF Done:  E(RB3LYP) =  -497.989404077     A.U. after    6 cycles
 Optimization completed.
    -- Stationary point found.
 Normal termination of Gaussian 16 at Tue May 23 09:01:29 2023.

 ----------------------------------------------------------------------
 #N Geom=AllCheck Guess=TCheck SCRF=Check GenChk RB3LYP/6-31G(2df,p) Fr
 eq
 ----------------------------------------------------------------------

 Structure from the checkpoint file:  "CCC1dCCCCCqdNOrN1.chk"
 -------------------
 Title Card Required
 -------------------
 Charge =  0 Multiplicity = 1

                         Standard orientation:
 ---------------------------------------------------------------------
 Center     Atomic      Atomic             Coordinates (Angstroms)
 Number     Number       Type             X           Y           Z
 ---------------------------------------------------------------------
      1          6           0       -3.067787   -0.861708   -0.655480
      2          6           0       -2.484033   -0.100044    0.547975
      3          6           0       -1.083082    0.430220    0.309274
      4          6           0       -0.874205    1.748153    0.158376
      5          6           0        0.373478    2.536710   -0.126899
      6          6           0        1.589615    1.755623   -0.628201
      7          6           0        2.014924    0.638166    0.338208
      8          6           0        1.219134   -0.621784    0.179334
      9          7           0        1.892673   -1.707823   -0.008268
     10          8           0        1.006396   -2.815749   -0.144381
     11          7           0       -0.151552   -0.613912    0.254931
     12          1           0       -4.076609   -1.221497   -0.431317
     13          1           0       -2.461890   -1.732052   -0.928513
     14          1           0       -3.122373   -0.209708   -1.532449
     15          1           0       -2.474882   -0.760091    1.426147
     16          1           0       -3.138186    0.739850    0.793462
     17          1           0       -1.763180    2.360691    0.280533
     18          1           0        0.666529    3.085652    0.783038
     19          1           0        0.125036    3.318656   -0.857517
     20          1           0        2.424181    2.453947   -0.752792
     21          1           0        1.389990    1.327647   -1.617556
     22          1           0        1.924049    0.999817    1.371699
     23          1           0        3.058896    0.357912    0.183487
     24          1           0        1.619605   -3.549878   -0.236413
     25          1           0       -0.538453   -1.544815    0.211066
 ---------------------------------------------------------------------

 SCF Done:  E(RB3LYP) =  -497.989404077     A.U. after    1 cycles

 The electronic state is 1-A.
 Alpha  occ. eigenvalues --  -19.16166 -14.35118 -14.34266 -10.23921 -10.21788
 Alpha  occ. eigenvalues --  -10.18950 -10.18689 -10.18287 -10.18265 -10.17978
 Alpha  occ. eigenvalues --  -10.16474  -1.05738  -0.94737  -0.84302  -0.80182
 Alpha  occ. eigenvalues --   -0.77380  -0.73152  -0.68892  -0.64184  -0.59960
 Alpha  occ. eigenvalues --   -0.57754  -0.54946  -0.51511  -0.47183  -0.45588
 Alpha  occ. eigenvalues --   -0.45061  -0.43585  -0.43353  -0.42403  -0.40855
 Alpha  occ. eigenvalues --   -0.40028  -0.38524  -0.37450  -0.35865  -0.35301
 Alpha  occ. eigenvalues --   -0.34324  -0.33167  -0.32375  -0.31929  -0.26741
 Alpha  occ. eigenvalues --   -0.24422  -0.18757
 Alpha virt. eigenvalues --    0.01592   0.06817   0.07888   0.09501   0.10587
 Alpha virt. eigenvalues --    0.12812   0.13836   0.14583   0.14678   0.15217
 Alpha virt. eigenvalues --    0.15498   0.16224   0.17040   0.17291   0.19623

 Mulliken charges:
               1
     1  C   -0.375458
     2  C   -0.278626
     3  C    0.337438
     4  C   -0.135790
     5  C   -0.259670
     6  C   -0.213184
     7  C   -0.278382
     8  C    0.430906
     9  N   -0.244225
    10  O   -0.433358
    11  N   -0.423593
    12  H    0.116676
    13  H    0.123106
    14  H    0.124989
    15  H    0.105143
    16  H    0.111264
    17  H    0.074797
    18  H    0.104155
    19  H    0.100989
    20  H    0.098646
    21  H    0.108471
    22  H    0.112592
    23  H    0.125780
    24  H    0.305330
    25  H    0.262006
 Sum of Mulliken charges =  -0.00000

 Dipole moment (field-independent basis, Debye):
    X=             -1.0213    Y=              0.3488    Z=              0.1007  Tot=              1.0839
 Quadrupole moment (field-independent basis, Debye-Ang):
   XX=            -65.3192   YY=            -60.6511   ZZ=            -67.9302
   XY=              1.6811   XZ=             -0.5184   YZ=              0.1670

  Exact polarizability: 114.612  -3.437 135.276  -2.115   1.123  71.156
 Approx polarizability: 154.611 -13.816 208.488  -4.104   2.572 111.048

                      1                      2                      3
                      A                      A                      A
 Frequencies --     58.7051                67.3089                94.1483
 Red. masses --      2.8750                 2.8011                 4.6430
 Frc consts  --      0.0058                 0.0075                 0.0242
 IR Inten    --      0.1456                 0.3758                 0.3431

                      4                      5                      6
                      A                      A                      A
 Frequencies --    165.8168               183.9956               226.6488
 Red. masses --      2.8523                 1.5925                 2.0740
 Frc consts  --      0.0462                 0.0318                 0.0628
 IR Inten    --      0.4860                 1.4547                 0.7928

                      7                      8                      9
                      A                      A                      A
 Frequencies --    240.7301               270.0613               310.0628
 Red. masses --      2.0836                 1.3053                 2.9943
 Frc consts  --      0.0711                 0.0561                 0.1696
 IR Inten    --      9.2587                95.5596                 1.4384

                     10                     11                     12
                      A                      A                      A
 Frequencies --    340.5085               354.8628               386.5745
 Red. masses --      2.4892                 2.7735                 3.3950
 Frc consts  --      0.1700                 0.2058                 0.2989
 IR Inten    --      6.9798                 4.8524                 4.9238

                     13                     14                     15
                      A                      A                      A
 Frequencies --    407.1226               508.8033               560.4800
 Red. masses --      3.0842                 2.5165                 1.4091
 Frc consts  --      0.3012                 0.3838                 0.2608
 IR Inten    --      3.2750                 3.2959                20.8187

                     16                     17                     18
                      A                      A                      A
 Frequencies --    602.8644               618.5733               651.8305
 Red. masses --      2.8088                 3.3499                 3.5628
 Frc consts  --      0.6015                 0.7552                 0.8919
 IR Inten    --      8.0355                16.2601                 2.1114

                     19                     20                     21
                      A                      A                      A
 Frequencies --    682.7402               785.3049               800.4759
 Red. masses --      3.4662                 1.1792                 1.2405
 Frc consts  --      0.9520                 0.4285                 0.4683
 IR Inten    --     11.6053                 5.7471                 9.2562

                     22                     23                     24
                      A                      A                      A
 Frequencies --    814.0893               868.2180               877.7282
 Red. masses --      3.5837                 1.7910                 2.3107
 Frc consts  --      1.3993                 0.7954                 1.0489
 IR Inten    --      6.7474                12.7638                17.1266

                     25                     26                     27
                      A                      A                      A
 Frequencies --    929.1804               942.2821               965.9295
 Red. masses --      3.8312                 2.4128                 2.4900
 Frc consts  --      1.9489                 1.2622                 1.3688
 IR Inten    --     62.5090                16.8482                42.0995

                     28                     29                     30
                      A                      A                      A
 Frequencies --    988.5260              1063.7557              1070.5130
 Red. masses --      3.0283                 2.3193                 2.0109
 Frc consts  --      1.7435                 1.5463                 1.3578
 IR Inten    --     60.5456                 5.8072                 3.9276

                     31                     32                     33
                      A                      A                      A
 Frequencies --   1087.0920              1100.0351              1131.8254
 Red. masses --      1.9122                 1.9000                 2.3175
 Frc consts  --      1.3315                 1.3546                 1.7492
 IR Inten    --      2.9281                 6.9244                 0.6623

                     34                     35                     36
                      A                      A                      A
 Frequencies --   1176.5798              1180.0374              1241.8018
 Red. masses --      1.1886                 1.4285                 1.3867
 Frc consts  --      0.9695                 1.1720                 1.2599
 IR Inten    --      3.3808                27.6935                19.1424

                     37                     38                     39
                      A                      A                      A
 Frequencies --   1282.0200              1285.4838              1332.7875
 Red. masses --      1.2071                 1.1785                 1.2122
 Frc consts  --      1.1689                 1.1474                 1.2687
 IR Inten    --      8.1575                 5.1750                35.8151

                     40                     41                     42
                      A                      A                      A
 Frequencies --   1350.0634              1352.7582              1370.6775
 Red. masses --      1.4669                 1.4665                 1.4563
 Frc consts  --      1.5753                 1.5812                 1.6120
 IR Inten    --     23.4965                13.7985                 3.8781

                     43                     44                     45
                      A                      A                      A
 Frequencies --   1382.7125              1407.9756              1413.4831
 Red. masses --      1.7017                 1.2946                 1.3465
 Frc consts  --      1.9169                 1.5120                 1.5850
 IR Inten    --     10.7309                 9.7073                 5.2855

                     46                     47                     48
                      A                      A                      A
 Frequencies --   1442.2148              1473.8322              1481.4470
 Red. masses --      2.9381                 1.1681                 1.0797
 Frc consts  --      3.6006                 1.4950                 1.3961
 IR Inten    --    126.4790                24.7918                 4.3827

                     49                     50                     51
                      A                      A                      A
 Frequencies --   1482.3657              1495.0649              1496.7727
 Red. masses --      1.0755                 1.0971                 1.0525
 Frc consts  --      1.3925                 1.4448                 1.3893
 IR Inten    --      5.2013                 6.3512                 2.5284

                     52                     53                     54
                      A                      A                      A
 Frequencies --   1506.5559              1536.4288              1710.1586
 Red. masses --      1.0755                 1.6204                 5.1635
 Frc consts  --      1.4383                 2.2537                 8.8975
 IR Inten    --      2.3415                71.6391               243.0987

                     55                     56                     57
                      A                      A                      A
 Frequencies --   1740.0282              2971.2298              3016.6911
 Red. masses --      6.6681                 1.0716                 1.0695
 Frc consts  --     11.8950                 5.5739                 5.7344
 IR Inten    --     51.8735                45.0438                33.4867

                     58                     59                     60
                      A                      A                      A
 Frequencies --   3017.1390              3017.9371              3036.3258
 Red. masses --      1.0770                 1.0752                 1.0351
 Frc consts  --      5.7763                 5.7698                 5.6226
 IR Inten    --     13.4744                15.1377                22.0539

                     61                     62                     63
                      A                      A                      A
 Frequencies --   3038.4154              3075.2777              3087.9500
 Red. masses --      1.0636                 1.1041                 1.0947
 Frc consts  --      5.7851                 6.1520                 6.1502
 IR Inten    --     49.8675                35.9078                 2.5482

                     64                     65                     66
                      A                      A                      A
 Frequencies --   3108.2000              3109.9768              3114.2799
 Red. masses --      1.0992                 1.0921                 1.1026
 Frc consts  --      6.2569                 6.2237                 6.3009
 IR Inten    --     39.8296                11.4548                29.0217

                     67                     68                     69
                      A                      A                      A
 Frequencies --   3156.7987              3613.4417              3849.2259
 Red. masses --      1.0868                 1.0740                 1.0679
 Frc consts  --      6.3812                 8.2626                 9.3225
 IR Inten    --     17.9973                42.3753               100.2993

 - Thermochemistry -
 -------------------
 Temperature   298.150 Kelvin.  Pressure   1.00000 Atm.
 Atom     1 has atomic number  6 and mass  12.00000

 Molecular mass:   154.11061 amu.
 Principal axes and moments of inertia in atomic units:
                           1         2         3
     Eigenvalues --  1528.902721734.570143042.71313
           X            0.97122   0.23816   0.00335
           Y           -0.23816   0.97123   0.00040
           Z           -0.00316  -0.00118   0.99999
 This molecule is an asymmetric top.
 Rotational symmetry number  1.
 Warning -- assumption of classical behavior for rotation
           may cause significant error
 Rotational temperatures (Kelvin)      0.05665     0.04993     0.02847
 Rotational constants (GHZ):           1.18042     1.04045     0.59314
 Zero-point vibrational energy     571282.2 (Joules/Mol)
                                  136.53973 (Kcal/Mol)
 Warning -- explicit consideration of  17 degrees of freedom as
           vibrations may cause significant error
 Vibrational temperatures:     84.46    96.84   135.46   238.57   264.73
          (Kelvin)            326.10   346.36   388.56   446.11   489.92
                              510.57   556.19   585.76   732.05   806.41
                              867.39   889.99   937.84   982.31  1129.88
                             1151.71  1171.29  1249.17  1262.86  1336.88
                             1355.73  1389.76  1422.27  1530.51  1540.23
                             1564.08  1582.71  1628.44  1692.84  1697.81
                             1786.68  1844.54  1849.52  1917.58  1942.44
                             1946.32  1972.10  1989.41  2025.76  2033.69
                             2075.03  2120.52  2131.47  2132.79  2151.06
                             2153.52  2167.60  2210.58  2460.54  2503.51
                             4274.94  4340.35  4340.99  4342.14  4368.60
                             4371.60  4424.64  4442.87  4472.01  4474.56
                             4480.75  4541.93  5198.94  5538.18

 Zero-point correction=                           0.217590 (Hartree/Particle)
 Thermal correction to Energy=                    0.229027
 Thermal correction to Enthalpy=                  0.229971
 Thermal correction to Gibbs Free Energy=         0.180380
 Sum of electronic and zero-point Energies=           -497.771814
 Sum of electronic and thermal Energies=              -497.760377
 Sum of electronic and thermal Enthalpies=            -497.759433
 Sum of electronic and thermal Free Energies=         -497.809024

                     E (Thermal)             CV                S
                      KCal/Mol        Cal/Mol-Kelvin    Cal/Mol-Kelvin
 Total                  143.717             43.456            104.372
 Electronic               0.000              0.000              0.000
 Translational            0.889              2.981             41.007
 Rotational               0.889              2.981             30.468
 Vibrational            141.939             37.494             32.897
 Vibration     1          0.596              1.974              4.500
 Vibration     2          0.598              1.970              4.231
 Vibration     3          0.603              1.953              3.572
 Vibration     4          0.624              1.884              2.482
 Vibration     5          0.631              1.862              2.287
 Vibration     6          0.650              1.800              1.905
 Vibration     7          0.658              1.778              1.797
 Vibration     8          0.674              1.728              1.596
 Vibration     9          0.699              1.655              1.362
 Vibration    10          0.720              1.595              1.210
 Vibration    11          0.731              1.565              1.145
 Vibration    12          0.755              1.499              1.013
 Vibration    13          0.772              1.455              0.937
 Vibration    14          0.864              1.230              0.636
 Vibration    15          0.916              1.117              0.523
 Vibration    16          0.961              1.026              0.445
 Vibration    17          0.978              0.993              0.419

 Optimization completed.
    -- Stationary point found.
 Normal termination of Gaussian 16 at Tue May 23 09:56:54 2023.
