 Gaussian 16, Revision A.03,
 Gaussian 16:  ES64L-G16RevA.03 25-Dec-2016

 -----------------------------
 # opt freq b3lyp/6-31g(2df,p)
 -----------------------------

 -------------------
 Title Card Required
 -------------------
 Symbolic Z-matrix:
 Charge =  0 Multiplicity = 1

 SCF Done:  E(RB3LYP) =  -533.591303568     A.U. after   12 cycles
 SCF Done:  E(RB3LYP) =  -533.598807455     A.U. after   10 cycles
 SCF Done:  E(RB3LYP) =  -533.600419346     A.U. after   10 cycles
 SCF Done:  E(RB3LYP) =  -533.602455852     A.U. after   10 cycles
 SCF Done:  E(RB3LYP) =  -533.603088934     A.U. after   10 cycles
 SCF Done:  E(RB3LYP) =  -533.603256217     A.U. after   10 cycles
 SCF Done:  E(RB3LYP) =  -533.603326844     A.U. after    9 cycles
 SCF Done:  E(RB3LYP) =  -533.603329889     A.U. after    7 cycles
 SCF Done:  E(RB3LYP) =  -533.603331594     A.U. after    7 cycles
 SCF Done:  E(RB3LYP) =  -533.603331741     A.U. after    6 cycles
 SCF Done:  E(RB3LYP) =  -533.603331792     A.U. after    6 cycles
 Optimization completed.
    -- Stationary point found.
 Normal termination of Gaussian 16 at Sun May 28 14:41:02 2023.

 ----------------------------------------------------------------------
 #N Geom=AllCheck Guess=TCheck SCRF=Check GenChk RB3LYP/6-31G(2df,p) Fr
 eq
 ----------------------------------------------------------------------

 Structure from the checkpoint file:  "CCC1CC1CqFrqFrF.chk"
 -------------------
 Title Card Required
 -------------------
 Charge =  0 Multiplicity = 1

                         Standard orientation:
 ---------------------------------------------------------------------
 Center     Atomic      Atomic             Coordinates (Angstroms)
 Number     Number       Type             X           Y           Z
 ---------------------------------------------------------------------
      1          6           0       -2.867300    1.162685   -0.012394
      2          6           0       -2.484546   -0.318424   -0.107014
      3          6           0       -1.079837   -0.591764    0.387771
      4          6           0       -0.290214   -1.782885   -0.085451
      5          6           0        0.091772   -0.396779   -0.542964
      6          6           0        1.349093    0.237733   -0.039695
      7          9           0        1.615735   -0.111384    1.232242
      8          9           0        2.415765   -0.110271   -0.779796
      9          9           0        1.271852    1.580100   -0.076469
     10          1           0       -3.878913    1.336035   -0.391425
     11          1           0       -2.176107    1.784976   -0.590229
     12          1           0       -2.835158    1.511982    1.025222
     13          1           0       -2.573027   -0.660102   -1.146387
     14          1           0       -3.193362   -0.922735    0.473125
     15          1           0       -0.895954   -0.300146    1.418450
     16          1           0       -0.735910   -2.438368   -0.825710
     17          1           0        0.363813   -2.276538    0.623567
     18          1           0       -0.119356   -0.124504   -1.571935
 ---------------------------------------------------------------------

 SCF Done:  E(RB3LYP) =  -533.603331792     A.U. after    1 cycles

 The electronic state is 1-A.
 Alpha  occ. eigenvalues --  -24.71486 -24.70857 -24.70838 -10.41172 -10.20971
 Alpha  occ. eigenvalues --  -10.20536 -10.19990 -10.19289 -10.17897  -1.29732
 Alpha  occ. eigenvalues --   -1.21020  -1.20590  -0.88431  -0.76960  -0.71596
 Alpha  occ. eigenvalues --   -0.64340  -0.62452  -0.59002  -0.57604  -0.56559
 Alpha  occ. eigenvalues --   -0.54874  -0.47931  -0.45327  -0.45037  -0.44843
 Alpha  occ. eigenvalues --   -0.43457  -0.41500  -0.41183  -0.40488  -0.39171
 Alpha  occ. eigenvalues --   -0.37962  -0.36865  -0.35520  -0.34423  -0.30595
 Alpha  occ. eigenvalues --   -0.29618
 Alpha virt. eigenvalues --    0.08594   0.09520   0.10679   0.11198   0.14769
 Alpha virt. eigenvalues --    0.15095   0.15718   0.16636   0.16960   0.18517
 Alpha virt. eigenvalues --    0.19113   0.21191   0.21973   0.23577   0.25809

 Mulliken charges:
               1
     1  C   -0.373546
     2  C   -0.207326
     3  C    0.012780
     4  C   -0.315681
     5  C   -0.163314
     6  C    0.276740
     7  F   -0.087921
     8  F   -0.080169
     9  F   -0.081668
    10  H    0.114548
    11  H    0.123113
    12  H    0.119350
    13  H    0.095264
    14  H    0.103745
    15  H    0.102383
    16  H    0.118712
    17  H    0.131375
    18  H    0.111613
 Sum of Mulliken charges =  -0.00000

 Dipole moment (field-independent basis, Debye):
    X=             -2.1041    Y=             -0.9510    Z=             -0.4152  Tot=              2.3461
 Quadrupole moment (field-independent basis, Debye-Ang):
   XX=            -54.0099   YY=            -52.2997   ZZ=            -50.9416
   XY=             -0.3986   XZ=              0.5034   YZ=              0.1548

  Exact polarizability:  72.542  -2.163  65.186  -0.820   0.156  57.507
 Approx polarizability:  91.403  -0.694  91.383  -2.591  -0.656  88.706

                      1                      2                      3
                      A                      A                      A
 Frequencies --     51.3572                89.1264               112.4470
 Red. masses --      5.4282                 4.2638                 2.2297
 Frc consts  --      0.0084                 0.0200                 0.0166
 IR Inten    --      0.0606                 0.3669                 0.0926

                      4                      5                      6
                      A                      A                      A
 Frequencies --    171.8758               231.2114               252.8825
 Red. masses --      2.3851                 1.6877                 2.7499
 Frc consts  --      0.0415                 0.0532                 0.1036
 IR Inten    --      0.3655                 0.4001                 0.3319

                      7                      8                      9
                      A                      A                      A
 Frequencies --    349.7290               379.3662               417.8096
 Red. masses --      2.8609                 4.4597                 4.7468
 Frc consts  --      0.2062                 0.3782                 0.4882
 IR Inten    --      2.5780                 3.3205                 0.7929

                     10                     11                     12
                      A                      A                      A
 Frequencies --    436.7220               540.5197               575.9294
 Red. masses --      2.9981                 8.4872                 8.5417
 Frc consts  --      0.3369                 1.4610                 1.6693
 IR Inten    --      1.0125                 3.0653                 0.1529

                     13                     14                     15
                      A                      A                      A
 Frequencies --    649.4304               770.9246               797.5578
 Red. masses --      4.4743                 1.3755                 3.5545
 Frc consts  --      1.1118                 0.4817                 1.3321
 IR Inten    --     10.2844                 6.0314                 0.2182

                     16                     17                     18
                      A                      A                      A
 Frequencies --    814.7738               906.0867               942.3077
 Red. masses --      1.4564                 1.7266                 2.1557
 Frc consts  --      0.5696                 0.8352                 1.1278
 IR Inten    --      0.2841                 6.1006                11.5947

                     19                     20                     21
                      A                      A                      A
 Frequencies --    968.3830               986.1868              1054.9378
 Red. masses --      2.3231                 1.9006                 1.9903
 Frc consts  --      1.2835                 1.0891                 1.3050
 IR Inten    --      8.8883                 1.6683                 5.5427

                     22                     23                     24
                      A                      A                      A
 Frequencies --   1079.1473              1085.3619              1109.2219
 Red. masses --      1.3697                 1.8613                 1.2941
 Frc consts  --      0.9398                 1.2919                 0.9381
 IR Inten    --      7.0655                18.7766                 4.9372

                     25                     26                     27
                      A                      A                      A
 Frequencies --   1136.3491              1177.9255              1185.2095
 Red. masses --      1.6534                 3.2413                 5.0464
 Frc consts  --      1.2579                 2.6498                 4.1766
 IR Inten    --     29.9580               174.0637               194.1231

                     28                     29                     30
                      A                      A                      A
 Frequencies --   1210.0819              1232.0210              1284.9714
 Red. masses --      2.1677                 1.8431                 2.7157
 Frc consts  --      1.8702                 1.6483                 2.6419
 IR Inten    --     38.7873                 3.8094               143.1206

                     31                     32                     33
                      A                      A                      A
 Frequencies --   1292.6695              1343.3890              1378.1503
 Red. masses --      1.2876                 1.3728                 1.7175
 Frc consts  --      1.2677                 1.4597                 1.9220
 IR Inten    --      9.4926                 7.6485                65.7077

                     34                     35                     36
                      A                      A                      A
 Frequencies --   1413.1807              1451.2872              1485.4863
 Red. masses --      1.2377                 1.4900                 1.0710
 Frc consts  --      1.4564                 1.8490                 1.3924
 IR Inten    --      2.6317                39.5396                 0.6527

                     37                     38                     39
                      A                      A                      A
 Frequencies --   1497.7252              1501.5094              1507.4352
 Red. masses --      1.0408                 1.7133                 1.1168
 Frc consts  --      1.3756                 2.2758                 1.4951
 IR Inten    --      5.2871                12.1786                 6.8001

                     40                     41                     42
                      A                      A                      A
 Frequencies --   3018.8414              3034.2868              3050.3809
 Red. masses --      1.0598                 1.0351                 1.1016
 Frc consts  --      5.6904                 5.6149                 6.0392
 IR Inten    --     25.9957                23.4843                16.1396

                     43                     44                     45
                      A                      A                      A
 Frequencies --   3102.1415              3108.5870              3140.4214
 Red. masses --      1.1018                 1.1018                 1.0545
 Frc consts  --      6.2469                 6.2730                 6.1272
 IR Inten    --     32.1708                33.7856                 9.5803

                     46                     47                     48
                      A                      A                      A
 Frequencies --   3149.2339              3169.3418              3229.7052
 Red. masses --      1.0882                 1.0883                 1.1162
 Frc consts  --      6.3588                 6.4408                 6.8602
 IR Inten    --      7.8236                 4.1949                 4.5979

 - Thermochemistry -
 -------------------
 Temperature   298.150 Kelvin.  Pressure   1.00000 Atm.
 Atom     1 has atomic number  6 and mass  12.00000

 Molecular mass:   138.06564 amu.
 Principal axes and moments of inertia in atomic units:
                           1         2         3
     Eigenvalues --   659.460891782.408252050.59108
           X            0.99963  -0.02687   0.00304
           Y            0.02684   0.99958   0.01105
           Z           -0.00333  -0.01096   0.99993
 This molecule is an asymmetric top.
 Rotational symmetry number  1.
 Warning -- assumption of classical behavior for rotation
           may cause significant error
 Rotational temperatures (Kelvin)      0.13134     0.04859     0.04224
 Rotational constants (GHZ):           2.73669     1.01253     0.88011
 Zero-point vibrational energy     376067.8 (Joules/Mol)
                                   89.88236 (Kcal/Mol)
 Warning -- explicit consideration of  12 degrees of freedom as
           vibrations may cause significant error
 Vibrational temperatures:     73.89   128.23   161.79   247.29   332.66
          (Kelvin)            363.84   503.18   545.82   601.13   628.35
                              777.69   828.63   934.39  1109.19  1147.51
                             1172.28  1303.66  1355.77  1393.29  1418.90
                             1517.82  1552.65  1561.59  1595.92  1634.95
                             1694.77  1705.25  1741.04  1772.60  1848.79
                             1859.86  1932.84  1982.85  2033.25  2088.08
                             2137.28  2154.89  2160.34  2168.86  4343.44
                             4365.66  4388.82  4463.29  4472.56  4518.37
                             4531.05  4559.98  4646.83

 Zero-point correction=                           0.143237 (Hartree/Particle)
 Thermal correction to Energy=                    0.152423
 Thermal correction to Enthalpy=                  0.153367
 Thermal correction to Gibbs Free Energy=         0.108349
 Sum of electronic and zero-point Energies=           -533.460095
 Sum of electronic and thermal Energies=              -533.450909
 Sum of electronic and thermal Enthalpies=            -533.449965
 Sum of electronic and thermal Free Energies=         -533.494983

                     E (Thermal)             CV                S
                      KCal/Mol        Cal/Mol-Kelvin    Cal/Mol-Kelvin
 Total                   95.647             33.365             94.750
 Electronic               0.000              0.000              0.000
 Translational            0.889              2.981             40.679
 Rotational               0.889              2.981             29.268
 Vibrational             93.869             27.404             24.802
 Vibration     1          0.596              1.977              4.764
 Vibration     2          0.602              1.957              3.679
 Vibration     3          0.607              1.939              3.226
 Vibration     4          0.626              1.877              2.415
 Vibration     5          0.653              1.793              1.870
 Vibration     6          0.664              1.758              1.710
 Vibration     7          0.727              1.576              1.167
 Vibration     8          0.749              1.514              1.042
 Vibration     9          0.781              1.432              0.899
 Vibration    10          0.797              1.390              0.837
 Vibration    11          0.896              1.160              0.564
 Vibration    12          0.932              1.083              0.493

 Optimization completed.
    -- Stationary point found.
 Normal termination of Gaussian 16 at Sun May 28 15:05:28 2023.
