 Gaussian 16, Revision A.03,
 Gaussian 16:  ES64L-G16RevA.03 25-Dec-2016

 -----------------------------
 # opt freq b3lyp/6-31g(2df,p)
 -----------------------------

 -------------------
 Title Card Required
 -------------------
 Symbolic Z-matrix:
 Charge =  0 Multiplicity = 1

 SCF Done:  E(RB3LYP) =  -352.460690827     A.U. after   12 cycles
 SCF Done:  E(RB3LYP) =  -352.496126370     A.U. after   11 cycles
 SCF Done:  E(RB3LYP) =  -352.482743272     A.U. after   12 cycles
 SCF Done:  E(RB3LYP) =  -352.520766988     A.U. after   10 cycles
 SCF Done:  E(RB3LYP) =  -352.524796829     A.U. after   11 cycles
 SCF Done:  E(RB3LYP) =  -352.530786197     A.U. after   10 cycles
 SCF Done:  E(RB3LYP) =  -352.532656026     A.U. after   10 cycles
 SCF Done:  E(RB3LYP) =  -352.533467920     A.U. after   10 cycles
 SCF Done:  E(RB3LYP) =  -352.533809719     A.U. after    9 cycles
 SCF Done:  E(RB3LYP) =  -352.533907655     A.U. after    9 cycles
 SCF Done:  E(RB3LYP) =  -352.533940695     A.U. after   10 cycles
 SCF Done:  E(RB3LYP) =  -352.533959079     A.U. after    9 cycles
 SCF Done:  E(RB3LYP) =  -352.534008867     A.U. after    9 cycles
 SCF Done:  E(RB3LYP) =  -352.534013977     A.U. after    8 cycles
 SCF Done:  E(RB3LYP) =  -352.534017490     A.U. after    8 cycles
 SCF Done:  E(RB3LYP) =  -352.534018202     A.U. after    7 cycles
 SCF Done:  E(RB3LYP) =  -352.534018521     A.U. after    8 cycles
 SCF Done:  E(RB3LYP) =  -352.534018816     A.U. after    7 cycles
 SCF Done:  E(RB3LYP) =  -352.534018914     A.U. after    7 cycles
 Optimization completed.
    -- Stationary point found.
 Normal termination of Gaussian 16 at Sun May 28 06:15:58 2023.

 ----------------------------------------------------------------------
 #N Geom=AllCheck Guess=TCheck SCRF=Check GenChk RB3LYP/6-31G(2df,p) Fr
 eq
 ----------------------------------------------------------------------

 Structure from the checkpoint file:  "CCC1C2CC1C2CC.chk"
 -------------------
 Title Card Required
 -------------------
 Charge =  0 Multiplicity = 1

                         Standard orientation:
 ---------------------------------------------------------------------
 Center     Atomic      Atomic             Coordinates (Angstroms)
 Number     Number       Type             X           Y           Z
 ---------------------------------------------------------------------
      1          6           0       -2.371165    1.635490   -0.501066
      2          6           0       -1.670202    0.868011    0.626666
      3          6           0       -1.196978   -0.515882    0.186639
      4          6           0       -0.132901   -0.824411   -0.931300
      5          6           0       -0.087210   -2.262486   -0.334175
      6          6           0       -0.039439   -1.296271    0.887256
      7          6           0        1.023572   -0.484132    0.065291
      8          6           0        1.492438    0.947582    0.362201
      9          6           0        2.879217    1.220210   -0.235796
     10          1           0       -2.784733    2.583252   -0.142340
     11          1           0       -3.195718    1.050562   -0.924071
     12          1           0       -1.677443    1.861138   -1.318347
     13          1           0       -2.379962    0.718750    1.451554
     14          1           0       -0.864715    1.474531    1.042066
     15          1           0       -2.093025   -1.136646    0.051559
     16          1           0       -0.188265   -0.561341   -1.990195
     17          1           0        0.815372   -2.845046   -0.535162
     18          1           0       -0.990690   -2.867748   -0.441588
     19          1           0        0.022186   -1.576902    1.941713
     20          1           0        1.916728   -1.094481   -0.120980
     21          1           0        1.530594    1.113995    1.446684
     22          1           0        0.794846    1.686412   -0.039261
     23          1           0        3.632516    0.546017    0.186462
     24          1           0        3.202471    2.247609   -0.040994
     25          1           0        2.875843    1.071237   -1.321386
 ---------------------------------------------------------------------

 SCF Done:  E(RB3LYP) =  -352.534018914     A.U. after    1 cycles

 The electronic state is 1-A.
 Alpha  occ. eigenvalues --  -10.19183 -10.19121 -10.18365 -10.18361 -10.17950
 Alpha  occ. eigenvalues --  -10.17494 -10.17268 -10.17020 -10.17014  -0.90198
 Alpha  occ. eigenvalues --   -0.76657  -0.76229  -0.66158  -0.65624  -0.61627
 Alpha  occ. eigenvalues --   -0.59696  -0.58136  -0.51679  -0.48760  -0.45018
 Alpha  occ. eigenvalues --   -0.44189  -0.43565  -0.41046  -0.39415  -0.38412
 Alpha  occ. eigenvalues --   -0.36653  -0.36136  -0.34987  -0.34279  -0.31681
 Alpha  occ. eigenvalues --   -0.30790  -0.30053  -0.29167  -0.28903  -0.28073
 Alpha virt. eigenvalues --    0.08789   0.10759   0.11515   0.12055   0.12740
 Alpha virt. eigenvalues --    0.14220   0.14560   0.15591   0.15955   0.16388
 Alpha virt. eigenvalues --    0.16974   0.17554   0.17655   0.17960   0.18707

 Mulliken charges:
               1
     1  C   -0.372511
     2  C   -0.243733
     3  C    0.087435
     4  C   -0.083755
     5  C   -0.225750
     6  C   -0.109324
     7  C    0.089117
     8  C   -0.231747
     9  C   -0.390297
    10  H    0.109471
    11  H    0.112880
    12  H    0.115880
    13  H    0.090661
    14  H    0.100891
    15  H    0.057871
    16  H    0.061547
    17  H    0.085771
    18  H    0.085856
    19  H    0.059941
    20  H    0.056446
    21  H    0.097072
    22  H    0.107042
    23  H    0.114987
    24  H    0.108373
    25  H    0.115874
 Sum of Mulliken charges =  -0.00000

 Dipole moment (field-independent basis, Debye):
    X=             -0.0059    Y=              0.1766    Z=              0.0910  Tot=              0.1987
 Quadrupole moment (field-independent basis, Debye-Ang):
   XX=            -58.2066   YY=            -58.4467   ZZ=            -58.0848
   XY=              0.0933   XZ=              0.0018   YZ=              0.1091

  Exact polarizability: 102.264  -0.092  97.456  -0.525   1.040  82.204
 Approx polarizability: 135.273  -0.130 133.217  -0.554   0.988 129.300

                      1                      2                      3
                      A                      A                      A
 Frequencies --     19.6975                66.8496               151.5377
 Red. masses --      2.1617                 2.4857                 2.1946
 Frc consts  --      0.0005                 0.0065                 0.0297
 IR Inten    --      0.0357                 0.0034                 0.0135

                      4                      5                      6
                      A                      A                      A
 Frequencies --    198.1935               216.1210               226.3908
 Red. masses --      1.8977                 1.2305                 1.4999
 Frc consts  --      0.0439                 0.0339                 0.0453
 IR Inten    --      0.0314                 0.0345                 0.0534

                      7                      8                      9
                      A                      A                      A
 Frequencies --    295.6452               342.6234               371.0542
 Red. masses --      1.7731                 2.2436                 2.9303
 Frc consts  --      0.0913                 0.1552                 0.2377
 IR Inten    --      0.0596                 0.1111                 0.5038

                     10                     11                     12
                      A                      A                      A
 Frequencies --    416.5068               541.2164               605.1195
 Red. masses --      2.7969                 2.2865                 3.2466
 Frc consts  --      0.2859                 0.3946                 0.7004
 IR Inten    --      0.4159                 0.0850                 0.0354

                     13                     14                     15
                      A                      A                      A
 Frequencies --    731.6755               758.3012               769.0593
 Red. masses --      1.9145                 1.6101                 1.8410
 Frc consts  --      0.6039                 0.5455                 0.6415
 IR Inten    --      0.8105                 1.6108                 0.7761

                     16                     17                     18
                      A                      A                      A
 Frequencies --    839.2125               843.6762               877.4407
 Red. masses --      1.8935                 1.6285                 1.9616
 Frc consts  --      0.7857                 0.6830                 0.8898
 IR Inten    --      0.7525                 0.9487                 1.8553

                     19                     20                     21
                      A                      A                      A
 Frequencies --    888.8878               891.9811               957.1565
 Red. masses --      2.1343                 2.0783                 1.9461
 Frc consts  --      0.9936                 0.9742                 1.0505
 IR Inten    --      0.9210                 1.2347                 1.5047

                     22                     23                     24
                      A                      A                      A
 Frequencies --    972.1473              1029.9012              1038.6957
 Red. masses --      2.2634                 1.0383                 1.2174
 Frc consts  --      1.2603                 0.6489                 0.7738
 IR Inten    --      3.3982                 0.0950                 0.2486

                     25                     26                     27
                      A                      A                      A
 Frequencies --   1040.8291              1056.4631              1060.9802
 Red. masses --      1.4308                 1.6867                 2.5448
 Frc consts  --      0.9132                 1.1092                 1.6878
 IR Inten    --      0.2522                 1.6752                 0.3534

                     28                     29                     30
                      A                      A                      A
 Frequencies --   1077.5682              1109.7919              1130.8441
 Red. masses --      1.6738                 1.5964                 1.6840
 Frc consts  --      1.1451                 1.1585                 1.2688
 IR Inten    --      0.8572                 0.8365                 0.0186

                     31                     32                     33
                      A                      A                      A
 Frequencies --   1145.4008              1164.4768              1173.7395
 Red. masses --      1.9851                 2.3995                 1.5998
 Frc consts  --      1.5345                 1.9171                 1.2985
 IR Inten    --      0.3098                 0.0840                 0.5701

                     34                     35                     36
                      A                      A                      A
 Frequencies --   1181.9603              1222.6854              1233.9471
 Red. masses --      2.2743                 1.4441                 1.7776
 Frc consts  --      1.8720                 1.2719                 1.5947
 IR Inten    --      0.8318                 0.0524                 1.6409

                     37                     38                     39
                      A                      A                      A
 Frequencies --   1243.1674              1275.3074              1298.7992
 Red. masses --      1.6176                 1.5562                 1.4003
 Frc consts  --      1.4729                 1.4912                 1.3917
 IR Inten    --      8.8160                 0.1041                 0.2515

                     40                     41                     42
                      A                      A                      A
 Frequencies --   1308.8598              1339.8447              1356.1062
 Red. masses --      1.2120                 1.3657                 1.4296
 Frc consts  --      1.2233                 1.4445                 1.5490
 IR Inten    --      3.0110                 4.5134                 6.3953

                     43                     44                     45
                      A                      A                      A
 Frequencies --   1408.9062              1409.9507              1432.9444
 Red. masses --      1.2350                 1.2329                 1.2419
 Frc consts  --      1.4443                 1.4441                 1.5024
 IR Inten    --      0.7671                 2.0247                 2.7032

                     46                     47                     48
                      A                      A                      A
 Frequencies --   1460.8650              1484.6695              1497.1544
 Red. masses --      1.2103                 1.0668                 1.0418
 Frc consts  --      1.5219                 1.3854                 1.3759
 IR Inten    --      3.0382                 2.4668                 0.6249

                     49                     50                     51
                      A                      A                      A
 Frequencies --   1499.0375              1500.1971              1505.1101
 Red. masses --      1.0415                 1.0413                 1.0654
 Frc consts  --      1.3789                 1.3808                 1.4220
 IR Inten    --      3.9056                 4.7730                 3.4748

                     52                     53                     54
                      A                      A                      A
 Frequencies --   1515.6247              1526.0673              2999.4454
 Red. masses --      1.0893                 1.1431                 1.0821
 Frc consts  --      1.4742                 1.5685                 5.7360
 IR Inten    --      2.2525                 0.8650                45.4913

                     55                     56                     57
                      A                      A                      A
 Frequencies --   3008.6495              3021.4269              3021.9742
 Red. masses --      1.0820                 1.0691                 1.0742
 Frc consts  --      5.7707                 5.7503                 5.7797
 IR Inten    --     28.1203                 9.1274                50.6159

                     58                     59                     60
                      A                      A                      A
 Frequencies --   3028.0124              3028.4119              3051.0437
 Red. masses --      1.0354                 1.0361                 1.0545
 Frc consts  --      5.5933                 5.5986                 5.7833
 IR Inten    --     37.5428                24.1928                52.1641

                     61                     62                     63
                      A                      A                      A
 Frequencies --   3076.0952              3078.5727              3084.5135
 Red. masses --      1.0893                 1.0942                 1.0916
 Frc consts  --      6.0732                 6.1100                 6.1193
 IR Inten    --    111.4792                 3.9332                12.2525

                     64                     65                     66
                      A                      A                      A
 Frequencies --   3088.7646              3099.1717              3100.2772
 Red. masses --      1.0978                 1.1020                 1.1015
 Frc consts  --      6.1708                 6.2360                 6.2379
 IR Inten    --     22.0267                39.7889                53.6418

                     67                     68                     69
                      A                      A                      A
 Frequencies --   3103.6991              3117.8806              3125.6009
 Red. masses --      1.1001                 1.1107                 1.0884
 Frc consts  --      6.2434                 6.3617                 6.2651
 IR Inten    --     37.9861                49.3755                40.5871

 - Thermochemistry -
 -------------------
 Temperature   298.150 Kelvin.  Pressure   1.00000 Atm.
 Atom     1 has atomic number  6 and mass  12.00000

 Molecular mass:   124.12520 amu.
 Principal axes and moments of inertia in atomic units:
                           1         2         3
     Eigenvalues --   934.009671353.796151933.00108
           X            0.99999  -0.00385   0.00075
           Y            0.00385   0.99999  -0.00111
           Z           -0.00074   0.00111   1.00000
 This molecule is an asymmetric top.
 Rotational symmetry number  1.
 Warning -- assumption of classical behavior for rotation
           may cause significant error
 Rotational temperatures (Kelvin)      0.09273     0.06398     0.04481
 Rotational constants (GHZ):           1.93225     1.33310     0.93365
 Zero-point vibrational energy     602582.5 (Joules/Mol)
                                  144.02068 (Kcal/Mol)
 Warning -- explicit consideration of  12 degrees of freedom as
           vibrations may cause significant error
 Vibrational temperatures:     28.34    96.18   218.03   285.16   310.95
          (Kelvin)            325.73   425.37   492.96   533.86   599.26
                              778.69   870.63  1052.72  1091.03  1106.50
                             1207.44  1213.86  1262.44  1278.91  1283.36
                             1377.13  1398.70  1481.80  1494.45  1497.52
                             1520.01  1526.51  1550.38  1596.74  1627.03
                             1647.98  1675.42  1688.75  1700.58  1759.17
                             1775.37  1788.64  1834.88  1868.68  1883.16
                             1927.74  1951.13  2027.10  2028.60  2061.69
                             2101.86  2136.11  2154.07  2156.78  2158.45
                             2165.52  2180.65  2195.67  4315.53  4328.78
                             4347.16  4347.95  4356.63  4357.21  4389.77
                             4425.81  4429.38  4437.93  4444.04  4459.02
                             4460.61  4465.53  4485.93  4497.04

 Zero-point correction=                           0.229512 (Hartree/Particle)
 Thermal correction to Energy=                    0.239216
 Thermal correction to Enthalpy=                  0.240160
 Thermal correction to Gibbs Free Energy=         0.193701
 Sum of electronic and zero-point Energies=           -352.304507
 Sum of electronic and thermal Energies=              -352.294803
 Sum of electronic and thermal Enthalpies=            -352.293859
 Sum of electronic and thermal Free Energies=         -352.340318

                     E (Thermal)             CV                S
                      KCal/Mol        Cal/Mol-Kelvin    Cal/Mol-Kelvin
 Total                  150.110             37.007             97.783
 Electronic               0.000              0.000              0.000
 Translational            0.889              2.981             40.362
 Rotational               0.889              2.981             29.282
 Vibrational            148.333             31.045             28.139
 Vibration     1          0.593              1.986              6.664
 Vibration     2          0.598              1.970              4.244
 Vibration     3          0.619              1.901              2.653
 Vibration     4          0.637              1.842              2.150
 Vibration     5          0.645              1.816              1.991
 Vibration     6          0.650              1.801              1.907
 Vibration     7          0.690              1.682              1.441
 Vibration     8          0.722              1.590              1.200
 Vibration     9          0.743              1.532              1.075
 Vibration    10          0.780              1.434              0.904
 Vibration    11          0.896              1.159              0.563
 Vibration    12          0.964              1.021              0.441

                           ! Non-Optimized Parameters !
 Normal termination of Gaussian 16 at Sun May 28 06:57:36 2023.
