 Gaussian 16, Revision A.03,
 Gaussian 16:  ES64L-G16RevA.03 25-Dec-2016

 -----------------------------
 # opt freq b3lyp/6-31g(2df,p)
 -----------------------------

 -------------------
 Title Card Required
 -------------------
 Symbolic Z-matrix:
 Charge =  0 Multiplicity = 1

 SCF Done:  E(RB3LYP) =  -667.279064338     A.U. after   14 cycles
 SCF Done:  E(RB3LYP) =  -667.322119140     A.U. after   12 cycles
 SCF Done:  E(RB3LYP) =  -667.326996812     A.U. after   13 cycles
 SCF Done:  E(RB3LYP) =  -667.380418279     A.U. after   12 cycles
 SCF Done:  E(RB3LYP) =  -667.415183096     A.U. after   12 cycles
 SCF Done:  E(RB3LYP) =  -667.438326643     A.U. after   13 cycles
 SCF Done:  E(RB3LYP) =  -667.445189861     A.U. after   11 cycles
 SCF Done:  E(RB3LYP) =  -667.448443710     A.U. after   11 cycles
 SCF Done:  E(RB3LYP) =  -667.449327098     A.U. after   11 cycles
 SCF Done:  E(RB3LYP) =  -667.449875693     A.U. after   10 cycles
 SCF Done:  E(RB3LYP) =  -667.451029194     A.U. after   10 cycles
 SCF Done:  E(RB3LYP) =  -667.451083728     A.U. after    9 cycles
 SCF Done:  E(RB3LYP) =  -667.451097633     A.U. after   10 cycles
 SCF Done:  E(RB3LYP) =  -667.451097745     A.U. after   10 cycles
 SCF Done:  E(RB3LYP) =  -667.451117661     A.U. after    9 cycles
 SCF Done:  E(RB3LYP) =  -667.451119236     A.U. after    8 cycles
 SCF Done:  E(RB3LYP) =  -667.451119891     A.U. after    8 cycles
 SCF Done:  E(RB3LYP) =  -667.451119843     A.U. after    7 cycles
 SCF Done:  E(RB3LYP) =  -667.451119966     A.U. after    7 cycles
 Optimization completed.
    -- Stationary point found.
 Normal termination of Gaussian 16 at Sat May 27 23:33:29 2023.

 ----------------------------------------------------------------------
 #N Geom=AllCheck Guess=TCheck SCRF=Check GenChk RB3LYP/6-31G(2df,p) Fr
 eq
 ----------------------------------------------------------------------

 Structure from the checkpoint file:  "CCC1CNCqCNrC2qCC2NrNdC1N.chk"
 -------------------
 Title Card Required
 -------------------
 Charge =  0 Multiplicity = 1

                         Standard orientation:
 ---------------------------------------------------------------------
 Center     Atomic      Atomic             Coordinates (Angstroms)
 Number     Number       Type             X           Y           Z
 ---------------------------------------------------------------------
      1          6           0       -4.301633   -1.049251   -0.006373
      2          6           0       -3.408119    0.197819    0.009555
      3          6           0       -1.906295   -0.091987   -0.220460
      4          6           0       -1.304453   -0.937677    0.929968
      5          7           0       -0.136258   -1.744937    0.595838
      6          6           0        0.878329   -1.080876   -0.233442
      7          6           0        2.110060   -2.001498   -0.264730
      8          7           0        3.027365   -1.651117   -1.351906
      9          6           0        1.102213    0.346270    0.260759
     10          6           0        1.689163    0.587323    1.653214
     11          6           0        2.518989    0.907739    0.451265
     12          7           0        2.831081    2.280193    0.142168
     13          7           0        0.177361    1.348089   -0.172747
     14          6           0       -1.061896    1.178359   -0.430037
     15          7           0       -1.722531    2.248625   -1.033955
     16          1           0       -5.355428   -0.763903    0.068483
     17          1           0       -4.092086   -1.731491    0.821925
     18          1           0       -4.175543   -1.608700   -0.940131
     19          1           0       -3.540228    0.734345    0.959127
     20          1           0       -3.772137    0.859632   -0.782900
     21          1           0       -1.841810   -0.676608   -1.150407
     22          1           0       -2.060767   -1.625015    1.316191
     23          1           0       -1.049879   -0.263883    1.755706
     24          1           0       -0.438212   -2.594732    0.129794
     25          1           0        0.543661   -0.976195   -1.284652
     26          1           0        1.735123   -3.038347   -0.323685
     27          1           0        2.650620   -1.933708    0.685718
     28          1           0        2.560613   -1.767838   -2.246981
     29          1           0        3.816147   -2.290103   -1.356606
     30          1           0        1.934977   -0.281528    2.255297
     31          1           0        1.270858    1.419309    2.210417
     32          1           0        3.328670    0.231279    0.210262
     33          1           0        1.945282    2.782077    0.084156
     34          1           0        3.212399    2.312183   -0.800962
     35          1           0       -1.143779    3.078616   -1.036634
     36          1           0       -2.665757    2.431316   -0.728218
 ---------------------------------------------------------------------

 SCF Done:  E(RB3LYP) =  -667.451119966     A.U. after    1 cycles

 The electronic state is 1-A.
 Alpha  occ. eigenvalues --  -14.32757 -14.30678 -14.30667 -14.28996 -14.28339
 Alpha  occ. eigenvalues --  -10.24360 -10.20356 -10.20105 -10.19991 -10.19576
 Alpha  occ. eigenvalues --  -10.19480 -10.19375 -10.18485 -10.18361 -10.15939
 Alpha  occ. eigenvalues --   -0.94484  -0.90606  -0.88277  -0.87174  -0.83977
 Alpha  occ. eigenvalues --   -0.80146  -0.78007  -0.72814  -0.69762  -0.63416
 Alpha  occ. eigenvalues --   -0.63021  -0.60588  -0.56628  -0.56379  -0.53209
 Alpha  occ. eigenvalues --   -0.50971  -0.50567  -0.48379  -0.47101  -0.46289
 Alpha  occ. eigenvalues --   -0.45353  -0.45047  -0.43533  -0.42360  -0.41479
 Alpha  occ. eigenvalues --   -0.40149  -0.39430  -0.38660  -0.37661  -0.37059
 Alpha  occ. eigenvalues --   -0.35796  -0.35077  -0.34529  -0.34380  -0.33771
 Alpha  occ. eigenvalues --   -0.33204  -0.31420  -0.28584  -0.23972  -0.22557
 Alpha  occ. eigenvalues --   -0.21694  -0.21442  -0.18875
 Alpha virt. eigenvalues --    0.02789   0.07428   0.08067   0.09041   0.10271
 Alpha virt. eigenvalues --    0.10977   0.12354   0.12481   0.12862   0.13648
 Alpha virt. eigenvalues --    0.14405   0.15182   0.15498   0.16280   0.16552

 Mulliken charges:
               1
     1  C   -0.396313
     2  C   -0.220157
     3  C   -0.059341
     4  C   -0.178601
     5  N   -0.294482
     6  C   -0.054011
     7  C   -0.191368
     8  N   -0.503534
     9  C    0.356160
    10  C   -0.325803
    11  C   -0.043821
    12  N   -0.528530
    13  N   -0.330223
    14  C    0.305613
    15  N   -0.543339
    16  H    0.117313
    17  H    0.126008
    18  H    0.117524
    19  H    0.102654
    20  H    0.105403
    21  H    0.092445
    22  H    0.091432
    23  H    0.120310
    24  H    0.206276
    25  H    0.048706
    26  H    0.068932
    27  H    0.113884
    28  H    0.222677
    29  H    0.227542
    30  H    0.112370
    31  H    0.103120
    32  H    0.105391
    33  H    0.221074
    34  H    0.220346
    35  H    0.240457
    36  H    0.243885
 Sum of Mulliken charges =   0.00000

 Dipole moment (field-independent basis, Debye):
    X=             -3.3447    Y=             -2.0268    Z=             -1.6363  Tot=              4.2393
 Quadrupole moment (field-independent basis, Debye-Ang):
   XX=            -89.7345   YY=            -86.4701   ZZ=            -92.8544
   XY=            -11.0579   XZ=             -5.5950   YZ=              1.9062

  Exact polarizability: 177.335  -0.868 138.559   3.261  -3.844 114.823
 Approx polarizability: 233.551  -2.273 197.490  10.992  -6.564 186.960

                      1                      2                      3
                      A                      A                      A
 Frequencies --     33.3005                75.3903                88.8713
 Red. masses --      3.7623                 3.8757                 1.6629
 Frc consts  --      0.0025                 0.0130                 0.0077
 IR Inten    --      0.3844                 0.4217                 0.3636

                      4                      5                      6
                      A                      A                      A
 Frequencies --    121.7947               137.0215               158.1681
 Red. masses --      3.7846                 3.0979                 2.4078
 Frc consts  --      0.0331                 0.0343                 0.0355
 IR Inten    --      0.6081                 1.7084                 5.5526

                      7                      8                      9
                      A                      A                      A
 Frequencies --    178.5594               195.6321               216.3594
 Red. masses --      3.6375                 2.8092                 1.4234
 Frc consts  --      0.0683                 0.0633                 0.0393
 IR Inten    --      1.8461                 1.7729                11.7876

                     10                     11                     12
                      A                      A                      A
 Frequencies --    222.6418               247.6826               263.6358
 Red. masses --      1.6050                 1.6574                 1.4176
 Frc consts  --      0.0469                 0.0599                 0.0581
 IR Inten    --      1.6359                14.5856                10.0519

                     13                     14                     15
                      A                      A                      A
 Frequencies --    270.6917               295.8902               314.3802
 Red. masses --      1.6401                 4.2475                 3.5699
 Frc consts  --      0.0708                 0.2191                 0.2079
 IR Inten    --     19.8830                 6.5223                 5.5331

                     16                     17                     18
                      A                      A                      A
 Frequencies --    347.4368               385.0395               388.5255
 Red. masses --      1.9438                 3.3665                 3.0063
 Frc consts  --      0.1382                 0.2941                 0.2674
 IR Inten    --      0.4438                 0.9425                41.7392

                     19                     20                     21
                      A                      A                      A
 Frequencies --    409.5849               426.0921               444.8767
 Red. masses --      3.3249                 1.2649                 2.6599
 Frc consts  --      0.3286                 0.1353                 0.3102
 IR Inten    --      3.4212                86.5759                 1.8578

                     22                     23                     24
                      A                      A                      A
 Frequencies --    485.6768               499.1720               559.9425
 Red. masses --      3.1561                 2.9999                 2.8069
 Frc consts  --      0.4386                 0.4404                 0.5185
 IR Inten    --      5.8905                 9.7698                 0.3893

                     25                     26                     27
                      A                      A                      A
 Frequencies --    600.9461               608.1129               636.3578
 Red. masses --      3.4668                 2.9118                 2.5242
 Frc consts  --      0.7376                 0.6344                 0.6023
 IR Inten    --      8.0007                57.1075                23.9870

                     28                     29                     30
                      A                      A                      A
 Frequencies --    694.0348               735.1103               770.0186
 Red. masses --      2.4234                 1.6729                 1.6944
 Frc consts  --      0.6878                 0.5326                 0.5919
 IR Inten    --     10.9289               184.3892                27.4839

                     31                     32                     33
                      A                      A                      A
 Frequencies --    782.8684               810.8651               825.4400
 Red. masses --      1.6316                 1.7052                 1.8193
 Frc consts  --      0.5892                 0.6606                 0.7303
 IR Inten    --     21.0325                17.4147                29.0191

                     34                     35                     36
                      A                      A                      A
 Frequencies --    859.9613               895.1038               914.2397
 Red. masses --      1.5008                 2.4192                 1.8472
 Frc consts  --      0.6539                 1.1420                 0.9097
 IR Inten    --    127.3268                 9.4693                10.3948

                     37                     38                     39
                      A                      A                      A
 Frequencies --    925.3466               938.1481               968.1073
 Red. masses --      2.0308                 1.9352                 1.9188
 Frc consts  --      1.0245                 1.0035                 1.0595
 IR Inten    --     10.4362                 1.0191                10.7662

                     40                     41                     42
                      A                      A                      A
 Frequencies --    987.7538               995.6158               997.8256
 Red. masses --      1.9719                 2.2139                 1.8259
 Frc consts  --      1.1335                 1.2930                 1.0711
 IR Inten    --     69.6669                58.6385                95.6847

                     43                     44                     45
                      A                      A                      A
 Frequencies --   1025.9706              1036.7557              1055.9335
 Red. masses --      1.9036                 1.4926                 1.7456
 Frc consts  --      1.1806                 0.9453                 1.1467
 IR Inten    --     12.0573                23.3545                 1.8351

                     46                     47                     48
                      A                      A                      A
 Frequencies --   1085.5354              1090.0163              1103.0554
 Red. masses --      1.8108                 1.4333                 2.7035
 Frc consts  --      1.2572                 1.0033                 1.9381
 IR Inten    --      2.3381                12.0598                 9.6594

                     49                     50                     51
                      A                      A                      A
 Frequencies --   1107.1164              1125.5894              1139.1525
 Red. masses --      2.2708                 1.8371                 1.7336
 Frc consts  --      1.6399                 1.3713                 1.3255
 IR Inten    --      5.9046                 0.0246                 6.5415

                     52                     53                     54
                      A                      A                      A
 Frequencies --   1169.4280              1191.5713              1201.0219
 Red. masses --      3.3243                 1.6753                 2.1480
 Frc consts  --      2.6786                 1.4015                 1.8256
 IR Inten    --     17.2299                 7.8039                21.6835

                     55                     56                     57
                      A                      A                      A
 Frequencies --   1241.5556              1256.2237              1278.0468
 Red. masses --      2.0638                 1.5102                 1.3666
 Frc consts  --      1.8744                 1.4042                 1.3151
 IR Inten    --      7.9868                12.1759                 2.8919

                     58                     59                     60
                      A                      A                      A
 Frequencies --   1288.0304              1292.8035              1309.8054
 Red. masses --      1.7581                 1.8388                 1.4151
 Frc consts  --      1.7185                 1.8107                 1.4303
 IR Inten    --      1.4952                10.5725                19.6210

                     61                     62                     63
                      A                      A                      A
 Frequencies --   1318.9322              1341.8477              1350.5451
 Red. masses --      1.3498                 1.3944                 1.7732
 Frc consts  --      1.3835                 1.4793                 1.9056
 IR Inten    --     11.0780                23.2962                22.8982

                     64                     65                     66
                      A                      A                      A
 Frequencies --   1360.1044              1376.3548              1390.5550
 Red. masses --      1.3141                 1.4226                 1.3383
 Frc consts  --      1.4323                 1.5877                 1.5247
 IR Inten    --     25.5311                 0.9841                 0.5724

                     67                     68                     69
                      A                      A                      A
 Frequencies --   1398.3139              1416.4807              1427.6377
 Red. masses --      1.3744                 1.2302                 1.4741
 Frc consts  --      1.5834                 1.4543                 1.7702
 IR Inten    --      4.3645                 0.5319                 5.8123

                     70                     71                     72
                      A                      A                      A
 Frequencies --   1444.1397              1486.7827              1491.7169
 Red. masses --      1.1616                 1.0878                 1.4517
 Frc consts  --      1.4274                 1.4167                 1.9033
 IR Inten    --      6.5689                 1.7700                29.2709

                     73                     74                     75
                      A                      A                      A
 Frequencies --   1495.5402              1497.9413              1501.3368
 Red. masses --      1.0686                 1.2609                 1.0759
 Frc consts  --      1.4081                 1.6670                 1.4288
 IR Inten    --      4.0740                 4.0012                 5.8896

                     76                     77                     78
                      A                      A                      A
 Frequencies --   1510.2035              1515.6433              1621.0833
 Red. masses --      1.0584                 1.1335                 1.2152
 Frc consts  --      1.4222                 1.5341                 1.8816
 IR Inten    --      6.2697                 2.5383                70.8612

                     79                     80                     81
                      A                      A                      A
 Frequencies --   1653.9252              1668.3038              1722.6566
 Red. masses --      1.0901                 1.0867                 7.1585
 Frc consts  --      1.7568                 1.7821                12.5162
 IR Inten    --     30.1228                14.3643               272.1147

                     82                     83                     84
                      A                      A                      A
 Frequencies --   2886.9653              2938.9549              2992.2882
 Red. masses --      1.0797                 1.0743                 1.0802
 Frc consts  --      5.3020                 5.4673                 5.6986
 IR Inten    --     59.0060                80.4676                 6.4887

                     85                     86                     87
                      A                      A                      A
 Frequencies --   3016.6281              3035.7628              3045.1359
 Red. masses --      1.0637                 1.0373                 1.0657
 Frc consts  --      5.7031                 5.6321                 5.8221
 IR Inten    --     24.0125                25.4230                32.3480

                     88                     89                     90
                      A                      A                      A
 Frequencies --   3063.0492              3065.5083              3095.9385
 Red. masses --      1.0865                 1.0971                 1.0989
 Frc consts  --      6.0060                 6.0745                 6.2057
 IR Inten    --     24.5971                14.7305                30.0736

                     91                     92                     93
                      A                      A                      A
 Frequencies --   3100.9429              3115.0421              3122.1603
 Red. masses --      1.1006                 1.0993                 1.0541
 Frc consts  --      6.2353                 6.2849                 6.0541
 IR Inten    --     36.2834                37.0164                11.1661

                     94                     95                     96
                      A                      A                      A
 Frequencies --   3197.6342              3212.6395              3453.5226
 Red. masses --      1.0935                 1.1118                 1.0494
 Frc consts  --      6.5874                 6.7610                 7.3741
 IR Inten    --      2.0463                 9.5184                 9.7505

                     97                     98                     99
                      A                      A                      A
 Frequencies --   3488.0944              3506.0045              3527.7635
 Red. masses --      1.0496                 1.0739                 1.0896
 Frc consts  --      7.5238                 7.7777                 7.9894
 IR Inten    --      0.3736                 1.9492                 4.2755

                    100                    101                    102
                      A                      A                      A
 Frequencies --   3552.3079              3568.0434              3667.0211
 Red. masses --      1.0476                 1.0919                 1.0961
 Frc consts  --      7.7888                 8.1903                 8.6842
 IR Inten    --      6.9840                 0.1494                12.3631

 - Thermochemistry -
 -------------------
 Temperature   298.150 Kelvin.  Pressure   1.00000 Atm.
 Atom     1 has atomic number  6 and mass  12.00000

 Molecular mass:   211.17970 amu.
 Principal axes and moments of inertia in atomic units:
                           1         2         3
     Eigenvalues --  2024.465424311.503905423.10974
           X            0.99999  -0.00162  -0.00471
           Y            0.00164   0.99998   0.00600
           Z            0.00470  -0.00601   0.99997
 This molecule is an asymmetric top.
 Rotational symmetry number  1.
 Warning -- assumption of classical behavior for rotation
           may cause significant error
 Rotational temperatures (Kelvin)      0.04278     0.02009     0.01597
 Rotational constants (GHZ):           0.89147     0.41859     0.33279
 Zero-point vibrational energy     845468.4 (Joules/Mol)
                                  202.07181 (Kcal/Mol)
 Warning -- explicit consideration of  26 degrees of freedom as
           vibrations may cause significant error
 Vibrational temperatures:     47.91   108.47   127.87   175.24   197.14
          (Kelvin)            227.57   256.91   281.47   311.29   320.33
                              356.36   379.31   389.46   425.72   452.32
                              499.88   553.99   559.00   589.30   613.05
                              640.08   698.78   718.20   805.63   864.63
                              874.94   915.58   998.56  1057.66  1107.89
                             1126.37  1166.65  1187.62  1237.29  1287.85
                             1315.39  1331.37  1349.79  1392.89  1421.16
                             1432.47  1435.65  1476.14  1491.66  1519.25
                             1561.84  1568.29  1587.05  1592.89  1619.47
                             1638.99  1682.55  1714.41  1728.00  1786.32
                             1807.43  1838.82  1853.19  1860.06  1884.52
                             1897.65  1930.62  1943.13  1956.89  1980.27
                             2000.70  2011.86  2038.00  2054.05  2077.79
                             2139.15  2146.25  2151.75  2155.20  2160.09
                             2172.85  2180.67  2332.38  2379.63  2400.32
                             2478.52  4153.70  4228.50  4305.24  4340.26
                             4367.79  4381.27  4407.04  4410.58  4454.36
                             4461.57  4481.85  4492.09  4600.68  4622.27
                             4968.85  5018.59  5044.36  5075.66  5110.98
                             5133.62  5276.03

 Zero-point correction=                           0.322022 (Hartree/Particle)
 Thermal correction to Energy=                    0.338126
 Thermal correction to Enthalpy=                  0.339070
 Thermal correction to Gibbs Free Energy=         0.279746
 Sum of electronic and zero-point Energies=           -667.129098
 Sum of electronic and thermal Energies=              -667.112994
 Sum of electronic and thermal Enthalpies=            -667.112050
 Sum of electronic and thermal Free Energies=         -667.171374

                     E (Thermal)             CV                S
                      KCal/Mol        Cal/Mol-Kelvin    Cal/Mol-Kelvin
 Total                  212.177             63.297            124.858
 Electronic               0.000              0.000              0.000
 Translational            0.889              2.981             41.946
 Rotational               0.889              2.981             32.226
 Vibrational            210.400             57.336             50.686
 Vibration     1          0.594              1.983              5.622
 Vibration     2          0.599              1.965              4.007
 Vibration     3          0.602              1.957              3.685
 Vibration     4          0.609              1.931              3.072
 Vibration     5          0.614              1.916              2.845
 Vibration     6          0.621              1.893              2.572
 Vibration     7          0.629              1.869              2.343
 Vibration     8          0.636              1.846              2.174
 Vibration     9          0.645              1.816              1.989
 Vibration    10          0.648              1.807              1.938
 Vibration    11          0.661              1.767              1.747
 Vibration    12          0.670              1.740              1.638
 Vibration    13          0.674              1.727              1.592
 Vibration    14          0.690              1.681              1.440
 Vibration    15          0.702              1.646              1.339
 Vibration    16          0.725              1.580              1.178
 Vibration    17          0.754              1.502              1.019
 Vibration    18          0.757              1.495              1.006
 Vibration    19          0.774              1.449              0.928
 Vibration    20          0.788              1.413              0.872
 Vibration    21          0.804              1.372              0.811
 Vibration    22          0.842              1.282              0.695
 Vibration    23          0.855              1.252              0.660
 Vibration    24          0.916              1.118              0.524
 Vibration    25          0.959              1.030              0.448
 Vibration    26          0.967              1.015              0.436

                           ! Non-Optimized Parameters !
 Normal termination of Gaussian 16 at Sun May 28 02:52:59 2023.
