 Gaussian 16, Revision A.03,
 Gaussian 16:  ES64L-G16RevA.03 25-Dec-2016

 -----------------------------
 # opt freq b3lyp/6-31g(2df,p)
 -----------------------------

 -------------------
 Title Card Required
 -------------------
 Symbolic Z-matrix:
 Charge =  0 Multiplicity = 1

 SCF Done:  E(RB3LYP) =  -313.159647902     A.U. after   12 cycles
 SCF Done:  E(RB3LYP) =  -313.192284485     A.U. after   11 cycles
 SCF Done:  E(RB3LYP) =  -313.212618099     A.U. after   11 cycles
 SCF Done:  E(RB3LYP) =  -313.217239080     A.U. after   10 cycles
 SCF Done:  E(RB3LYP) =  -313.218543006     A.U. after   10 cycles
 SCF Done:  E(RB3LYP) =  -313.219131358     A.U. after   10 cycles
 SCF Done:  E(RB3LYP) =  -313.219341284     A.U. after    9 cycles
 SCF Done:  E(RB3LYP) =  -313.219378980     A.U. after    9 cycles
 SCF Done:  E(RB3LYP) =  -313.219389359     A.U. after    7 cycles
 SCF Done:  E(RB3LYP) =  -313.219391311     A.U. after    6 cycles
 SCF Done:  E(RB3LYP) =  -313.219391590     A.U. after    6 cycles
 SCF Done:  E(RB3LYP) =  -313.219391638     A.U. after    5 cycles
 Optimization completed.
    -- Stationary point found.
 Normal termination of Gaussian 16 at Mon May 29 01:16:06 2023.

 ----------------------------------------------------------------------
 #N Geom=AllCheck Guess=TCheck SCRF=Check GenChk RB3LYP/6-31G(2df,p) Fr
 eq
 ----------------------------------------------------------------------

 Structure from the checkpoint file:  "CCC1qCrC2CC1C2.chk"
 -------------------
 Title Card Required
 -------------------
 Charge =  0 Multiplicity = 1

                         Standard orientation:
 ---------------------------------------------------------------------
 Center     Atomic      Atomic             Coordinates (Angstroms)
 Number     Number       Type             X           Y           Z
 ---------------------------------------------------------------------
      1          6           0        2.431693   -0.586247   -0.465151
      2          6           0        1.451114   -0.245696    0.665164
      3          6           0        0.127893    0.384730    0.176320
      4          6           0        0.367838    1.888166   -0.014393
      5          6           0       -0.718875   -0.383366   -0.914326
      6          6           0       -1.987039    0.358645   -0.394222
      7          6           0       -1.206185   -0.084746    0.876478
      8          6           0       -1.041638   -1.461082    0.160903
      9          1           0        3.380284   -0.956529   -0.063501
     10          1           0        2.656812    0.286414   -1.087212
     11          1           0        2.023628   -1.361500   -1.122087
     12          1           0        1.928999    0.464483    1.351554
     13          1           0        1.272341   -1.144948    1.260013
     14          1           0        1.270457    2.056103   -0.611978
     15          1           0        0.534480    2.369462    0.956532
     16          1           0       -0.445098    2.418886   -0.510272
     17          1           0       -0.445077   -0.558071   -1.957167
     18          1           0       -2.934999   -0.156851   -0.569169
     19          1           0       -2.091197    1.423418   -0.594777
     20          1           0       -1.492589    0.085523    1.917204
     21          1           0       -1.965864   -2.023179    0.004153
     22          1           0       -0.240991   -2.125632    0.482059
 ---------------------------------------------------------------------

 SCF Done:  E(RB3LYP) =  -313.219391638     A.U. after    1 cycles

 The electronic state is 1-A.
 Alpha  occ. eigenvalues --  -10.19334 -10.19279 -10.19261 -10.17848 -10.17812
 Alpha  occ. eigenvalues --  -10.17199 -10.16990 -10.16623  -0.90327  -0.77090
 Alpha  occ. eigenvalues --   -0.71331  -0.65797  -0.62622  -0.61557  -0.59014
 Alpha  occ. eigenvalues --   -0.49375  -0.48820  -0.47335  -0.43752  -0.41560
 Alpha  occ. eigenvalues --   -0.40973  -0.38414  -0.36965  -0.36114  -0.33923
 Alpha  occ. eigenvalues --   -0.33470  -0.31499  -0.30590  -0.29867  -0.28798
 Alpha  occ. eigenvalues --   -0.27894
 Alpha virt. eigenvalues --    0.08859   0.11537   0.11953   0.12955   0.13248
 Alpha virt. eigenvalues --    0.14149   0.14819   0.15284   0.16548   0.16805
 Alpha virt. eigenvalues --    0.17908   0.18678   0.19582   0.19939   0.21649

 Mulliken charges:
               1
     1  C   -0.376424
     2  C   -0.263694
     3  C    0.406357
     4  C   -0.480688
     5  C   -0.077103
     6  C   -0.236784
     7  C   -0.089994
     8  C   -0.228913
     9  H    0.109509
    10  H    0.115640
    11  H    0.117653
    12  H    0.088607
    13  H    0.095488
    14  H    0.115090
    15  H    0.114277
    16  H    0.113839
    17  H    0.062593
    18  H    0.086047
    19  H    0.090118
    20  H    0.061193
    21  H    0.085445
    22  H    0.091743
 Sum of Mulliken charges =  -0.00000

 Dipole moment (field-independent basis, Debye):
    X=              0.1235    Y=              0.0352    Z=              0.0536  Tot=              0.1392
 Quadrupole moment (field-independent basis, Debye-Ang):
   XX=            -51.7518   YY=            -51.5613   ZZ=            -51.5576
   XY=              0.0156   XZ=              0.2441   YZ=             -0.0461

  Exact polarizability:  91.030   1.227  81.813   1.068   0.040  72.787
 Approx polarizability: 121.015   1.434 118.419   1.387   0.105 114.628

                      1                      2                      3
                      A                      A                      A
 Frequencies --     83.2962               165.3034               169.9891
 Red. masses --      2.2198                 1.5690                 1.4194
 Frc consts  --      0.0091                 0.0253                 0.0242
 IR Inten    --      0.0107                 0.0232                 0.0084

                      4                      5                      6
                      A                      A                      A
 Frequencies --    217.5658               279.9775               385.4742
 Red. masses --      1.0765                 2.4941                 2.7908
 Frc consts  --      0.0300                 0.1152                 0.2443
 IR Inten    --      0.0002                 0.0843                 0.1375

                      7                      8                      9
                      A                      A                      A
 Frequencies --    428.2859               436.2857               533.3640
 Red. masses --      2.1291                 2.7424                 2.6105
 Frc consts  --      0.2301                 0.3075                 0.4375
 IR Inten    --      0.0758                 0.6611                 0.4755

                     10                     11                     12
                      A                      A                      A
 Frequencies --    582.8748               656.9345               766.3581
 Red. masses --      2.1881                 2.4737                 2.5923
 Frc consts  --      0.4380                 0.6290                 0.8970
 IR Inten    --      1.2137                 0.4081                 0.8720

                     13                     14                     15
                      A                      A                      A
 Frequencies --    786.4630               799.4052               861.4917
 Red. masses --      1.1896                 2.7969                 2.1862
 Frc consts  --      0.4335                 1.0531                 0.9560
 IR Inten    --      2.0813                 0.0623                 0.8120

                     16                     17                     18
                      A                      A                      A
 Frequencies --    893.0665               898.9263               907.8770
 Red. masses --      2.3888                 1.9881                 2.1075
 Frc consts  --      1.1225                 0.9465                 1.0235
 IR Inten    --      0.4148                 0.3452                 0.5426

                     19                     20                     21
                      A                      A                      A
 Frequencies --    991.3045              1005.8019              1014.6325
 Red. masses --      1.6612                 1.0587                 1.7669
 Frc consts  --      0.9618                 0.6310                 1.0717
 IR Inten    --      1.3116                 0.0979                 2.0638

                     22                     23                     24
                      A                      A                      A
 Frequencies --   1021.3714              1028.5328              1057.3405
 Red. masses --      1.1201                 1.3345                 1.4716
 Frc consts  --      0.6884                 0.8318                 0.9693
 IR Inten    --      1.8319                 0.8040                 1.0676

                     25                     26                     27
                      A                      A                      A
 Frequencies --   1089.3586              1100.6033              1111.0231
 Red. masses --      2.1542                 1.4860                 1.8710
 Frc consts  --      1.5062                 1.0606                 1.3607
 IR Inten    --      1.8998                 0.1576                 0.0268

                     28                     29                     30
                      A                      A                      A
 Frequencies --   1138.3797              1183.7227              1191.7192
 Red. masses --      1.7487                 1.5423                 1.3831
 Frc consts  --      1.3352                 1.2733                 1.1573
 IR Inten    --      2.1885                 0.6400                 0.0331

                     31                     32                     33
                      A                      A                      A
 Frequencies --   1205.1674              1213.9922              1238.8967
 Red. masses --      2.6519                 1.9961                 1.6448
 Frc consts  --      2.2694                 1.7332                 1.4874
 IR Inten    --      3.4954                 3.3988                12.8805

                     34                     35                     36
                      A                      A                      A
 Frequencies --   1253.0264              1270.2497              1333.8219
 Red. masses --      1.8728                 1.6468                 1.5553
 Frc consts  --      1.7324                 1.5655                 1.6303
 IR Inten    --      2.8261                 1.8975                 6.1424

                     37                     38                     39
                      A                      A                      A
 Frequencies --   1360.3470              1407.8021              1417.3823
 Red. masses --      1.4704                 1.2387                 1.2188
 Frc consts  --      1.6032                 1.4464                 1.4426
 IR Inten    --      1.8532                 4.5288                 3.4736

                     40                     41                     42
                      A                      A                      A
 Frequencies --   1482.8052              1494.4246              1497.8083
 Red. masses --      1.0702                 1.0437                 1.0579
 Frc consts  --      1.3864                 1.3733                 1.3983
 IR Inten    --      2.2767                 2.9842                 0.9894

                     43                     44                     45
                      A                      A                      A
 Frequencies --   1502.6072              1508.7708              1527.6052
 Red. masses --      1.0463                 1.0781                 1.0812
 Frc consts  --      1.3919                 1.4459                 1.4865
 IR Inten    --      5.2961                 2.5740                 4.8051

                     46                     47                     48
                      A                      A                      A
 Frequencies --   1557.1289              3027.5141              3032.6388
 Red. masses --      1.1154                 1.0621                 1.0381
 Frc consts  --      1.5935                 5.7359                 5.6251
 IR Inten    --      1.6135                 8.9284                26.1880

                     49                     50                     51
                      A                      A                      A
 Frequencies --   3035.0074              3063.7471              3064.9899
 Red. masses --      1.0461                 1.0641                 1.0634
 Frc consts  --      5.6773                 5.8850                 5.8858
 IR Inten    --     42.3704                23.9696                33.9502

                     52                     53                     54
                      A                      A                      A
 Frequencies --   3075.9218              3078.9037              3085.0061
 Red. masses --      1.0911                 1.0888                 1.0988
 Frc consts  --      6.0822                 6.0812                 6.1612
 IR Inten    --     17.0785               120.8983                22.6758

                     55                     56                     57
                      A                      A                      A
 Frequencies --   3090.1561              3100.8317              3103.2991
 Red. masses --      1.0893                 1.1009                 1.1009
 Frc consts  --      6.1283                 6.2367                 6.2467
 IR Inten    --     18.9477                41.4362                51.1371

                     58                     59                     60
                      A                      A                      A
 Frequencies --   3127.2158              3141.4664              3150.0121
 Red. masses --      1.1003                 1.1017                 1.0964
 Frc consts  --      6.3399                 6.4058                 6.4096
 IR Inten    --     27.3084                50.6488                41.5558

 - Thermochemistry -
 -------------------
 Temperature   298.150 Kelvin.  Pressure   1.00000 Atm.
 Atom     1 has atomic number  6 and mass  12.00000

 Molecular mass:   110.10955 amu.
 Principal axes and moments of inertia in atomic units:
                           1         2         3
     Eigenvalues --   554.77657 990.607911219.33331
           X            0.99997  -0.00707  -0.00222
           Y            0.00706   0.99996  -0.00465
           Z            0.00225   0.00463   0.99999
 This molecule is an asymmetric top.
 Rotational symmetry number  1.
 Warning -- assumption of classical behavior for rotation
           may cause significant error
 Rotational temperatures (Kelvin)      0.15612     0.08744     0.07103
 Rotational constants (GHZ):           3.25310     1.82185     1.48010
 Zero-point vibrational energy     527764.1 (Joules/Mol)
                                  126.13866 (Kcal/Mol)
 Warning -- explicit consideration of  10 degrees of freedom as
           vibrations may cause significant error
 Vibrational temperatures:    119.84   237.83   244.58   313.03   402.83
          (Kelvin)            554.61   616.21   627.72   767.39   838.63
                              945.18  1102.62  1131.54  1150.17  1239.49
                             1284.92  1293.35  1306.23  1426.27  1447.12
                             1459.83  1469.53  1479.83  1521.28  1567.34
                             1583.52  1598.51  1637.87  1703.11  1714.62
                             1733.97  1746.66  1782.50  1802.83  1827.61
                             1919.07  1957.24  2025.51  2039.30  2133.43
                             2150.14  2155.01  2161.92  2170.78  2197.88
                             2240.36  4355.92  4363.29  4366.70  4408.05
                             4409.84  4425.57  4429.86  4438.64  4446.05
                             4461.41  4464.96  4499.37  4519.87  4532.16

 Zero-point correction=                           0.201015 (Hartree/Particle)
 Thermal correction to Energy=                    0.209153
 Thermal correction to Enthalpy=                  0.210098
 Thermal correction to Gibbs Free Energy=         0.168847
 Sum of electronic and zero-point Energies=           -313.018377
 Sum of electronic and thermal Energies=              -313.010238
 Sum of electronic and thermal Enthalpies=            -313.009294
 Sum of electronic and thermal Free Energies=         -313.050545

                     E (Thermal)             CV                S
                      KCal/Mol        Cal/Mol-Kelvin    Cal/Mol-Kelvin
 Total                  131.246             32.292             86.820
 Electronic               0.000              0.000              0.000
 Translational            0.889              2.981             40.005
 Rotational               0.889              2.981             27.996
 Vibrational            129.468             26.331             18.819
 Vibration     1          0.600              1.961              3.812
 Vibration     2          0.624              1.885              2.488
 Vibration     3          0.625              1.879              2.436
 Vibration     4          0.646              1.814              1.979
 Vibration     5          0.680              1.711              1.534
 Vibration     6          0.754              1.501              1.018
 Vibration     7          0.790              1.409              0.864
 Vibration     8          0.797              1.391              0.838
 Vibration     9          0.888              1.176              0.580
 Vibration    10          0.940              1.068              0.480

 Optimization completed.
    -- Stationary point found.
 Normal termination of Gaussian 16 at Mon May 29 01:47:01 2023.
