 Gaussian 16, Revision A.03,
 Gaussian 16:  ES64L-G16RevA.03 25-Dec-2016

 -----------------------------
 # opt freq b3lyp/6-31g(2df,p)
 -----------------------------

 -------------------
 Title Card Required
 -------------------
 Symbolic Z-matrix:
 Charge =  0 Multiplicity = 1

 SCF Done:  E(RB3LYP) =  -352.572678838     A.U. after   12 cycles
 SCF Done:  E(RB3LYP) =  -352.582344916     A.U. after   10 cycles
 SCF Done:  E(RB3LYP) =  -352.584366626     A.U. after   10 cycles
 SCF Done:  E(RB3LYP) =  -352.585058572     A.U. after   10 cycles
 SCF Done:  E(RB3LYP) =  -352.585236535     A.U. after    9 cycles
 SCF Done:  E(RB3LYP) =  -352.585320114     A.U. after    9 cycles
 SCF Done:  E(RB3LYP) =  -352.585353191     A.U. after    8 cycles
 SCF Done:  E(RB3LYP) =  -352.585370327     A.U. after    8 cycles
 SCF Done:  E(RB3LYP) =  -352.585372642     A.U. after    8 cycles
 SCF Done:  E(RB3LYP) =  -352.585372945     A.U. after    6 cycles
 SCF Done:  E(RB3LYP) =  -352.585372964     A.U. after    5 cycles
 SCF Done:  E(RB3LYP) =  -352.585372987     A.U. after    5 cycles
 Optimization completed.
    -- Stationary point found.
 Normal termination of Gaussian 16 at Sun May 28 20:44:10 2023.

 ----------------------------------------------------------------------
 #N Geom=AllCheck Guess=TCheck SCRF=Check GenChk RB3LYP/6-31G(2df,p) Fr
 eq
 ----------------------------------------------------------------------

 Structure from the checkpoint file:  "CCC1qCrCC2CC1C2.chk"
 -------------------
 Title Card Required
 -------------------
 Charge =  0 Multiplicity = 1

                         Standard orientation:
 ---------------------------------------------------------------------
 Center     Atomic      Atomic             Coordinates (Angstroms)
 Number     Number       Type             X           Y           Z
 ---------------------------------------------------------------------
      1          6           0        2.813232   -0.579435    0.238382
      2          6           0        1.535649   -0.597457   -0.610916
      3          6           0        0.385403    0.305057   -0.109597
      4          6           0        0.866549    1.764482   -0.072742
      5          6           0       -0.236987   -0.170768    1.259643
      6          6           0       -1.684134   -0.473690    0.815262
      7          6           0       -2.017201    0.748890   -0.083090
      8          6           0       -0.898039    0.134160   -0.978594
      9          6           0       -1.463822   -1.243893   -0.515835
     10          1           0        3.538017   -1.304226   -0.145845
     11          1           0        2.607740   -0.842266    1.281796
     12          1           0        3.298739    0.400669    0.233347
     13          1           0        1.185207   -1.632031   -0.681191
     14          1           0        1.786956   -0.295138   -1.637089
     15          1           0        1.661771    1.903546    0.665898
     16          1           0        0.064292    2.458939    0.187029
     17          1           0        1.264871    2.068065   -1.048468
     18          1           0       -0.193770    0.606965    2.028818
     19          1           0        0.262043   -1.059477    1.659056
     20          1           0       -2.373971   -0.831896    1.580933
     21          1           0       -1.884037    1.751731    0.329064
     22          1           0       -3.003839    0.670243   -0.546114
     23          1           0       -0.804186    0.390573   -2.035951
     24          1           0       -0.809988   -2.118850   -0.510990
     25          1           0       -2.403745   -1.490934   -1.015375
 ---------------------------------------------------------------------

 SCF Done:  E(RB3LYP) =  -352.585372987     A.U. after    1 cycles

 The electronic state is 1-A.
 Alpha  occ. eigenvalues --  -10.18616 -10.18325 -10.18170 -10.17421 -10.17411
 Alpha  occ. eigenvalues --  -10.17151 -10.17061 -10.16820 -10.16460  -0.88246
 Alpha  occ. eigenvalues --   -0.78170  -0.71735  -0.69300  -0.65862  -0.63973
 Alpha  occ. eigenvalues --   -0.59932  -0.53832  -0.51158  -0.48722  -0.46977
 Alpha  occ. eigenvalues --   -0.44619  -0.43045  -0.40559  -0.39034  -0.38268
 Alpha  occ. eigenvalues --   -0.37030  -0.35363  -0.34874  -0.33415  -0.33303
 Alpha  occ. eigenvalues --   -0.31179  -0.29958  -0.29880  -0.28836  -0.28598
 Alpha virt. eigenvalues --    0.08366   0.11058   0.12296   0.12597   0.12828
 Alpha virt. eigenvalues --    0.13860   0.15215   0.15765   0.16091   0.16721
 Alpha virt. eigenvalues --    0.17200   0.17566   0.19156   0.19188   0.20175

 Mulliken charges:
               1
     1  C   -0.393041
     2  C   -0.229033
     3  C    0.362291
     4  C   -0.457318
     5  C   -0.260228
     6  C   -0.007256
     7  C   -0.237027
     8  C   -0.040394
     9  C   -0.234374
    10  H    0.109961
    11  H    0.115564
    12  H    0.117023
    13  H    0.092348
    14  H    0.087954
    15  H    0.114363
    16  H    0.111019
    17  H    0.105937
    18  H    0.089420
    19  H    0.090783
    20  H    0.052757
    21  H    0.086667
    22  H    0.092375
    23  H    0.050347
    24  H    0.087855
    25  H    0.092005
 Sum of Mulliken charges =  -0.00000

 Dipole moment (field-independent basis, Debye):
    X=             -0.0556    Y=             -0.0470    Z=             -0.0445  Tot=              0.0853
 Quadrupole moment (field-independent basis, Debye-Ang):
   XX=            -58.2758   YY=            -58.2983   ZZ=            -58.1338
   XY=             -0.0526   XZ=              0.0134   YZ=              0.0411

  Exact polarizability: 102.950   0.339  88.120   0.314   0.214  83.946
 Approx polarizability: 134.082   0.014 131.543  -0.356   0.151 129.854

                      1                      2                      3
                      A                      A                      A
 Frequencies --     96.4908               175.4263               199.1585
 Red. masses --      1.8767                 2.2943                 1.0602
 Frc consts  --      0.0103                 0.0416                 0.0248
 IR Inten    --      0.0017                 0.0197                 0.0479

                      4                      5                      6
                      A                      A                      A
 Frequencies --    211.5974               252.8344               327.0966
 Red. masses --      2.2381                 1.4540                 1.9791
 Frc consts  --      0.0590                 0.0548                 0.1248
 IR Inten    --      0.0335                 0.0182                 0.0349

                      7                      8                      9
                      A                      A                      A
 Frequencies --    369.6812               392.7919               442.5865
 Red. masses --      2.2886                 2.7286                 1.8090
 Frc consts  --      0.1843                 0.2480                 0.2088
 IR Inten    --      0.0783                 0.1902                 0.0690

                     10                     11                     12
                      A                      A                      A
 Frequencies --    467.6285               536.7895               582.5703
 Red. masses --      2.5704                 1.8022                 3.0902
 Frc consts  --      0.3312                 0.3060                 0.6179
 IR Inten    --      0.3667                 0.0468                 0.2015

                     13                     14                     15
                      A                      A                      A
 Frequencies --    730.9251               780.7393               818.4206
 Red. masses --      2.9881                 1.2588                 3.0197
 Frc consts  --      0.9406                 0.4521                 1.1917
 IR Inten    --      0.1777                 1.6655                 1.0491

                     16                     17                     18
                      A                      A                      A
 Frequencies --    841.4720               853.1143               861.1017
 Red. masses --      2.2992                 2.1738                 2.2572
 Frc consts  --      0.9592                 0.9322                 0.9861
 IR Inten    --      0.1759                 0.3512                 1.8014

                     19                     20                     21
                      A                      A                      A
 Frequencies --    889.7847               922.1557               938.7032
 Red. masses --      1.8446                 1.9660                 1.5970
 Frc consts  --      0.8605                 0.9850                 0.8291
 IR Inten    --      1.0529                 0.1012                 0.8869

                     22                     23                     24
                      A                      A                      A
 Frequencies --    955.7073              1001.0040              1007.6351
 Red. masses --      2.0864                 1.4297                 1.4847
 Frc consts  --      1.1228                 0.8441                 0.8882
 IR Inten    --      1.5089                 1.1768                 1.0695

                     25                     26                     27
                      A                      A                      A
 Frequencies --   1018.6616              1036.3897              1048.7133
 Red. masses --      2.1158                 2.0244                 1.3418
 Frc consts  --      1.2936                 1.2811                 0.8695
 IR Inten    --      1.8027                 0.2895                 0.6153

                     28                     29                     30
                      A                      A                      A
 Frequencies --   1068.2561              1081.1588              1085.1949
 Red. masses --      1.5786                 1.3833                 1.3810
 Frc consts  --      1.0614                 0.9526                 0.9582
 IR Inten    --      1.2027                 0.9494                 1.1505

                     31                     32                     33
                      A                      A                      A
 Frequencies --   1095.1127              1170.6055              1183.2606
 Red. masses --      1.1872                 1.4490                 2.2406
 Frc consts  --      0.8389                 1.1698                 1.8483
 IR Inten    --      1.8333                 0.6488                 4.4160

                     34                     35                     36
                      A                      A                      A
 Frequencies --   1210.4758              1226.5682              1239.8129
 Red. masses --      2.1053                 1.3976                 1.9755
 Frc consts  --      1.8175                 1.2388                 1.7891
 IR Inten    --      2.4503                 0.2135                 0.8805

                     37                     38                     39
                      A                      A                      A
 Frequencies --   1242.7656              1268.6329              1289.3524
 Red. masses --      1.6716                 1.5965                 1.6919
 Frc consts  --      1.5211                 1.5139                 1.6571
 IR Inten    --      0.8766                 5.7321                 2.4967

                     40                     41                     42
                      A                      A                      A
 Frequencies --   1302.1023              1318.2215              1351.0825
 Red. masses --      1.6593                 1.3488                 1.5895
 Frc consts  --      1.6575                 1.3809                 1.7095
 IR Inten    --      1.8123                 1.2029                 2.5280

                     43                     44                     45
                      A                      A                      A
 Frequencies --   1369.9354              1409.5109              1415.3421
 Red. masses --      1.4432                 1.2548                 1.2197
 Frc consts  --      1.5958                 1.4688                 1.4396
 IR Inten    --      0.3045                 3.4665                 3.9351

                     46                     47                     48
                      A                      A                      A
 Frequencies --   1479.0577              1489.4496              1493.3652
 Red. masses --      1.0692                 1.0693                 1.0772
 Frc consts  --      1.3781                 1.3976                 1.4154
 IR Inten    --      0.2555                 0.7879                 3.2924

                     49                     50                     51
                      A                      A                      A
 Frequencies --   1498.1819              1500.9747              1508.2200
 Red. masses --      1.0649                 1.0611                 1.0694
 Frc consts  --      1.4082                 1.4085                 1.4332
 IR Inten    --      0.5619                 2.9842                 6.1197

                     52                     53                     54
                      A                      A                      A
 Frequencies --   1514.9992              1532.8520              3012.1668
 Red. masses --      1.0524                 1.1147                 1.0672
 Frc consts  --      1.4231                 1.5431                 5.7049
 IR Inten    --      2.8838                 2.2789                23.6959

                     55                     56                     57
                      A                      A                      A
 Frequencies --   3029.9017              3035.3578              3041.5947
 Red. masses --      1.0407                 1.0378                 1.0572
 Frc consts  --      5.6291                 5.6334                 5.7628
 IR Inten    --     25.4060                14.6607                46.1329

                     58                     59                     60
                      A                      A                      A
 Frequencies --   3057.2404              3061.6561              3069.8253
 Red. masses --      1.0654                 1.0604                 1.0815
 Frc consts  --      5.8673                 5.8565                 6.0051
 IR Inten    --     25.0117                22.0999                25.4926

                     61                     62                     63
                      A                      A                      A
 Frequencies --   3082.4914              3090.6459              3093.9234
 Red. masses --      1.1056                 1.0877                 1.0975
 Frc consts  --      6.1897                 6.1214                 6.1898
 IR Inten    --     26.6946                57.0137                28.2464

                     64                     65                     66
                      A                      A                      A
 Frequencies --   3098.2045              3101.3497              3107.6782
 Red. masses --      1.1005                 1.0903                 1.1026
 Frc consts  --      6.2237                 6.1784                 6.2741
 IR Inten    --     51.8263                33.8962                12.8232

                     67                     68                     69
                      A                      A                      A
 Frequencies --   3113.0937              3116.8198              3121.3521
 Red. masses --      1.1029                 1.1060                 1.1018
 Frc consts  --      6.2978                 6.3304                 6.3244
 IR Inten    --     70.7158                70.3498                18.6515

 - Thermochemistry -
 -------------------
 Temperature   298.150 Kelvin.  Pressure   1.00000 Atm.
 Atom     1 has atomic number  6 and mass  12.00000

 Molecular mass:   124.12520 amu.
 Principal axes and moments of inertia in atomic units:
                           1         2         3
     Eigenvalues --   629.888401381.591691518.98009
           X            0.99998  -0.00358   0.00581
           Y            0.00350   0.99990   0.01357
           Z           -0.00586  -0.01354   0.99989
 This molecule is an asymmetric top.
 Rotational symmetry number  1.
 Warning -- assumption of classical behavior for rotation
           may cause significant error
 Rotational temperatures (Kelvin)      0.13751     0.06269     0.05702
 Rotational constants (GHZ):           2.86518     1.30628     1.18813
 Zero-point vibrational energy     606129.7 (Joules/Mol)
                                  144.86848 (Kcal/Mol)
 Warning -- explicit consideration of  12 degrees of freedom as
           vibrations may cause significant error
 Vibrational temperatures:    138.83   252.40   286.54   304.44   363.77
          (Kelvin)            470.62   531.89   565.14   636.78   672.81
                              772.32   838.19  1051.64  1123.31  1177.52
                             1210.69  1227.44  1238.93  1280.20  1326.78
                             1350.58  1375.05  1440.22  1449.76  1465.63
                             1491.13  1508.86  1536.98  1555.55  1561.35
                             1575.62  1684.24  1702.45  1741.60  1764.76
                             1783.81  1788.06  1825.28  1855.09  1873.43
                             1896.63  1943.91  1971.03  2027.97  2036.36
                             2128.03  2142.99  2148.62  2155.55  2159.57
                             2169.99  2179.75  2205.43  4333.84  4359.35
                             4367.20  4376.18  4398.69  4405.04  4416.79
                             4435.02  4446.75  4451.47  4457.63  4462.15
                             4471.26  4479.05  4484.41  4490.93

 Zero-point correction=                           0.230863 (Hartree/Particle)
 Thermal correction to Energy=                    0.239693
 Thermal correction to Enthalpy=                  0.240637
 Thermal correction to Gibbs Free Energy=         0.198022
 Sum of electronic and zero-point Energies=           -352.354510
 Sum of electronic and thermal Energies=              -352.345680
 Sum of electronic and thermal Enthalpies=            -352.344736
 Sum of electronic and thermal Free Energies=         -352.387351

                     E (Thermal)             CV                S
                      KCal/Mol        Cal/Mol-Kelvin    Cal/Mol-Kelvin
 Total                  150.410             36.214             89.691
 Electronic               0.000              0.000              0.000
 Translational            0.889              2.981             40.362
 Rotational               0.889              2.981             28.671
 Vibrational            148.632             30.252             20.658
 Vibration     1          0.603              1.952              3.524
 Vibration     2          0.627              1.873              2.377
 Vibration     3          0.637              1.841              2.141
 Vibration     4          0.643              1.823              2.030
 Vibration     5          0.664              1.758              1.711
 Vibration     6          0.711              1.621              1.274
 Vibration     7          0.742              1.535              1.081
 Vibration     8          0.760              1.486              0.990
 Vibration     9          0.802              1.377              0.819
 Vibration    10          0.825              1.322              0.744
 Vibration    11          0.892              1.169              0.572
 Vibration    12          0.939              1.069              0.481

 Optimization completed.
    -- Stationary point found.
 Normal termination of Gaussian 16 at Sun May 28 21:27:54 2023.
