 Gaussian 16, Revision A.03,
 Gaussian 16:  ES64L-G16RevA.03 25-Dec-2016

 -----------------------------
 # opt freq b3lyp/6-31g(2df,p)
 -----------------------------

 -------------------
 Title Card Required
 -------------------
 Symbolic Z-matrix:
 Charge =  0 Multiplicity = 1

 SCF Done:  E(RB3LYP) =  -803.232601203     A.U. after   13 cycles
 SCF Done:  E(RB3LYP) =  -803.252868315     A.U. after   13 cycles
 SCF Done:  E(RB3LYP) =  -803.272984368     A.U. after   12 cycles
 SCF Done:  E(RB3LYP) =  -803.285687634     A.U. after   12 cycles
 SCF Done:  E(RB3LYP) =  -803.297502186     A.U. after   11 cycles
 SCF Done:  E(RB3LYP) =  -803.306855049     A.U. after   12 cycles
 SCF Done:  E(RB3LYP) =  -803.312632530     A.U. after   12 cycles
 SCF Done:  E(RB3LYP) =  -803.317929294     A.U. after   12 cycles
 SCF Done:  E(RB3LYP) =  -803.321320994     A.U. after   12 cycles
 SCF Done:  E(RB3LYP) =  -803.322769665     A.U. after   11 cycles
 SCF Done:  E(RB3LYP) =  -803.339267210     A.U. after   10 cycles
 SCF Done:  E(RB3LYP) =  -803.339270261     A.U. after    9 cycles
 SCF Done:  E(RB3LYP) =  -803.339271250     A.U. after    8 cycles
 SCF Done:  E(RB3LYP) =  -803.339271770     A.U. after    8 cycles
 SCF Done:  E(RB3LYP) =  -803.339271923     A.U. after    7 cycles
 SCF Done:  E(RB3LYP) =  -803.339272087     A.U. after    7 cycles
 SCF Done:  E(RB3LYP) =  -803.339272219     A.U. after    7 cycles
 SCF Done:  E(RB3LYP) =  -803.339272276     A.U. after    7 cycles
 SCF Done:  E(RB3LYP) =  -803.339272291     A.U. after    6 cycles
 Optimization completed.
    -- Stationary point found.
 Normal termination of Gaussian 16 at Sun May 28 12:10:18 2023.

 ----------------------------------------------------------------------
 #N Geom=AllCheck Guess=TCheck SCRF=Check GenChk RB3LYP/6-31G(2df,p) Fr
 eq
 ----------------------------------------------------------------------

 Structure from the checkpoint file:  "CCC1CCCOCOOC1C1CONN1.chk"
 -------------------
 Title Card Required
 -------------------
 Charge =  0 Multiplicity = 1

                         Standard orientation:
 ---------------------------------------------------------------------
 Center     Atomic      Atomic             Coordinates (Angstroms)
 Number     Number       Type             X           Y           Z
 ---------------------------------------------------------------------
      1          6           0        0.120070   -3.430244   -0.021649
      2          6           0        0.788386   -2.252659    0.696911
      3          6           0       -0.061224   -0.954433    0.763077
      4          6           0        0.480667    0.025453    1.854074
      5          6           0        1.444459    1.185329    1.532415
      6          6           0        2.840894    0.853497    0.955784
      7          8           0        3.023785    1.458842   -0.325738
      8          6           0        2.875014    0.635459   -1.431368
      9          8           0        1.806888   -0.273233   -1.358411
     10          8           0        0.588241    0.514204   -1.192401
     11          6           0       -0.384065   -0.372247   -0.644880
     12          6           0       -1.703301    0.397306   -0.801405
     13          6           0       -2.999327   -0.485894   -0.678481
     14          8           0       -3.837423    0.219718    0.215838
     15          7           0       -3.346046    1.619462    0.050219
     16          7           0       -1.943782    1.473178    0.168966
     17          1           0        0.726173   -4.335410    0.084781
     18          1           0       -0.003581   -3.254881   -1.094695
     19          1           0       -0.869496   -3.645635    0.399094
     20          1           0        1.756854   -2.048704    0.236092
     21          1           0        0.988539   -2.558093    1.731086
     22          1           0       -1.036763   -1.287741    1.147367
     23          1           0        0.941895   -0.602146    2.627424
     24          1           0       -0.376149    0.485381    2.363327
     25          1           0        1.583377    1.725690    2.476723
     26          1           0        0.975534    1.889533    0.843184
     27          1           0        3.016965   -0.226908    0.903021
     28          1           0        3.620826    1.282180    1.592889
     29          1           0        3.726112   -0.051907   -1.577822
     30          1           0        2.771788    1.304932   -2.293582
     31          1           0       -0.471266   -1.222019   -1.335781
     32          1           0       -1.687442    0.855196   -1.793115
     33          1           0       -2.808186   -1.473646   -0.248496
     34          1           0       -3.469232   -0.607987   -1.663221
     35          1           0       -3.683370    2.057473    0.908335
     36          1           0       -1.735143    1.100558    1.097918
 ---------------------------------------------------------------------

 SCF Done:  E(RB3LYP) =  -803.339272291     A.U. after    1 cycles

 The electronic state is 1-A.
 Alpha  occ. eigenvalues --  -19.19997 -19.19493 -19.15811 -19.14285 -14.39467
 Alpha  occ. eigenvalues --  -14.35739 -10.27968 -10.24707 -10.23161 -10.22812
 Alpha  occ. eigenvalues --  -10.22506 -10.19958 -10.19057 -10.18251 -10.17878
 Alpha  occ. eigenvalues --  -10.17727  -1.12788  -1.07818  -1.03746  -0.94050
 Alpha  occ. eigenvalues --   -0.92458  -0.82144  -0.80224  -0.77012  -0.72870
 Alpha  occ. eigenvalues --   -0.69885  -0.67607  -0.65359  -0.61973  -0.60856
 Alpha  occ. eigenvalues --   -0.58899  -0.56479  -0.54488  -0.52827  -0.51061
 Alpha  occ. eigenvalues --   -0.48810  -0.48408  -0.47141  -0.46678  -0.45187
 Alpha  occ. eigenvalues --   -0.44787  -0.43809  -0.42801  -0.41652  -0.41286
 Alpha  occ. eigenvalues --   -0.40783  -0.40140  -0.38682  -0.38125  -0.36752
 Alpha  occ. eigenvalues --   -0.35787  -0.35038  -0.34760  -0.33947  -0.32519
 Alpha  occ. eigenvalues --   -0.31911  -0.31540  -0.30771  -0.30740  -0.26364
 Alpha  occ. eigenvalues --   -0.26168  -0.24411  -0.22831
 Alpha virt. eigenvalues --    0.01847   0.05424   0.07634   0.08485   0.09521
 Alpha virt. eigenvalues --    0.09928   0.10742   0.11271   0.11318   0.11869
 Alpha virt. eigenvalues --    0.12609   0.13610   0.14324   0.14942   0.15030

 Mulliken charges:
               1
     1  C   -0.401015
     2  C   -0.187607
     3  C   -0.013884
     4  C   -0.245088
     5  C   -0.189305
     6  C   -0.081693
     7  O   -0.226835
     8  C    0.024156
     9  O   -0.177045
    10  O   -0.193901
    11  C    0.105964
    12  C    0.007994
    13  C   -0.098220
    14  O   -0.270121
    15  N   -0.197451
    16  N   -0.252153
    17  H    0.116352
    18  H    0.125132
    19  H    0.112742
    20  H    0.120861
    21  H    0.090733
    22  H    0.084767
    23  H    0.095664
    24  H    0.095232
    25  H    0.089147
    26  H    0.142768
    27  H    0.101158
    28  H    0.105914
    29  H    0.102526
    30  H    0.117140
    31  H    0.091126
    32  H    0.114764
    33  H    0.111494
    34  H    0.101671
    35  H    0.253727
    36  H    0.223288
 Sum of Mulliken charges =  -0.00000

 Dipole moment (field-independent basis, Debye):
    X=              1.2023    Y=             -2.0077    Z=              1.5259  Tot=              2.7937
 Quadrupole moment (field-independent basis, Debye-Ang):
   XX=           -101.8779   YY=            -99.5118   ZZ=            -91.6503
   XY=             -1.5546   XZ=             -1.8751   YZ=              3.7874

  Exact polarizability: 154.753   0.234 132.514  -0.855   5.237 124.079
 Approx polarizability: 208.556  -1.368 195.838  -3.859   4.749 186.923

                      1                      2                      3
                      A                      A                      A
 Frequencies --     23.2706                44.3354                63.3187
 Red. masses --      2.8929                 4.6692                 3.9139
 Frc consts  --      0.0009                 0.0054                 0.0092
 IR Inten    --      0.1681                 0.1787                 0.2420

                      4                      5                      6
                      A                      A                      A
 Frequencies --     68.3670               108.0174               144.9291
 Red. masses --      3.6408                 3.0579                 2.7702
 Frc consts  --      0.0100                 0.0210                 0.0343
 IR Inten    --      0.0150                 0.0224                 0.3904

                      7                      8                      9
                      A                      A                      A
 Frequencies --    165.5426               173.3790               200.2065
 Red. masses --      3.3056                 3.3191                 3.0314
 Frc consts  --      0.0534                 0.0588                 0.0716
 IR Inten    --      4.8966                 1.5610                 4.4127

                     10                     11                     12
                      A                      A                      A
 Frequencies --    233.7306               238.4883               252.5797
 Red. masses --      2.2548                 3.4489                 2.2272
 Frc consts  --      0.0726                 0.1156                 0.0837
 IR Inten    --      0.9997                 2.3260                 0.5026

                     13                     14                     15
                      A                      A                      A
 Frequencies --    274.6512               308.9787               324.1559
 Red. masses --      2.6568                 4.1858                 2.5811
 Frc consts  --      0.1181                 0.2354                 0.1598
 IR Inten    --      3.1914                 0.4457                 5.1023

                     16                     17                     18
                      A                      A                      A
 Frequencies --    346.5780               368.4015               386.5068
 Red. masses --      2.9277                 2.9837                 2.5887
 Frc consts  --      0.2072                 0.2386                 0.2279
 IR Inten    --      7.5366                 0.3040                22.6541

                     19                     20                     21
                      A                      A                      A
 Frequencies --    399.9756               435.6125               472.8640
 Red. masses --      2.6024                 3.7183                 2.6647
 Frc consts  --      0.2453                 0.4157                 0.3511
 IR Inten    --      9.5046                 3.1501                 0.6432

                     22                     23                     24
                      A                      A                      A
 Frequencies --    583.7874               649.4516               674.2513
 Red. masses --      2.5500                 4.3555                 4.7898
 Frc consts  --      0.5120                 1.0824                 1.2830
 IR Inten    --     14.5826                 3.4466                38.9065

                     25                     26                     27
                      A                      A                      A
 Frequencies --    695.0632               712.3156               732.0653
 Red. masses --      2.7292                 2.7650                 4.5489
 Frc consts  --      0.7768                 0.8266                 1.4363
 IR Inten    --      1.0426                 1.5565                16.2589

                     28                     29                     30
                      A                      A                      A
 Frequencies --    754.9148               789.6209               801.7238
 Red. masses --      4.8564                 1.5912                 2.3216
 Frc consts  --      1.6307                 0.5845                 0.8792
 IR Inten    --     51.3548                11.6512                 1.6579

                     31                     32                     33
                      A                      A                      A
 Frequencies --    841.7153               867.2079               901.4869
 Red. masses --      1.8793                 3.5728                 2.9144
 Frc consts  --      0.7845                 1.5831                 1.3955
 IR Inten    --      4.9335                 5.3114                 8.7847

                     34                     35                     36
                      A                      A                      A
 Frequencies --    910.9404               938.0582               947.1936
 Red. masses --      2.8850                 2.9858                 2.2803
 Frc consts  --      1.4105                 1.5480                 1.2054
 IR Inten    --     10.3627                11.2058                30.6103

                     37                     38                     39
                      A                      A                      A
 Frequencies --    981.3871              1004.2948              1011.4983
 Red. masses --      3.4547                 2.3431                 3.3964
 Frc consts  --      1.9604                 1.3924                 2.0474
 IR Inten    --     14.0194                34.4141                16.8867

                     40                     41                     42
                      A                      A                      A
 Frequencies --   1029.8216              1036.6116              1041.5723
 Red. masses --      2.4639                 2.1159                 3.4034
 Frc consts  --      1.5396                 1.3396                 2.1754
 IR Inten    --     40.2297                 1.1121                23.6523

                     43                     44                     45
                      A                      A                      A
 Frequencies --   1043.1141              1052.9154              1066.3915
 Red. masses --      3.3486                 2.4328                 2.7024
 Frc consts  --      2.1467                 1.5891                 1.8107
 IR Inten    --     46.6311                 1.9837                10.9264

                     46                     47                     48
                      A                      A                      A
 Frequencies --   1109.4889              1120.7570              1128.2084
 Red. masses --      1.7863                 1.9353                 2.6296
 Frc consts  --      1.2955                 1.4323                 1.9721
 IR Inten    --     39.0345                 2.0770                 8.2904

                     49                     50                     51
                      A                      A                      A
 Frequencies --   1145.4801              1166.0023              1174.0462
 Red. masses --      2.7229                 2.8248                 1.9726
 Frc consts  --      2.1050                 2.2627                 1.6020
 IR Inten    --     52.3230               103.3222                28.7390

                     52                     53                     54
                      A                      A                      A
 Frequencies --   1189.8189              1201.2861              1232.9646
 Red. masses --      2.1661                 1.2766                 1.1867
 Frc consts  --      1.8067                 1.0854                 1.0629
 IR Inten    --      8.6684                25.1553                 3.2513

                     55                     56                     57
                      A                      A                      A
 Frequencies --   1251.0811              1281.9547              1285.2801
 Red. masses --      1.3886                 1.2817                 1.2261
 Frc consts  --      1.2805                 1.2410                 1.1934
 IR Inten    --     19.0533                18.2021                 6.5587

                     58                     59                     60
                      A                      A                      A
 Frequencies --   1297.6567              1318.6139              1322.0420
 Red. masses --      1.2191                 1.2053                 1.1741
 Frc consts  --      1.2095                 1.2348                 1.2091
 IR Inten    --      5.5237                 1.2892                 7.3207

                     61                     62                     63
                      A                      A                      A
 Frequencies --   1327.6331              1334.7967              1345.6924
 Red. masses --      1.1851                 1.2325                 1.3356
 Frc consts  --      1.2307                 1.2938                 1.4250
 IR Inten    --      7.5783                 0.6117                 1.2666

                     64                     65                     66
                      A                      A                      A
 Frequencies --   1354.9046              1370.6985              1378.3041
 Red. masses --      1.3221                 1.3259                 1.2884
 Frc consts  --      1.4300                 1.4678                 1.4421
 IR Inten    --      1.3084                 1.0297                 3.5551

                     67                     68                     69
                      A                      A                      A
 Frequencies --   1387.1089              1400.8260              1410.1994
 Red. masses --      1.2784                 1.2565                 1.3251
 Frc consts  --      1.4493                 1.4527                 1.5526
 IR Inten    --      4.4215                 7.0394                 5.2835

                     70                     71                     72
                      A                      A                      A
 Frequencies --   1411.8179              1414.8049              1419.1278
 Red. masses --      1.2778                 1.2886                 1.2495
 Frc consts  --      1.5006                 1.5197                 1.4826
 IR Inten    --      6.7822                 1.6149                28.7957

                     73                     74                     75
                      A                      A                      A
 Frequencies --   1430.3436              1482.6079              1487.4821
 Red. masses --      1.2345                 1.0731                 1.0678
 Frc consts  --      1.4881                 1.3898                 1.3921
 IR Inten    --      9.8615                 6.8415                 0.9393

                     76                     77                     78
                      A                      A                      A
 Frequencies --   1490.1967              1492.7214              1498.5635
 Red. masses --      1.0884                 1.0964                 1.0568
 Frc consts  --      1.4240                 1.4393                 1.3983
 IR Inten    --      0.3556                 7.7145                 8.4312

                     79                     80                     81
                      A                      A                      A
 Frequencies --   1500.2457              1508.3726              1515.8865
 Red. masses --      1.1000                 1.0561                 1.0939
 Frc consts  --      1.4587                 1.4157                 1.4811
 IR Inten    --      5.6933                 4.9500                 0.1177

                     82                     83                     84
                      A                      A                      A
 Frequencies --   1521.6878              2968.7042              2985.6478
 Red. masses --      1.1442                 1.0644                 1.0797
 Frc consts  --      1.5610                 5.5269                 5.6708
 IR Inten    --     20.4676                66.6248                 6.6384

                     85                     86                     87
                      A                      A                      A
 Frequencies --   3009.0265              3011.1866              3012.3712
 Red. masses --      1.0743                 1.0660                 1.0709
 Frc consts  --      5.7309                 5.6948                 5.7256
 IR Inten    --      5.0835                22.9452                76.4930

                     88                     89                     90
                      A                      A                      A
 Frequencies --   3026.7815              3028.3321              3030.4115
 Red. masses --      1.0718                 1.0455                 1.0650
 Frc consts  --      5.7853                 5.6489                 5.7622
 IR Inten    --      4.5482                38.2272                32.7501

                     91                     92                     93
                      A                      A                      A
 Frequencies --   3037.4131              3039.4716              3059.9115
 Red. masses --      1.0765                 1.0783                 1.0975
 Frc consts  --      5.8514                 5.8694                 6.0545
 IR Inten    --     14.2899                95.4932                40.2105

                     94                     95                     96
                      A                      A                      A
 Frequencies --   3074.9873              3080.7490              3087.9899
 Red. masses --      1.0925                 1.1056                 1.0959
 Frc consts  --      6.0866                 6.1826                 6.1573
 IR Inten    --     12.4102                48.8924                10.4937

                     97                     98                     99
                      A                      A                      A
 Frequencies --   3089.6584              3102.7936              3119.0336
 Red. masses --      1.0918                 1.0991                 1.0944
 Frc consts  --      6.1406                 6.2345                 6.2726
 IR Inten    --     32.0893                35.8660                28.0730

                    100                    101                    102
                      A                      A                      A
 Frequencies --   3119.9305              3407.5046              3467.0717
 Red. masses --      1.0915                 1.0724                 1.0774
 Frc consts  --      6.2598                 7.3364                 7.6302
 IR Inten    --     11.3568                 1.6082                 1.9535

 - Thermochemistry -
 -------------------
 Temperature   298.150 Kelvin.  Pressure   1.00000 Atm.
 Atom     1 has atomic number  6 and mass  12.00000

 Molecular mass:   232.14231 amu.
 Principal axes and moments of inertia in atomic units:
                           1         2         3
     Eigenvalues --  2394.269724847.760995547.80069
           X            0.99995   0.00294   0.00926
           Y           -0.00313   0.99979   0.02019
           Z           -0.00920  -0.02022   0.99975
 This molecule is an asymmetric top.
 Rotational symmetry number  1.
 Warning -- assumption of classical behavior for rotation
           may cause significant error
 Rotational temperatures (Kelvin)      0.03618     0.01787     0.01561
 Rotational constants (GHZ):           0.75378     0.37228     0.32531
 Zero-point vibrational energy     822845.2 (Joules/Mol)
                                  196.66472 (Kcal/Mol)
 Warning -- explicit consideration of  22 degrees of freedom as
           vibrations may cause significant error
 Vibrational temperatures:     33.48    63.79    91.10    98.36   155.41
          (Kelvin)            208.52   238.18   249.45   288.05   336.29
                              343.13   363.41   395.16   444.55   466.39
                              498.65   530.05   556.10   575.48   626.75
                              680.35   839.94   934.42   970.10  1000.04
                             1024.86  1053.28  1086.15  1136.09  1153.50
                             1211.04  1247.72  1297.04  1310.64  1349.66
                             1362.80  1412.00  1444.96  1455.32  1481.68
                             1491.45  1498.59  1500.81  1514.91  1534.30
                             1596.31  1612.52  1623.24  1648.09  1677.62
                             1689.19  1711.88  1728.38  1773.96  1800.03
                             1844.45  1849.23  1867.04  1897.19  1902.12
                             1910.17  1920.47  1936.15  1949.41  1972.13
                             1983.07  1995.74  2015.48  2028.96  2031.29
                             2035.59  2041.81  2057.95  2133.14  2140.15
                             2144.06  2147.69  2156.10  2158.52  2170.21
                             2181.02  2189.37  4271.30  4295.68  4329.32
                             4332.43  4334.13  4354.86  4357.09  4360.09
                             4370.16  4373.12  4402.53  4424.22  4432.51
                             4442.93  4445.33  4464.23  4487.59  4488.88
                             4902.64  4988.34

 Zero-point correction=                           0.313405 (Hartree/Particle)
 Thermal correction to Energy=                    0.329361
 Thermal correction to Enthalpy=                  0.330305
 Thermal correction to Gibbs Free Energy=         0.269267
 Sum of electronic and zero-point Energies=           -803.025867
 Sum of electronic and thermal Energies=              -803.009912
 Sum of electronic and thermal Enthalpies=            -803.008968
 Sum of electronic and thermal Free Energies=         -803.070005

                     E (Thermal)             CV                S
                      KCal/Mol        Cal/Mol-Kelvin    Cal/Mol-Kelvin
 Total                  206.677             61.036            128.464
 Electronic               0.000              0.000              0.000
 Translational            0.889              2.981             42.228
 Rotational               0.889              2.981             32.532
 Vibrational            204.899             55.074             53.704
 Vibration     1          0.593              1.985              6.333
 Vibration     2          0.595              1.980              5.055
 Vibration     3          0.597              1.972              4.351
 Vibration     4          0.598              1.969              4.200
 Vibration     5          0.606              1.943              3.304
 Vibration     6          0.616              1.908              2.738
 Vibration     7          0.624              1.885              2.485
 Vibration     8          0.627              1.875              2.399
 Vibration     9          0.638              1.840              2.131
 Vibration    10          0.654              1.789              1.850
 Vibration    11          0.656              1.782              1.814
 Vibration    12          0.664              1.758              1.713
 Vibration    13          0.677              1.720              1.567
 Vibration    14          0.698              1.657              1.368
 Vibration    15          0.709              1.627              1.289
 Vibration    16          0.725              1.582              1.182
 Vibration    17          0.741              1.537              1.086
 Vibration    18          0.755              1.499              1.014
 Vibration    19          0.766              1.470              0.963
 Vibration    20          0.796              1.393              0.841
 Vibration    21          0.830              1.310              0.730
 Vibration    22          0.941              1.066              0.478

 Optimization completed.
    -- Stationary point found.
 Normal termination of Gaussian 16 at Sun May 28 16:06:14 2023.
