 Gaussian 16, Revision A.03,
 Gaussian 16:  ES64L-G16RevA.03 25-Dec-2016

 -----------------------------
 # opt freq b3lyp/6-31g(2df,p)
 -----------------------------

 -------------------
 Title Card Required
 -------------------
 Symbolic Z-matrix:
 Charge =  0 Multiplicity = 1

 SCF Done:  E(RB3LYP) =  -622.164660320     A.U. after   12 cycles
 SCF Done:  E(RB3LYP) =  -622.180176638     A.U. after   11 cycles
 SCF Done:  E(RB3LYP) =  -622.186576211     A.U. after   10 cycles
 SCF Done:  E(RB3LYP) =  -622.190473558     A.U. after   10 cycles
 SCF Done:  E(RB3LYP) =  -622.193099271     A.U. after   10 cycles
 SCF Done:  E(RB3LYP) =  -622.196426133     A.U. after   10 cycles
 SCF Done:  E(RB3LYP) =  -622.199868185     A.U. after   11 cycles
 SCF Done:  E(RB3LYP) =  -622.201630560     A.U. after   10 cycles
 SCF Done:  E(RB3LYP) =  -622.203067065     A.U. after   10 cycles
 SCF Done:  E(RB3LYP) =  -622.203475071     A.U. after   10 cycles
 SCF Done:  E(RB3LYP) =  -622.203794150     A.U. after    9 cycles
 SCF Done:  E(RB3LYP) =  -622.203855477     A.U. after    8 cycles
 SCF Done:  E(RB3LYP) =  -622.203888549     A.U. after    9 cycles
 SCF Done:  E(RB3LYP) =  -622.203892691     A.U. after    8 cycles
 SCF Done:  E(RB3LYP) =  -622.203902600     A.U. after    9 cycles
 SCF Done:  E(RB3LYP) =  -622.203906678     A.U. after    9 cycles
 SCF Done:  E(RB3LYP) =  -622.203908433     A.U. after    7 cycles
 SCF Done:  E(RB3LYP) =  -622.203908833     A.U. after    6 cycles
 SCF Done:  E(RB3LYP) =  -622.203908949     A.U. after    6 cycles
 Optimization completed.
    -- Stationary point found.
 Normal termination of Gaussian 16 at Mon May 22 10:37:21 2023.

 ----------------------------------------------------------------------
 #N Geom=AllCheck Guess=TCheck SCRF=Check GenChk RB3LYP/6-31G(2df,p) Fr
 eq
 ----------------------------------------------------------------------

 Structure from the checkpoint file:  "CCC1CCCCCCqCrCqOCrO1.chk"
 -------------------
 Title Card Required
 -------------------
 Charge =  0 Multiplicity = 1

                         Standard orientation:
 ---------------------------------------------------------------------
 Center     Atomic      Atomic             Coordinates (Angstroms)
 Number     Number       Type             X           Y           Z
 ---------------------------------------------------------------------
      1          6           0       -3.208402   -1.595106    1.331034
      2          6           0       -1.782261   -1.072679    1.114968
      3          6           0       -1.463863   -0.840882   -0.374870
      4          6           0       -2.258823    0.338259   -1.016364
      5          6           0       -1.457521    1.635965   -1.232996
      6          6           0       -0.940786    2.318315    0.057549
      7          6           0        0.541401    2.735216    0.049681
      8          6           0        1.578404    1.608995   -0.136982
      9          6           0        1.462919    0.424067    0.859891
     10          6           0        2.754584    0.187517    1.654063
     11          6           0        1.018813   -0.862901    0.139588
     12          8           0        2.080560   -1.279978   -0.670291
     13          6           0        1.869352   -2.519674   -1.313925
     14          8           0       -0.087047   -0.622484   -0.707648
     15          1           0       -3.384089   -1.802027    2.390790
     16          1           0       -3.373986   -2.526260    0.777754
     17          1           0       -3.967823   -0.878126    1.005932
     18          1           0       -1.091184   -1.817653    1.521582
     19          1           0       -1.633448   -0.156716    1.695831
     20          1           0       -1.764865   -1.767364   -0.889153
     21          1           0       -3.143465    0.550583   -0.404853
     22          1           0       -2.640475    0.012282   -1.990451
     23          1           0       -2.103528    2.332387   -1.780035
     24          1           0       -0.620399    1.413232   -1.897341
     25          1           0       -1.113434    1.665370    0.917484
     26          1           0       -1.540654    3.213222    0.262394
     27          1           0        0.748359    3.253197    0.996513
     28          1           0        0.701872    3.481541   -0.739876
     29          1           0        2.573949    2.057610   -0.041983
     30          1           0        1.527326    1.218625   -1.156125
     31          1           0        0.669620    0.644989    1.583519
     32          1           0        3.587969   -0.031429    0.982098
     33          1           0        2.652604   -0.655628    2.347438
     34          1           0        3.008992    1.073991    2.244012
     35          1           0        0.786325   -1.655978    0.869810
     36          1           0        2.781121   -2.749966   -1.869709
     37          1           0        1.022406   -2.474755   -2.008008
     38          1           0        1.685803   -3.323980   -0.583924
 ---------------------------------------------------------------------

 SCF Done:  E(RB3LYP) =  -622.203908949     A.U. after    1 cycles

 The electronic state is 1-A.
 Alpha  occ. eigenvalues --  -19.13692 -19.13001 -10.26808 -10.23324 -10.21769
 Alpha  occ. eigenvalues --  -10.18497 -10.18001 -10.17614 -10.17363 -10.16886
 Alpha  occ. eigenvalues --  -10.16783 -10.16669 -10.16390 -10.16274  -1.05818
 Alpha  occ. eigenvalues --   -0.99595  -0.80269  -0.79956  -0.76857  -0.72958
 Alpha  occ. eigenvalues --   -0.70866  -0.67741  -0.65611  -0.63648  -0.60250
 Alpha  occ. eigenvalues --   -0.58694  -0.55408  -0.53883  -0.50014  -0.49580
 Alpha  occ. eigenvalues --   -0.47671  -0.46447  -0.45281  -0.43395  -0.42681
 Alpha  occ. eigenvalues --   -0.41859  -0.41062  -0.40138  -0.39795  -0.39479
 Alpha  occ. eigenvalues --   -0.39125  -0.37165  -0.36225  -0.35909  -0.35053
 Alpha  occ. eigenvalues --   -0.34842  -0.33895  -0.32947  -0.32281  -0.31169
 Alpha  occ. eigenvalues --   -0.30162  -0.29674  -0.29428  -0.28834  -0.26479
 Alpha  occ. eigenvalues --   -0.24165
 Alpha virt. eigenvalues --    0.07707   0.09106   0.09653   0.10125   0.11401
 Alpha virt. eigenvalues --    0.12246   0.13190   0.13348   0.13904   0.14779
 Alpha virt. eigenvalues --    0.14904   0.15697   0.16517   0.16805   0.17450

 Mulliken charges:
               1
     1  C   -0.397065
     2  C   -0.212188
     3  C    0.154021
     4  C   -0.229064
     5  C   -0.168672
     6  C   -0.176297
     7  C   -0.204048
     8  C   -0.188344
     9  C    0.016106
    10  C   -0.409144
    11  C    0.193424
    12  O   -0.231267
    13  C   -0.238176
    14  O   -0.294135
    15  H    0.117151
    16  H    0.118144
    17  H    0.124800
    18  H    0.104044
    19  H    0.110546
    20  H    0.068449
    21  H    0.094990
    22  H    0.095005
    23  H    0.080334
    24  H    0.114975
    25  H    0.092824
    26  H    0.085161
    27  H    0.084853
    28  H    0.089232
    29  H    0.084838
    30  H    0.118382
    31  H    0.064303
    32  H    0.132583
    33  H    0.100883
    34  H    0.106572
    35  H    0.052334
    36  H    0.124470
    37  H    0.122600
    38  H    0.097378
 Sum of Mulliken charges =   0.00000

 Dipole moment (field-independent basis, Debye):
    X=             -1.2693    Y=             -1.0091    Z=              0.7792  Tot=              1.7990
 Quadrupole moment (field-independent basis, Debye-Ang):
   XX=            -90.3166   YY=            -85.7933   ZZ=            -88.6324
   XY=             -0.0746   XZ=             -0.3899   YZ=              0.6822

  Exact polarizability: 147.371   0.798 140.703   2.266  -0.762 122.558
 Approx polarizability: 193.612   0.259 189.135  -0.854  -0.534 185.563

                      1                      2                      3
                      A                      A                      A
 Frequencies --     43.4667                74.9278                82.4954
 Red. masses --      3.4820                 2.3651                 2.9087
 Frc consts  --      0.0039                 0.0078                 0.0117
 IR Inten    --      0.1930                 0.3722                 0.2404

                      4                      5                      6
                      A                      A                      A
 Frequencies --    100.3564               134.8556               148.4640
 Red. masses --      1.9869                 1.9444                 2.9179
 Frc consts  --      0.0118                 0.0208                 0.0379
 IR Inten    --      0.3361                 2.3443                 0.3271

                      7                      8                      9
                      A                      A                      A
 Frequencies --    174.3836               182.6157               201.5606
 Red. masses --      1.5970                 2.1448                 2.5020
 Frc consts  --      0.0286                 0.0421                 0.0599
 IR Inten    --      0.3599                 1.0508                 0.9295

                     10                     11                     12
                      A                      A                      A
 Frequencies --    226.3143               229.1567               242.4927
 Red. masses --      1.7494                 1.7027                 1.3145
 Frc consts  --      0.0528                 0.0527                 0.0455
 IR Inten    --      1.9002                 0.3093                 1.2871

                     13                     14                     15
                      A                      A                      A
 Frequencies --    261.8919               273.7884               308.2494
 Red. masses --      1.7773                 2.3123                 2.6098
 Frc consts  --      0.0718                 0.1021                 0.1461
 IR Inten    --      0.9823                 0.7755                 0.1258

                     16                     17                     18
                      A                      A                      A
 Frequencies --    321.8804               342.9370               359.2217
 Red. masses --      2.4100                 3.3204                 2.6534
 Frc consts  --      0.1471                 0.2301                 0.2017
 IR Inten    --      1.4556                 5.4632                 0.2831

                     19                     20                     21
                      A                      A                      A
 Frequencies --    381.5452               427.7227               451.7307
 Red. masses --      2.3087                 2.8777                 2.6140
 Frc consts  --      0.1980                 0.3102                 0.3143
 IR Inten    --      0.4060                 4.0938                 1.0173

                     22                     23                     24
                      A                      A                      A
 Frequencies --    502.0255               535.8229               625.8412
 Red. masses --      2.9120                 3.3438                 3.0292
 Frc consts  --      0.4324                 0.5656                 0.6990
 IR Inten    --      1.7182                 1.6208                 0.4487

                     25                     26                     27
                      A                      A                      A
 Frequencies --    674.1589               715.5800               741.1182
 Red. masses --      2.4568                 1.6653                 2.1732
 Frc consts  --      0.6579                 0.5024                 0.7033
 IR Inten    --      5.3863                 2.5327                 0.9865

                     28                     29                     30
                      A                      A                      A
 Frequencies --    787.9338               808.2880               822.3312
 Red. masses --      1.6760                 1.9405                 1.8467
 Frc consts  --      0.6131                 0.7470                 0.7358
 IR Inten    --      2.0570                 0.9045                 1.8293

                     31                     32                     33
                      A                      A                      A
 Frequencies --    873.1129               901.8632               939.9395
 Red. masses --      1.7078                 2.1571                 2.0536
 Frc consts  --      0.7671                 1.0337                 1.0690
 IR Inten    --      6.1765                 0.3483                12.3505

                     34                     35                     36
                      A                      A                      A
 Frequencies --    947.6483               963.5294               966.3574
 Red. masses --      2.0889                 1.9157                 1.8206
 Frc consts  --      1.1053                 1.0479                 1.0017
 IR Inten    --     25.9175                10.6226                13.5885

                     37                     38                     39
                      A                      A                      A
 Frequencies --    998.9128              1020.4553              1030.4899
 Red. masses --      2.2847                 1.9751                 2.7073
 Frc consts  --      1.3432                 1.2118                 1.6938
 IR Inten    --      2.8022                14.3003                 7.5827

                     40                     41                     42
                      A                      A                      A
 Frequencies --   1046.3093              1062.2124              1084.4213
 Red. masses --      2.1259                 2.6857                 3.1773
 Frc consts  --      1.3712                 1.7854                 2.2014
 IR Inten    --     48.9170                85.5051                96.8736

                     43                     44                     45
                      A                      A                      A
 Frequencies --   1090.5414              1109.9765              1122.7626
 Red. masses --      1.8504                 2.6401                 1.8981
 Frc consts  --      1.2966                 1.9165                 1.4097
 IR Inten    --     13.7732                70.1195                 1.4209

                     46                     47                     48
                      A                      A                      A
 Frequencies --   1128.9873              1136.8289              1147.3109
 Red. masses --      2.6131                 2.1074                 2.2308
 Frc consts  --      1.9624                 1.6047                 1.7301
 IR Inten    --     74.2952                 0.5781                47.4869

                     49                     50                     51
                      A                      A                      A
 Frequencies --   1178.5522              1182.3137              1203.3756
 Red. masses --      1.2951                 2.0862                 1.4644
 Frc consts  --      1.0599                 1.7182                 1.2494
 IR Inten    --      3.1433                62.1462                23.9521

                     52                     53                     54
                      A                      A                      A
 Frequencies --   1211.2666              1234.6691              1253.3050
 Red. masses --      1.3590                 1.6937                 1.2751
 Frc consts  --      1.1748                 1.5212                 1.1801
 IR Inten    --      4.4855                31.4087                 1.4187

                     55                     56                     57
                      A                      A                      A
 Frequencies --   1277.6543              1306.2764              1313.4683
 Red. masses --      1.2332                 1.2041                 1.2070
 Frc consts  --      1.1861                 1.2105                 1.2269
 IR Inten    --      2.2715                 0.7050                 1.8533

                     58                     59                     60
                      A                      A                      A
 Frequencies --   1324.6188              1335.7307              1348.4410
 Red. masses --      1.3307                 1.2444                 1.2621
 Frc consts  --      1.3757                 1.3082                 1.3521
 IR Inten    --      7.2017                 0.0988                 9.4877

                     61                     62                     63
                      A                      A                      A
 Frequencies --   1351.1477              1366.3364              1373.9919
 Red. masses --      1.3120                 1.4027                 1.3335
 Frc consts  --      1.4112                 1.5429                 1.4832
 IR Inten    --      3.2172                 1.7013                13.1672

                     64                     65                     66
                      A                      A                      A
 Frequencies --   1378.2415              1389.8993              1396.8674
 Red. masses --      1.3316                 1.3591                 1.3212
 Frc consts  --      1.4903                 1.5469                 1.5189
 IR Inten    --      9.3442                 4.2264                14.3590

                     67                     68                     69
                      A                      A                      A
 Frequencies --   1397.4333              1400.3542              1409.6628
 Red. masses --      1.2245                 1.3724                 1.2659
 Frc consts  --      1.4089                 1.5857                 1.4821
 IR Inten    --     13.1478                 0.2736                 2.4030

                     70                     71                     72
                      A                      A                      A
 Frequencies --   1413.5674              1416.6090              1474.6430
 Red. masses --      1.2745                 1.2253                 1.1702
 Frc consts  --      1.5005                 1.4488                 1.4993
 IR Inten    --     12.7468                 3.6562                 1.7170

                     73                     74                     75
                      A                      A                      A
 Frequencies --   1479.7689              1482.8047              1483.4773
 Red. masses --      1.0726                 1.0540                 1.0692
 Frc consts  --      1.3838                 1.3653                 1.3863
 IR Inten    --      1.3557                 2.9131                 2.2327

                     76                     77                     78
                      A                      A                      A
 Frequencies --   1486.9809              1492.3037              1494.5026
 Red. masses --      1.0838                 1.0770                 1.0575
 Frc consts  --      1.4119                 1.4131                 1.3917
 IR Inten    --      2.3761                 3.4589                 3.0612

                     79                     80                     81
                      A                      A                      A
 Frequencies --   1499.2708              1501.3496              1503.1128
 Red. masses --      1.0810                 1.0504                 1.0621
 Frc consts  --      1.4316                 1.3950                 1.4138
 IR Inten    --      2.5379                 3.1224                 3.8472

                     82                     83                     84
                      A                      A                      A
 Frequencies --   1503.6159              1508.4013              1513.8892
 Red. masses --      1.0750                 1.0694                 1.0527
 Frc consts  --      1.4319                 1.4336                 1.4216
 IR Inten    --      8.1977                 6.4831                 7.1636

                     85                     86                     87
                      A                      A                      A
 Frequencies --   2953.8610              2959.0439              2981.7052
 Red. masses --      1.0809                 1.0832                 1.0472
 Frc consts  --      5.5569                 5.5883                 5.4855
 IR Inten    --     36.2748                52.2611                73.4407

                     88                     89                     90
                      A                      A                      A
 Frequencies --   3002.4668              3025.6916              3027.8099
 Red. masses --      1.0615                 1.0697                 1.0456
 Frc consts  --      5.6378                 5.7700                 5.6476
 IR Inten    --     30.2388                12.8307                28.9485

                     91                     92                     93
                      A                      A                      A
 Frequencies --   3031.6262              3034.8861              3035.9539
 Red. masses --      1.0652                 1.0729                 1.0752
 Frc consts  --      5.7679                 5.8225                 5.8391
 IR Inten    --     11.9669                37.2798                21.2579

                     94                     95                     96
                      A                      A                      A
 Frequencies --   3036.9648              3041.4765              3045.4212
 Red. masses --      1.0523                 1.0766                 1.0637
 Frc consts  --      5.7185                 5.8676                 5.8123
 IR Inten    --     45.9601                57.1960                51.7185

                     97                     98                     99
                      A                      A                      A
 Frequencies --   3048.3897              3062.2392              3065.1434
 Red. masses --      1.0639                 1.0880                 1.1020
 Frc consts  --      5.8249                 6.0114                 6.1002
 IR Inten    --     18.2389                34.4641                21.4754

                    100                    101                    102
                      A                      A                      A
 Frequencies --   3078.4331              3089.2319              3090.1864
 Red. masses --      1.0982                 1.0931                 1.0981
 Frc consts  --      6.1321                 6.1465                 6.1784
 IR Inten    --     50.3431                 8.5045                49.9579

                    103                    104                    105
                      A                      A                      A
 Frequencies --   3098.7787              3105.5405              3107.1792
 Red. masses --      1.0938                 1.1003                 1.0926
 Frc consts  --      6.1882                 6.2524                 6.2153
 IR Inten    --     19.5161                27.6107                40.9336

                    106                    107                    108
                      A                      A                      A
 Frequencies --   3113.4535              3120.8536              3123.1114
 Red. masses --      1.1010                 1.1005                 1.1000
 Frc consts  --      6.2881                 6.3154                 6.3212
 IR Inten    --     41.2332                27.9499                22.1907

 - Thermochemistry -
 -------------------
 Temperature   298.150 Kelvin.  Pressure   1.00000 Atm.
 Atom     1 has atomic number  6 and mass  12.00000

 Molecular mass:   200.17763 amu.
 Principal axes and moments of inertia in atomic units:
                           1         2         3
     Eigenvalues --  2448.020083141.480104178.29891
           X            0.99955   0.02987   0.00140
           Y           -0.02986   0.99954  -0.00562
           Z           -0.00157   0.00557   0.99998
 This molecule is an asymmetric top.
 Rotational symmetry number  1.
 Warning -- assumption of classical behavior for rotation
           may cause significant error
 Rotational temperatures (Kelvin)      0.03538     0.02757     0.02073
 Rotational constants (GHZ):           0.73722     0.57449     0.43193
 Zero-point vibrational energy     914677.7 (Joules/Mol)
                                  218.61321 (Kcal/Mol)
 Warning -- explicit consideration of  23 degrees of freedom as
           vibrations may cause significant error
 Vibrational temperatures:     62.54   107.80   118.69   144.39   194.03
          (Kelvin)            213.61   250.90   262.74   290.00   325.62
                              329.71   348.89   376.80   393.92   443.50
                              463.11   493.41   516.84   548.96   615.40
                              649.94   722.30   770.93   900.45   969.96
                             1029.56  1066.30  1133.66  1162.95  1183.15
                             1256.21  1297.58  1352.36  1363.45  1386.30
                             1390.37  1437.21  1468.21  1482.65  1505.41
                             1528.29  1560.24  1569.05  1597.01  1615.40
                             1624.36  1635.64  1650.72  1695.67  1701.09
                             1731.39  1742.74  1776.41  1803.23  1838.26
                             1879.44  1889.79  1905.83  1921.82  1940.11
                             1944.00  1965.85  1976.87  1982.98  1999.76
                             2009.78  2010.59  2014.80  2028.19  2033.81
                             2038.18  2121.68  2129.06  2133.43  2134.39
                             2139.43  2147.09  2150.26  2157.12  2160.11
                             2162.64  2163.37  2170.25  2178.15  4249.95
                             4257.40  4290.01  4319.88  4353.30  4356.34
                             4361.83  4366.52  4368.06  4369.52  4376.01
                             4381.68  4385.95  4405.88  4410.06  4429.18
                             4444.72  4446.09  4458.45  4468.18  4470.54
                             4479.57  4490.21  4493.46

 Zero-point correction=                           0.348382 (Hartree/Particle)
 Thermal correction to Energy=                    0.364322
 Thermal correction to Enthalpy=                  0.365266
 Thermal correction to Gibbs Free Energy=         0.306193
 Sum of electronic and zero-point Energies=           -621.855527
 Sum of electronic and thermal Energies=              -621.839587
 Sum of electronic and thermal Enthalpies=            -621.838643
 Sum of electronic and thermal Free Energies=         -621.897716

                     E (Thermal)             CV                S
                      KCal/Mol        Cal/Mol-Kelvin    Cal/Mol-Kelvin
 Total                  228.616             61.088            124.331
 Electronic               0.000              0.000              0.000
 Translational            0.889              2.981             41.787
 Rotational               0.889              2.981             31.841
 Vibrational            226.838             55.126             50.703
 Vibration     1          0.595              1.980              5.094
 Vibration     2          0.599              1.966              4.020
 Vibration     3          0.600              1.961              3.831
 Vibration     4          0.604              1.949              3.447
 Vibration     5          0.613              1.919              2.876
 Vibration     6          0.618              1.904              2.692
 Vibration     7          0.627              1.874              2.388
 Vibration     8          0.630              1.863              2.302
 Vibration     9          0.638              1.838              2.119
 Vibration    10          0.650              1.801              1.908
 Vibration    11          0.652              1.797              1.886
 Vibration    12          0.659              1.775              1.785
 Vibration    13          0.669              1.743              1.649
 Vibration    14          0.676              1.722              1.572
 Vibration    15          0.698              1.658              1.372
 Vibration    16          0.707              1.632              1.301
 Vibration    17          0.722              1.590              1.198
 Vibration    18          0.734              1.556              1.125
 Vibration    19          0.751              1.510              1.033
 Vibration    20          0.789              1.410              0.866
 Vibration    21          0.810              1.357              0.791
 Vibration    22          0.857              1.246              0.653
 Vibration    23          0.891              1.171              0.574

                           ! Non-Optimized Parameters !
 Normal termination of Gaussian 16 at Mon May 22 13:46:18 2023.
