 Gaussian 16, Revision A.03,
 Gaussian 16:  ES64L-G16RevA.03 25-Dec-2016

 -----------------------------
 # opt freq b3lyp/6-31g(2df,p)
 -----------------------------

 -------------------
 Title Card Required
 -------------------
 Symbolic Z-matrix:
 Charge =  0 Multiplicity = 1

 SCF Done:  E(RB3LYP) =  -352.411097861     A.U. after   13 cycles
 SCF Done:  E(RB3LYP) =  -352.472262627     A.U. after   11 cycles
 SCF Done:  E(RB3LYP) =  -352.495744333     A.U. after   11 cycles
 SCF Done:  E(RB3LYP) =  -352.511877296     A.U. after   12 cycles
 SCF Done:  E(RB3LYP) =  -352.515587936     A.U. after   11 cycles
 SCF Done:  E(RB3LYP) =  -352.533072407     A.U. after   11 cycles
 SCF Done:  E(RB3LYP) =  -352.533424185     A.U. after   11 cycles
 SCF Done:  E(RB3LYP) =  -352.537548528     A.U. after   10 cycles
 SCF Done:  E(RB3LYP) =  -352.533488532     A.U. after   10 cycles
 SCF Done:  E(RB3LYP) =  -352.538839726     A.U. after   10 cycles
 SCF Done:  E(RB3LYP) =  -352.540054028     A.U. after   10 cycles
 SCF Done:  E(RB3LYP) =  -352.541124694     A.U. after   10 cycles
 SCF Done:  E(RB3LYP) =  -352.541423775     A.U. after    9 cycles
 SCF Done:  E(RB3LYP) =  -352.541587834     A.U. after    9 cycles
 SCF Done:  E(RB3LYP) =  -352.541655837     A.U. after    8 cycles
 SCF Done:  E(RB3LYP) =  -352.541663430     A.U. after    8 cycles
 SCF Done:  E(RB3LYP) =  -352.541664930     A.U. after    7 cycles
 SCF Done:  E(RB3LYP) =  -352.541665334     A.U. after    6 cycles
 SCF Done:  E(RB3LYP) =  -352.541665424     A.U. after    5 cycles
 Optimization completed.
    -- Stationary point found.
 Normal termination of Gaussian 16 at Sun May 28 19:35:07 2023.

 ----------------------------------------------------------------------
 #N Geom=AllCheck Guess=TCheck SCRF=Check GenChk RB3LYP/6-31G(2df,p) Fr
 eq
 ----------------------------------------------------------------------

 Structure from the checkpoint file:  "CCC1C2CC1qCCrC2.chk"
 -------------------
 Title Card Required
 -------------------
 Charge =  0 Multiplicity = 1

                         Standard orientation:
 ---------------------------------------------------------------------
 Center     Atomic      Atomic             Coordinates (Angstroms)
 Number     Number       Type             X           Y           Z
 ---------------------------------------------------------------------
      1          6           0        2.430014   -0.795303   -0.469994
      2          6           0        1.788557   -0.244996    0.809989
      3          6           0        0.506637    0.598229    0.774567
      4          6           0        0.225487    1.757902   -0.233057
      5          6           0       -1.240157    1.730444    0.281791
      6          6           0       -0.852897    0.232946    0.060297
      7          6           0       -1.754356   -0.956411    0.296827
      8          6           0       -1.150871   -2.301421   -0.125077
      9          6           0       -0.223752    0.709139   -1.291322
     10          1           0        3.359392   -1.316306   -0.215947
     11          1           0        2.685794    0.000101   -1.176536
     12          1           0        1.786357   -1.514144   -0.984872
     13          1           0        2.541205    0.372236    1.320514
     14          1           0        1.604095   -1.084625    1.494452
     15          1           0        0.329338    0.912334    1.812453
     16          1           0        0.840423    2.642839   -0.405690
     17          1           0       -2.000027    2.133124   -0.394476
     18          1           0       -1.411173    2.049602    1.314421
     19          1           0       -2.694448   -0.794629   -0.247730
     20          1           0       -2.023327   -0.989595    1.361297
     21          1           0       -0.895178   -2.302031   -1.189954
     22          1           0       -1.856679   -3.119903    0.047431
     23          1           0       -0.238761   -2.526030    0.436658
     24          1           0       -0.935451    1.068239   -2.042050
     25          1           0        0.536465    0.085616   -1.754094
 ---------------------------------------------------------------------

 SCF Done:  E(RB3LYP) =  -352.541665424     A.U. after    1 cycles

 The electronic state is 1-A.
 Alpha  occ. eigenvalues --  -10.19486 -10.18999 -10.18303 -10.17751 -10.17588
 Alpha  occ. eigenvalues --  -10.17561 -10.17345 -10.17123 -10.17029  -0.90119
 Alpha  occ. eigenvalues --   -0.76273  -0.75984  -0.67139  -0.65235  -0.64101
 Alpha  occ. eigenvalues --   -0.59099  -0.57139  -0.51126  -0.46453  -0.44783
 Alpha  occ. eigenvalues --   -0.44661  -0.43295  -0.42723  -0.39517  -0.38192
 Alpha  occ. eigenvalues --   -0.36699  -0.36246  -0.35519  -0.34448  -0.33068
 Alpha  occ. eigenvalues --   -0.30478  -0.29723  -0.29014  -0.28550  -0.27677
 Alpha virt. eigenvalues --    0.07900   0.10780   0.11448   0.12304   0.13973
 Alpha virt. eigenvalues --    0.14035   0.14987   0.15683   0.16288   0.16447
 Alpha virt. eigenvalues --    0.17016   0.17808   0.18297   0.18626   0.19438

 Mulliken charges:
               1
     1  C   -0.389130
     2  C   -0.230779
     3  C    0.030061
     4  C   -0.071633
     5  C   -0.262608
     6  C    0.338275
     7  C   -0.310673
     8  C   -0.382662
     9  C   -0.260932
    10  H    0.105677
    11  H    0.121106
    12  H    0.123299
    13  H    0.097358
    14  H    0.097878
    15  H    0.055611
    16  H    0.062561
    17  H    0.081795
    18  H    0.081840
    19  H    0.095955
    20  H    0.094502
    21  H    0.118450
    22  H    0.109714
    23  H    0.121584
    24  H    0.079315
    25  H    0.093438
 Sum of Mulliken charges =  -0.00000

 Dipole moment (field-independent basis, Debye):
    X=              0.0465    Y=             -0.2585    Z=              0.1498  Tot=              0.3024
 Quadrupole moment (field-independent basis, Debye-Ang):
   XX=            -57.6351   YY=            -58.7431   ZZ=            -58.0131
   XY=              0.3376   XZ=              0.3736   YZ=             -0.1748

  Exact polarizability:  98.357  -2.340  95.386   0.740   0.032  85.782
 Approx polarizability: 134.509  -1.368 131.366   1.515  -0.427 133.093

                      1                      2                      3
                      A                      A                      A
 Frequencies --     79.4647                87.3643               155.8918
 Red. masses --      2.2601                 2.2204                 2.3193
 Frc consts  --      0.0084                 0.0100                 0.0332
 IR Inten    --      0.0113                 0.0063                 0.0152

                      4                      5                      6
                      A                      A                      A
 Frequencies --    207.4484               244.2875               251.9566
 Red. masses --      1.4225                 1.5385                 2.7644
 Frc consts  --      0.0361                 0.0541                 0.1034
 IR Inten    --      0.0077                 0.1520                 0.0433

                      7                      8                      9
                      A                      A                      A
 Frequencies --    323.2216               332.3648               368.8115
 Red. masses --      1.4268                 2.0960                 1.7742
 Frc consts  --      0.0878                 0.1364                 0.1422
 IR Inten    --      0.0332                 0.5129                 0.1980

                     10                     11                     12
                      A                      A                      A
 Frequencies --    417.7485               543.6501               607.5410
 Red. masses --      2.9240                 2.2321                 2.6381
 Frc consts  --      0.3006                 0.3887                 0.5737
 IR Inten    --      0.0922                 0.6861                 0.1324

                     13                     14                     15
                      A                      A                      A
 Frequencies --    643.7298               728.9644               780.6985
 Red. masses --      2.2951                 1.7646                 1.4061
 Frc consts  --      0.5604                 0.5525                 0.5049
 IR Inten    --      0.2807                 1.4020                 2.3118

                     16                     17                     18
                      A                      A                      A
 Frequencies --    792.1771               814.7668               834.5476
 Red. masses --      1.8098                 2.8135                 1.8958
 Frc consts  --      0.6692                 1.1004                 0.7779
 IR Inten    --      1.2778                 0.4672                 1.5678

                     19                     20                     21
                      A                      A                      A
 Frequencies --    900.6745               931.5751               938.5667
 Red. masses --      2.6824                 1.8541                 1.9182
 Frc consts  --      1.2821                 0.9480                 0.9956
 IR Inten    --      0.5324                 0.3590                 1.5032

                     22                     23                     24
                      A                      A                      A
 Frequencies --    953.8341               998.5824              1019.4269
 Red. masses --      2.1015                 1.8833                 1.3142
 Frc consts  --      1.1265                 1.1064                 0.8047
 IR Inten    --      1.4731                 1.2685                 0.6368

                     25                     26                     27
                      A                      A                      A
 Frequencies --   1023.1026              1052.9105              1068.4145
 Red. masses --      1.3418                 1.1290                 1.4426
 Frc consts  --      0.8275                 0.7375                 0.9702
 IR Inten    --      0.2044                 0.4579                 1.5206

                     28                     29                     30
                      A                      A                      A
 Frequencies --   1081.0945              1104.5349              1124.0926
 Red. masses --      1.4856                 2.0317                 1.5682
 Frc consts  --      1.0230                 1.4604                 1.1675
 IR Inten    --      0.8755                 1.5445                 0.2322

                     31                     32                     33
                      A                      A                      A
 Frequencies --   1155.5518              1157.4108              1167.4104
 Red. masses --      1.5560                 1.7043                 2.0207
 Frc consts  --      1.2242                 1.3451                 1.6226
 IR Inten    --      2.1342                 0.9338                 0.8321

                     34                     35                     36
                      A                      A                      A
 Frequencies --   1199.9958              1215.4992              1233.7099
 Red. masses --      1.6984                 1.7341                 1.6863
 Frc consts  --      1.4409                 1.5095                 1.5122
 IR Inten    --      1.4866                 0.6089                 2.8438

                     37                     38                     39
                      A                      A                      A
 Frequencies --   1252.9564              1297.1583              1311.6133
 Red. masses --      1.8313                 1.8849                 1.2934
 Frc consts  --      1.6938                 1.8686                 1.3110
 IR Inten    --      1.2242                18.4239                 0.1669

                     40                     41                     42
                      A                      A                      A
 Frequencies --   1336.2449              1368.2096              1375.8541
 Red. masses --      1.2637                 1.5094                 2.0652
 Frc consts  --      1.3294                 1.6648                 2.3034
 IR Inten    --      6.5818                 1.9555                 0.9343

                     43                     44                     45
                      A                      A                      A
 Frequencies --   1406.8002              1408.8663              1447.4456
 Red. masses --      1.2101                 1.2322                 1.2618
 Frc consts  --      1.4110                 1.4410                 1.5576
 IR Inten    --      1.3610                 1.5788                13.0224

                     46                     47                     48
                      A                      A                      A
 Frequencies --   1479.4184              1479.4707              1498.4933
 Red. masses --      1.0720                 1.0680                 1.0842
 Frc consts  --      1.3824                 1.3773                 1.4345
 IR Inten    --      1.1139                 1.0288                 1.7354

                     49                     50                     51
                      A                      A                      A
 Frequencies --   1499.9898              1503.5925              1509.4464
 Red. masses --      1.0417                 1.0620                 1.0538
 Frc consts  --      1.3810                 1.4145                 1.4147
 IR Inten    --      7.1367                 0.6383                 8.1821

                     52                     53                     54
                      A                      A                      A
 Frequencies --   1513.7941              1549.9069              2991.9175
 Red. masses --      1.0690                 1.1673                 1.0725
 Frc consts  --      1.4433                 1.6522                 5.6567
 IR Inten    --      3.9549                 3.1684                 8.2097

                     55                     56                     57
                      A                      A                      A
 Frequencies --   3008.8460              3011.4909              3027.9923
 Red. masses --      1.0603                 1.0699                 1.0994
 Frc consts  --      5.6558                 5.7167                 5.9392
 IR Inten    --     30.4600                73.2156                22.3796

                     58                     59                     60
                      A                      A                      A
 Frequencies --   3034.8162              3035.3813              3038.9178
 Red. masses --      1.0364                 1.0365                 1.0548
 Frc consts  --      5.6241                 5.6266                 5.7392
 IR Inten    --     15.0788                35.4763                52.1638

                     61                     62                     63
                      A                      A                      A
 Frequencies --   3039.9389              3051.9960              3094.3043
 Red. masses --      1.1000                 1.0669                 1.0919
 Frc consts  --      5.9892                 5.8550                 6.1597
 IR Inten    --     18.6199                44.2943                72.2876

                     64                     65                     66
                      A                      A                      A
 Frequencies --   3095.0241              3101.4284              3103.9762
 Red. masses --      1.1000                 1.1015                 1.1099
 Frc consts  --      6.2081                 6.2423                 6.3002
 IR Inten    --     38.1375                33.0033                46.1914

                     67                     68                     69
                      A                      A                      A
 Frequencies --   3106.4570              3113.0006              3171.3315
 Red. masses --      1.1017                 1.1020                 1.0944
 Frc consts  --      6.2637                 6.2918                 6.4851
 IR Inten    --     54.3773                24.9844                22.9812

 - Thermochemistry -
 -------------------
 Temperature   298.150 Kelvin.  Pressure   1.00000 Atm.
 Atom     1 has atomic number  6 and mass  12.00000

 Molecular mass:   124.12520 amu.
 Principal axes and moments of inertia in atomic units:
                           1         2         3
     Eigenvalues --   986.974581112.752411647.86203
           X            0.99962  -0.02708  -0.00516
           Y            0.02712   0.99961   0.00737
           Z            0.00495  -0.00751   0.99996
 This molecule is an asymmetric top.
 Rotational symmetry number  1.
 Warning -- assumption of classical behavior for rotation
           may cause significant error
 Rotational temperatures (Kelvin)      0.08776     0.07784     0.05256
 Rotational constants (GHZ):           1.82856     1.62187     1.09520
 Zero-point vibrational energy     602960.4 (Joules/Mol)
                                  144.11099 (Kcal/Mol)
 Warning -- explicit consideration of  12 degrees of freedom as
           vibrations may cause significant error
 Vibrational temperatures:    114.33   125.70   224.29   298.47   351.48
          (Kelvin)            362.51   465.04   478.20   530.64   601.05
                              782.19   874.12   926.18  1048.82  1123.25
                             1139.77  1172.27  1200.73  1295.87  1340.33
                             1350.39  1372.35  1436.74  1466.73  1472.02
                             1514.90  1537.21  1555.45  1589.18  1617.32
                             1662.58  1665.26  1679.64  1726.53  1748.83
                             1775.03  1802.72  1866.32  1887.12  1922.56
                             1968.55  1979.55  2024.07  2027.04  2082.55
                             2128.55  2128.63  2156.00  2158.15  2163.33
                             2171.76  2178.01  2229.97  4304.70  4329.06
                             4332.86  4356.61  4366.42  4367.24  4372.32
                             4373.79  4391.14  4452.01  4453.05  4462.26
                             4465.93  4469.50  4478.91  4562.84

 Zero-point correction=                           0.229655 (Hartree/Particle)
 Thermal correction to Energy=                    0.239143
 Thermal correction to Enthalpy=                  0.240087
 Thermal correction to Gibbs Free Energy=         0.195540
 Sum of electronic and zero-point Energies=           -352.312010
 Sum of electronic and thermal Energies=              -352.302523
 Sum of electronic and thermal Enthalpies=            -352.301579
 Sum of electronic and thermal Free Energies=         -352.346126

                     E (Thermal)             CV                S
                      KCal/Mol        Cal/Mol-Kelvin    Cal/Mol-Kelvin
 Total                  150.064             37.190             93.757
 Electronic               0.000              0.000              0.000
 Translational            0.889              2.981             40.362
 Rotational               0.889              2.981             28.983
 Vibrational            148.287             31.229             24.412
 Vibration     1          0.600              1.963              3.904
 Vibration     2          0.601              1.958              3.718
 Vibration     3          0.620              1.896              2.599
 Vibration     4          0.641              1.829              2.066
 Vibration     5          0.660              1.772              1.771
 Vibration     6          0.664              1.759              1.717
 Vibration     7          0.708              1.629              1.294
 Vibration     8          0.714              1.611              1.249
 Vibration     9          0.741              1.536              1.085
 Vibration    10          0.781              1.432              0.900
 Vibration    11          0.899              1.154              0.557
 Vibration    12          0.966              1.016              0.437

 Optimization completed.
    -- Stationary point found.
 Normal termination of Gaussian 16 at Sun May 28 20:17:45 2023.
