 Gaussian 16, Revision A.03,
 Gaussian 16:  ES64L-G16RevA.03 25-Dec-2016

 -----------------------------
 # opt freq b3lyp/6-31g(2df,p)
 -----------------------------

 -------------------
 Title Card Required
 -------------------
 Symbolic Z-matrix:
 Charge =  0 Multiplicity = 1

 SCF Done:  E(RB3LYP) =  -314.530055281     A.U. after   11 cycles
 SCF Done:  E(RB3LYP) =  -314.531281561     A.U. after   10 cycles
 SCF Done:  E(RB3LYP) =  -314.531494848     A.U. after    8 cycles
 SCF Done:  E(RB3LYP) =  -314.531514450     A.U. after    8 cycles
 SCF Done:  E(RB3LYP) =  -314.531515439     A.U. after    6 cycles
 SCF Done:  E(RB3LYP) =  -314.531515683     A.U. after    6 cycles
 SCF Done:  E(RB3LYP) =  -314.531515719     A.U. after    5 cycles
 Optimization completed.
    -- Stationary point found.
 Normal termination of Gaussian 16 at Sun May 28 15:34:43 2023.

 ----------------------------------------------------------------------
 #N Geom=AllCheck Guess=TCheck SCRF=Check GenChk RB3LYP/6-31G(2df,p) Fr
 eq
 ----------------------------------------------------------------------

 Structure from the checkpoint file:  "CCC1CCCCC1.chk"
 -------------------
 Title Card Required
 -------------------
 Charge =  0 Multiplicity = 1

                         Standard orientation:
 ---------------------------------------------------------------------
 Center     Atomic      Atomic             Coordinates (Angstroms)
 Number     Number       Type             X           Y           Z
 ---------------------------------------------------------------------
      1          6           0       -2.739712   -0.000118    0.770457
      2          6           0       -2.072285    0.000135   -0.611095
      3          6           0       -0.530708    0.000096   -0.625508
      4          6           0        0.083429    1.262761    0.006519
      5          6           0        1.615446    1.267472   -0.105560
      6          6           0        2.226713   -0.000084    0.508100
      7          6           0        1.615340   -1.267543   -0.105651
      8          6           0        0.083331   -1.262695    0.006378
      9          1           0       -3.829571    0.000476    0.667988
     10          1           0       -2.467182    0.883169    1.356473
     11          1           0       -2.468083   -0.884189    1.355702
     12          1           0       -2.422205    0.876716   -1.172295
     13          1           0       -2.422259   -0.876199   -1.172653
     14          1           0       -0.234698    0.000162   -1.686439
     15          1           0       -0.195192    1.316390    1.067724
     16          1           0       -0.333832    2.159087   -0.469252
     17          1           0        2.027557    2.160953    0.377564
     18          1           0        1.899712    1.328517   -1.165507
     19          1           0        2.043884   -0.000108    1.591977
     20          1           0        3.314895   -0.000132    0.376941
     21          1           0        2.027339   -2.161087    0.377457
     22          1           0        1.899651   -1.328571   -1.165586
     23          1           0       -0.195337   -1.316391    1.067562
     24          1           0       -0.334002   -2.158935   -0.469499
 ---------------------------------------------------------------------

 SCF Done:  E(RB3LYP) =  -314.531515719     A.U. after    1 cycles

 The electronic state is 1-A.
 Alpha  occ. eigenvalues --  -10.17585 -10.17276 -10.17169 -10.17157 -10.17139
 Alpha  occ. eigenvalues --  -10.16955 -10.16954 -10.16765  -0.82692  -0.76866
 Alpha  occ. eigenvalues --   -0.73175  -0.70805  -0.62803  -0.60091  -0.56803
 Alpha  occ. eigenvalues --   -0.53565  -0.46262  -0.44352  -0.43882  -0.43029
 Alpha  occ. eigenvalues --   -0.42558  -0.38655  -0.36874  -0.36842  -0.36610
 Alpha  occ. eigenvalues --   -0.34173  -0.33900  -0.32092  -0.32090  -0.30366
 Alpha  occ. eigenvalues --   -0.28665  -0.28611
 Alpha virt. eigenvalues --    0.08498   0.10254   0.10781   0.12237   0.15257
 Alpha virt. eigenvalues --    0.15653   0.15871   0.16392   0.16481   0.17195
 Alpha virt. eigenvalues --    0.18162   0.18220   0.18860   0.19351   0.20915

 Mulliken charges:
               1
     1  C   -0.375764
     2  C   -0.203135
     3  C    0.060633
     4  C   -0.185676
     5  C   -0.195784
     6  C   -0.175174
     7  C   -0.195785
     8  C   -0.185670
     9  H    0.109944
    10  H    0.116421
    11  H    0.116422
    12  H    0.087801
    13  H    0.087801
    14  H    0.061214
    15  H    0.091073
    16  H    0.083397
    17  H    0.086142
    18  H    0.089688
    19  H    0.089653
    20  H    0.086498
    21  H    0.086142
    22  H    0.089688
    23  H    0.091075
    24  H    0.083395
 Sum of Mulliken charges =  -0.00000

 Dipole moment (field-independent basis, Debye):
    X=              0.0248    Y=             -0.0000    Z=             -0.0483  Tot=              0.0543
 Quadrupole moment (field-independent basis, Debye-Ang):
   XX=            -53.5307   YY=            -53.0683   ZZ=            -52.7510
   XY=             -0.0000   XZ=              0.1357   YZ=              0.0001

  Exact polarizability:  95.820  -0.000  82.695   0.396  -0.000  75.820
 Approx polarizability: 118.413   0.000 116.879  -0.296   0.000 118.089

                      1                      2                      3
                      A                      A                      A
 Frequencies --     82.9707               124.4631               214.9040
 Red. masses --      1.9090                 2.5605                 1.2921
 Frc consts  --      0.0077                 0.0234                 0.0352
 IR Inten    --      0.0037                 0.0413                 0.0001

                      4                      5                      6
                      A                      A                      A
 Frequencies --    232.1249               263.1840               324.3313
 Red. masses --      1.6727                 2.5148                 1.8231
 Frc consts  --      0.0531                 0.1026                 0.1130
 IR Inten    --      0.0073                 0.0713                 0.0060

                      7                      8                      9
                      A                      A                      A
 Frequencies --    338.0974               403.3399               447.2526
 Red. masses --      1.8888                 2.5816                 2.9928
 Frc consts  --      0.1272                 0.2474                 0.3527
 IR Inten    --      0.0541                 0.0613                 0.0015

                     10                     11                     12
                      A                      A                      A
 Frequencies --    491.5036               574.9070               772.5378
 Red. masses --      1.5583                 2.2696                 1.2466
 Frc consts  --      0.2218                 0.4420                 0.4384
 IR Inten    --      0.5944                 0.4366                 1.2219

                     13                     14                     15
                      A                      A                      A
 Frequencies --    773.9619               798.8021               844.1948
 Red. masses --      2.4341                 1.4021                 2.8469
 Frc consts  --      0.8591                 0.5271                 1.1954
 IR Inten    --      0.0253                 0.3016                 0.8539

                     16                     17                     18
                      A                      A                      A
 Frequencies --    874.9791               894.3861               910.8262
 Red. masses --      1.5360                 1.8892                 2.1618
 Frc consts  --      0.6929                 0.8904                 1.0566
 IR Inten    --      1.2258                 3.2391                 1.1089

                     19                     20                     21
                      A                      A                      A
 Frequencies --    925.1347               996.5887              1016.6790
 Red. masses --      1.4278                 2.3399                 1.6808
 Frc consts  --      0.7200                 1.3692                 1.0236
 IR Inten    --      0.2351                 1.7973                 0.0142

                     22                     23                     24
                      A                      A                      A
 Frequencies --   1035.8885              1044.7718              1077.3037
 Red. masses --      1.5408                 1.5721                 1.1167
 Frc consts  --      0.9741                 1.0110                 0.7636
 IR Inten    --      0.7588                 1.1944                 0.0018

                     25                     26                     27
                      A                      A                      A
 Frequencies --   1092.8750              1109.0324              1126.4181
 Red. masses --      1.6416                 2.6090                 1.4958
 Frc consts  --      1.1552                 1.8907                 1.1182
 IR Inten    --      0.0374                 1.5883                 0.1654

                     28                     29                     30
                      A                      A                      A
 Frequencies --   1178.3738              1217.2218              1265.1236
 Red. masses --      2.3977                 1.6140                 1.3608
 Frc consts  --      1.9616                 1.4090                 1.2832
 IR Inten    --      0.6531                 0.0826                 0.1305

                     31                     32                     33
                      A                      A                      A
 Frequencies --   1289.7580              1291.3140              1304.2858
 Red. masses --      1.2722                 1.2835                 1.1453
 Frc consts  --      1.2469                 1.2609                 1.1479
 IR Inten    --      2.1090                 0.2663                 0.0092

                     34                     35                     36
                      A                      A                      A
 Frequencies --   1328.4385              1339.0961              1368.4395
 Red. masses --      1.2999                 1.2978                 1.3605
 Frc consts  --      1.3515                 1.3712                 1.5010
 IR Inten    --      0.6586                 0.0000                 0.4914

                     37                     38                     39
                      A                      A                      A
 Frequencies --   1372.4968              1379.1033              1382.0944
 Red. masses --      1.4361                 1.4397                 1.4848
 Frc consts  --      1.5939                 1.6133                 1.6711
 IR Inten    --      6.3726                 0.3857                 5.6388

                     40                     41                     42
                      A                      A                      A
 Frequencies --   1391.7392              1405.5772              1417.6391
 Red. masses --      1.4251                 1.3614                 1.3147
 Frc consts  --      1.6263                 1.5846                 1.5567
 IR Inten    --      0.8898                 0.1561                 7.8828

                     43                     44                     45
                      A                      A                      A
 Frequencies --   1483.2592              1483.9459              1485.5850
 Red. masses --      1.0898                 1.0766                 1.0879
 Frc consts  --      1.4126                 1.3968                 1.4146
 IR Inten    --      0.0362                 0.4358                 2.4729

                     46                     47                     48
                      A                      A                      A
 Frequencies --   1487.9425              1492.0105              1503.8441
 Red. masses --      1.0966                 1.0828                 1.0408
 Frc consts  --      1.4304                 1.4202                 1.3869
 IR Inten    --      1.8282                 6.8774                 3.2814

                     49                     50                     51
                      A                      A                      A
 Frequencies --   1505.1037              1509.1199              2973.2804
 Red. masses --      1.0898                 1.0728                 1.0802
 Frc consts  --      1.4545                 1.4395                 5.6263
 IR Inten    --      1.9993                 2.1816                13.0819

                     52                     53                     54
                      A                      A                      A
 Frequencies --   3005.5530              3007.0064              3009.6358
 Red. masses --      1.0695                 1.0662                 1.0585
 Frc consts  --      5.6923                 5.6801                 5.6488
 IR Inten    --     21.8702                28.2753                 5.8933

                     55                     56                     57
                      A                      A                      A
 Frequencies --   3011.2047              3011.6547              3014.8963
 Red. masses --      1.0613                 1.0612                 1.0605
 Frc consts  --      5.6700                 5.6711                 5.6794
 IR Inten    --      3.2979                65.6817                32.9799

                     58                     59                     60
                      A                      A                      A
 Frequencies --   3037.9545              3040.2410              3049.4453
 Red. masses --      1.0375                 1.1019                 1.0976
 Frc consts  --      5.6415                 6.0009                 6.0136
 IR Inten    --     19.1275                 4.1749               106.5377

                     61                     62                     63
                      A                      A                      A
 Frequencies --   3052.2899              3057.0595              3057.1094
 Red. masses --      1.0984                 1.0911                 1.1014
 Frc consts  --      6.0292                 6.0081                 6.0648
 IR Inten    --     18.1072                56.7220                12.3537

                     64                     65                     66
                      A                      A                      A
 Frequencies --   3064.9646              3101.0343              3107.5708
 Red. masses --      1.1038                 1.1005                 1.1014
 Frc consts  --      6.1095                 6.2355                 6.2666
 IR Inten    --    120.4560                40.8205                38.3710

 - Thermochemistry -
 -------------------
 Temperature   298.150 Kelvin.  Pressure   1.00000 Atm.
 Atom     1 has atomic number  6 and mass  12.00000

 Molecular mass:   112.12520 amu.
 Principal axes and moments of inertia in atomic units:
                           1         2         3
     Eigenvalues --   513.213611340.047571582.52157
           X            0.99998   0.00000  -0.00559
           Y           -0.00000   1.00000  -0.00000
           Z            0.00559   0.00000   0.99998
 This molecule is an asymmetric top.
 Rotational symmetry number  1.
 Warning -- assumption of classical behavior for rotation
           may cause significant error
 Rotational temperatures (Kelvin)      0.16877     0.06463     0.05473
 Rotational constants (GHZ):           3.51655     1.34677     1.14042
 Zero-point vibrational energy     593789.6 (Joules/Mol)
                                  141.91912 (Kcal/Mol)
 Warning -- explicit consideration of  11 degrees of freedom as
           vibrations may cause significant error
 Vibrational temperatures:    119.38   179.07   309.20   333.98   378.66
          (Kelvin)            466.64   486.45   580.32   643.50   707.16
                              827.16  1111.51  1113.56  1149.30  1214.61
                             1258.90  1286.82  1310.48  1331.06  1433.87
                             1462.77  1490.41  1503.19  1550.00  1572.40
                             1595.65  1620.66  1695.42  1751.31  1820.23
                             1855.67  1857.91  1876.58  1911.33  1926.66
                             1968.88  1974.72  1984.22  1988.53  2002.40
                             2022.31  2039.67  2134.08  2135.07  2137.43
                             2140.82  2146.67  2163.70  2165.51  2171.29
                             4277.89  4324.32  4326.41  4330.19  4332.45
                             4333.10  4337.76  4370.94  4374.23  4387.47
                             4391.56  4398.43  4398.50  4409.80  4461.70
                             4471.10

 Zero-point correction=                           0.226163 (Hartree/Particle)
 Thermal correction to Energy=                    0.234676
 Thermal correction to Enthalpy=                  0.235620
 Thermal correction to Gibbs Free Energy=         0.193431
 Sum of electronic and zero-point Energies=           -314.305353
 Sum of electronic and thermal Energies=              -314.296840
 Sum of electronic and thermal Enthalpies=            -314.295896
 Sum of electronic and thermal Free Energies=         -314.338085

                     E (Thermal)             CV                S
                      KCal/Mol        Cal/Mol-Kelvin    Cal/Mol-Kelvin
 Total                  147.261             33.442             88.795
 Electronic               0.000              0.000              0.000
 Translational            0.889              2.981             40.059
 Rotational               0.889              2.981             28.478
 Vibrational            145.484             27.481             20.258
 Vibration     1          0.600              1.961              3.819
 Vibration     2          0.610              1.929              3.030
 Vibration     3          0.645              1.818              2.002
 Vibration     4          0.653              1.792              1.862
 Vibration     5          0.670              1.740              1.641
 Vibration     6          0.709              1.627              1.288
 Vibration     7          0.718              1.599              1.221
 Vibration     8          0.769              1.463              0.950
 Vibration     9          0.806              1.367              0.804
 Vibration    10          0.847              1.269              0.680
 Vibration    11          0.931              1.086              0.495

 Optimization completed.
    -- Stationary point found.
 Normal termination of Gaussian 16 at Sun May 28 16:07:27 2023.
