 Gaussian 16, Revision A.03,
 Gaussian 16:  ES64L-G16RevA.03 25-Dec-2016

 -----------------------------
 # opt freq b3lyp/6-31g(2df,p)
 -----------------------------

 -------------------
 Title Card Required
 -------------------
 Symbolic Z-matrix:
 Charge =  0 Multiplicity = 1

 SCF Done:  E(RB3LYP) =  -582.176506331     A.U. after   15 cycles
 SCF Done:  E(RB3LYP) =  -582.221090218     A.U. after   13 cycles
 SCF Done:  E(RB3LYP) =  -582.249504964     A.U. after   13 cycles
 SCF Done:  E(RB3LYP) =  -582.280760003     A.U. after   12 cycles
 SCF Done:  E(RB3LYP) =  -582.316932270     A.U. after   14 cycles
 SCF Done:  E(RB3LYP) =  -582.338667971     A.U. after   13 cycles
 SCF Done:  E(RB3LYP) =  -582.345985627     A.U. after   12 cycles
 SCF Done:  E(RB3LYP) =  -582.350007333     A.U. after   12 cycles
 SCF Done:  E(RB3LYP) =  -582.350724037     A.U. after   11 cycles
 SCF Done:  E(RB3LYP) =  -582.350951803     A.U. after   11 cycles
 SCF Done:  E(RB3LYP) =  -582.351041163     A.U. after   10 cycles
 SCF Done:  E(RB3LYP) =  -582.351077162     A.U. after   11 cycles
 SCF Done:  E(RB3LYP) =  -582.351085678     A.U. after    9 cycles
 SCF Done:  E(RB3LYP) =  -582.351087535     A.U. after    7 cycles
 SCF Done:  E(RB3LYP) =  -582.351088029     A.U. after    7 cycles
 SCF Done:  E(RB3LYP) =  -582.351088131     A.U. after    6 cycles
 SCF Done:  E(RB3LYP) =  -582.351088169     A.U. after    6 cycles
 Optimization completed.
    -- Stationary point found.
 Normal termination of Gaussian 16 at Sun May 28 00:21:27 2023.

 ----------------------------------------------------------------------
 #N Geom=AllCheck Guess=TCheck SCRF=Check GenChk RB3LYP/6-31G(2df,p) Fr
 eq
 ----------------------------------------------------------------------

 Structure from the checkpoint file:  "CCC1dCC2qC1rCC2C1dCCdCCdCC1.chk"
 -------------------
 Title Card Required
 -------------------
 Charge =  0 Multiplicity = 1

                         Standard orientation:
 ---------------------------------------------------------------------
 Center     Atomic      Atomic             Coordinates (Angstroms)
 Number     Number       Type             X           Y           Z
 ---------------------------------------------------------------------
      1          6           0       -4.766775    1.326129    0.638435
      2          6           0       -4.158989    0.777934   -0.664861
      3          6           0       -2.876005    0.050123   -0.452443
      4          6           0       -1.614466    0.195978   -0.889987
      5          6           0       -1.103967   -1.000150   -0.148212
      6          6           0       -2.550721   -1.194657    0.376754
      7          6           0       -0.153708   -2.064456   -0.623355
      8          6           0        0.172032   -1.236732    0.616967
      9          6           0        1.339852   -0.317035    0.632466
     10          6           0        1.240849    1.025609    0.496573
     11          6           0        2.338156    1.950037    0.357105
     12          6           0        3.547736    1.695651   -0.215531
     13          6           0        3.957107    0.434969   -0.783531
     14          6           0        3.529460   -0.774024   -0.369820
     15          6           0        2.703171   -0.938583    0.877481
     16          1           0       -5.714237    1.836915    0.441898
     17          1           0       -4.087937    2.038614    1.117197
     18          1           0       -4.962407    0.519898    1.352613
     19          1           0       -3.995895    1.598364   -1.373723
     20          1           0       -4.887149    0.101053   -1.134645
     21          1           0       -1.132850    0.897508   -1.560988
     22          1           0       -2.667807   -1.096204    1.461770
     23          1           0       -3.040428   -2.119183    0.049490
     24          1           0        0.419310   -1.853873   -1.520675
     25          1           0       -0.420073   -3.108013   -0.488478
     26          1           0        0.047135   -1.793326    1.547071
     27          1           0        0.245537    1.461491    0.473330
     28          1           0        2.123551    2.983808    0.620440
     29          1           0        4.214647    2.540927   -0.370040
     30          1           0        4.645231    0.485074   -1.625114
     31          1           0        3.794737   -1.662988   -0.935784
     32          1           0        3.193790   -0.421364    1.713259
     33          1           0        2.602454   -1.993457    1.144136
 ---------------------------------------------------------------------

 SCF Done:  E(RB3LYP) =  -582.351088169     A.U. after    1 cycles

 The electronic state is 1-A.
 Alpha  occ. eigenvalues --  -10.19617 -10.18961 -10.18882 -10.18625 -10.18300
 Alpha  occ. eigenvalues --  -10.18170 -10.18138 -10.18095 -10.17904 -10.17892
 Alpha  occ. eigenvalues --  -10.17757 -10.17669 -10.17366 -10.17344 -10.16881
 Alpha  occ. eigenvalues --   -0.88084  -0.83586  -0.81258  -0.76293  -0.75427
 Alpha  occ. eigenvalues --   -0.75025  -0.65632  -0.65074  -0.63922  -0.63238
 Alpha  occ. eigenvalues --   -0.58219  -0.55448  -0.51969  -0.50671  -0.49624
 Alpha  occ. eigenvalues --   -0.49463  -0.47689  -0.45571  -0.44596  -0.43959
 Alpha  occ. eigenvalues --   -0.43043  -0.41614  -0.41497  -0.39234  -0.37641
 Alpha  occ. eigenvalues --   -0.36829  -0.36395  -0.35539  -0.35275  -0.34317
 Alpha  occ. eigenvalues --   -0.33423  -0.32558  -0.31306  -0.30610  -0.29902
 Alpha  occ. eigenvalues --   -0.27980  -0.24015  -0.22255  -0.20393
 Alpha virt. eigenvalues --   -0.02549   0.02041   0.03334   0.09510   0.09685
 Alpha virt. eigenvalues --    0.10457   0.10872   0.12627   0.12949   0.13270
 Alpha virt. eigenvalues --    0.14219   0.14969   0.15111   0.15477   0.15857

 Mulliken charges:
               1
     1  C   -0.372211
     2  C   -0.302509
     3  C    0.328208
     4  C   -0.285982
     5  C    0.357147
     6  C   -0.424968
     7  C   -0.352088
     8  C   -0.194999
     9  C    0.249937
    10  C   -0.152481
    11  C   -0.095810
    12  C   -0.112696
    13  C   -0.051567
    14  C   -0.087174
    15  C   -0.344125
    16  H    0.113594
    17  H    0.121312
    18  H    0.120679
    19  H    0.104744
    20  H    0.106377
    21  H    0.101271
    22  H    0.104775
    23  H    0.103061
    24  H    0.117686
    25  H    0.108544
    26  H    0.090464
    27  H    0.091657
    28  H    0.085187
    29  H    0.084992
    30  H    0.086213
    31  H    0.089208
    32  H    0.114525
    33  H    0.097027
 Sum of Mulliken charges =  -0.00000

 Dipole moment (field-independent basis, Debye):
    X=             -0.9896    Y=             -0.3802    Z=             -0.0943  Tot=              1.0644
 Quadrupole moment (field-independent basis, Debye-Ang):
   XX=            -87.2143   YY=            -85.8968   ZZ=            -90.5574
   XY=             -0.7033   XZ=             -1.9004   YZ=             -1.2118

  Exact polarizability: 207.121   2.703 160.672 -16.800  -3.076 111.935
 Approx polarizability: 276.602   6.326 269.531 -33.602  -7.899 183.448

                      1                      2                      3
                      A                      A                      A
 Frequencies --     26.1310                40.8283                70.9302
 Red. masses --      3.9514                 3.2738                 2.8460
 Frc consts  --      0.0016                 0.0032                 0.0084
 IR Inten    --      0.1401                 0.0340                 0.0066

                      4                      5                      6
                      A                      A                      A
 Frequencies --     84.1241               113.2829               177.7811
 Red. masses --      2.9373                 3.5749                 2.1940
 Frc consts  --      0.0122                 0.0270                 0.0409
 IR Inten    --      0.1119                 0.4045                 0.0884

                      7                      8                      9
                      A                      A                      A
 Frequencies --    188.8299               216.9520               239.0082
 Red. masses --      2.8206                 1.5653                 3.2164
 Frc consts  --      0.0593                 0.0434                 0.1083
 IR Inten    --      0.2325                 0.0683                 0.1517

                     10                     11                     12
                      A                      A                      A
 Frequencies --    264.9749               283.6007               331.9502
 Red. masses --      2.8696                 2.1724                 2.8470
 Frc consts  --      0.1187                 0.1029                 0.1848
 IR Inten    --      0.2276                 0.6689                 0.1133

                     13                     14                     15
                      A                      A                      A
 Frequencies --    361.0974               378.9930               406.3181
 Red. masses --      3.4133                 2.7553                 2.3974
 Frc consts  --      0.2622                 0.2332                 0.2332
 IR Inten    --      2.2637                 4.7202                 0.2418

                     16                     17                     18
                      A                      A                      A
 Frequencies --    428.8328               476.4887               517.8167
 Red. masses --      3.5387                 2.1754                 3.3943
 Frc consts  --      0.3834                 0.2910                 0.5362
 IR Inten    --      0.5465                 5.8405                 0.7909

                     19                     20                     21
                      A                      A                      A
 Frequencies --    549.8622               588.4750               628.5445
 Red. masses --      3.4096                 2.6673                 2.7205
 Frc consts  --      0.6074                 0.5442                 0.6332
 IR Inten    --      2.0524                 1.8810                 3.3761

                     22                     23                     24
                      A                      A                      A
 Frequencies --    651.5669               715.0017               737.6473
 Red. masses --      2.8220                 2.6768                 1.3846
 Frc consts  --      0.7059                 0.8063                 0.4439
 IR Inten    --      2.5817                 1.2147                42.2663

                     25                     26                     27
                      A                      A                      A
 Frequencies --    770.0295               788.1929               809.5633
 Red. masses --      2.0752                 1.2197                 1.4947
 Frc consts  --      0.7250                 0.4464                 0.5772
 IR Inten    --      5.1184                 0.7682                12.4075

                     28                     29                     30
                      A                      A                      A
 Frequencies --    834.2082               883.7200               893.3823
 Red. masses --      2.0032                 1.7771                 1.9383
 Frc consts  --      0.8213                 0.8177                 0.9115
 IR Inten    --      1.6114                 4.5304                13.4997

                     31                     32                     33
                      A                      A                      A
 Frequencies --    901.1218               911.4809               930.0391
 Red. masses --      1.7006                 2.6013                 2.1467
 Frc consts  --      0.8136                 1.2733                 1.0940
 IR Inten    --     16.4704                 4.7117                 5.0332

                     34                     35                     36
                      A                      A                      A
 Frequencies --    938.8064               954.3762               962.4095
 Red. masses --      3.9622                 2.0896                 2.0496
 Frc consts  --      2.0575                 1.1214                 1.1185
 IR Inten    --      2.7878                 1.2333                 0.6307

                     37                     38                     39
                      A                      A                      A
 Frequencies --    966.8673               988.7366               995.7920
 Red. masses --      1.6542                 2.0850                 1.5905
 Frc consts  --      0.9111                 1.2009                 0.9292
 IR Inten    --      0.6719                 2.9555                 2.7318

                     40                     41                     42
                      A                      A                      A
 Frequencies --   1002.6010              1017.8460              1027.2459
 Red. masses --      1.7589                 1.9635                 1.6473
 Frc consts  --      1.0417                 1.1985                 1.0241
 IR Inten    --      6.6965                 2.3189                 0.5494

                     43                     44                     45
                      A                      A                      A
 Frequencies --   1051.5126              1054.9183              1085.4306
 Red. masses --      1.4485                 1.9684                 1.7738
 Frc consts  --      0.9436                 1.2906                 1.2313
 IR Inten    --      1.6579                 4.6028                 0.3752

                     46                     47                     48
                      A                      A                      A
 Frequencies --   1088.4466              1111.7998              1125.7521
 Red. masses --      1.7247                 1.5088                 1.3415
 Frc consts  --      1.2038                 1.0989                 1.0017
 IR Inten    --      0.9025                 0.8900                 3.8968

                     49                     50                     51
                      A                      A                      A
 Frequencies --   1149.7419              1180.9072              1181.9365
 Red. masses --      1.7195                 1.4642                 1.9605
 Frc consts  --      1.3392                 1.2030                 1.6137
 IR Inten    --      2.8825                 4.8850                 0.6668

                     52                     53                     54
                      A                      A                      A
 Frequencies --   1208.5125              1217.5272              1252.5816
 Red. masses --      1.4948                 1.2330                 1.1357
 Frc consts  --      1.2863                 1.0769                 1.0499
 IR Inten    --      3.8055                 3.5075                 0.2330

                     55                     56                     57
                      A                      A                      A
 Frequencies --   1255.8393              1270.2637              1310.2320
 Red. masses --      1.7598                 1.2193                 1.5315
 Frc consts  --      1.6352                 1.1592                 1.5490
 IR Inten    --      1.1706                10.4852                 0.8574

                     58                     59                     60
                      A                      A                      A
 Frequencies --   1322.9869              1342.1746              1345.5640
 Red. masses --      1.4226                 1.7368                 1.4945
 Frc consts  --      1.4670                 1.8434                 1.5942
 IR Inten    --      3.4581                 2.2764                15.8267

                     61                     62                     63
                      A                      A                      A
 Frequencies --   1358.6387              1404.3047              1407.2998
 Red. masses --      1.7550                 1.4759                 1.2286
 Frc consts  --      1.9087                 1.7149                 1.4337
 IR Inten    --      6.3568                 2.9095                 0.7392

                     64                     65                     66
                      A                      A                      A
 Frequencies --   1425.5945              1470.4129              1473.9439
 Red. masses --      1.8826                 1.4536                 1.1758
 Frc consts  --      2.2542                 1.8517                 1.5050
 IR Inten    --      1.1593                 2.2359                 2.6406

                     67                     68                     69
                      A                      A                      A
 Frequencies --   1474.6461              1476.1429              1487.7539
 Red. masses --      1.1776                 1.0820                 1.7143
 Frc consts  --      1.5088                 1.3891                 2.2356
 IR Inten    --      1.7623                 2.1436                 0.6576

                     70                     71                     72
                      A                      A                      A
 Frequencies --   1498.0249              1506.3608              1574.5943
 Red. masses --      1.0401                 1.0629                 8.2053
 Frc consts  --      1.3752                 1.4210                11.9862
 IR Inten    --      5.2105                 1.4881                16.3293

                     73                     74                     75
                      A                      A                      A
 Frequencies --   1669.8511              1670.6801              1692.0127
 Red. masses --      5.0203                 6.4698                 7.4114
 Frc consts  --      8.2477                10.6397                12.5014
 IR Inten    --      6.3223                12.8154                 5.9073

                     76                     77                     78
                      A                      A                      A
 Frequencies --   3003.2347              3004.9093              3027.9325
 Red. masses --      1.0649                 1.0671                 1.0562
 Frc consts  --      5.6588                 5.6767                 5.7055
 IR Inten    --     34.2069                28.6478                35.9454

                     79                     80                     81
                      A                      A                      A
 Frequencies --   3036.6158              3054.3737              3074.4699
 Red. masses --      1.0347                 1.0952                 1.1060
 Frc consts  --      5.6216                 6.0197                 6.1594
 IR Inten    --     33.4610                13.2344                19.8325

                     82                     83                     84
                      A                      A                      A
 Frequencies --   3084.6691              3093.0255              3107.7608
 Red. masses --      1.0860                 1.0938                 1.1017
 Frc consts  --      6.0882                 6.1656                 6.2690
 IR Inten    --     14.3855                22.5710                36.5670

                     85                     86                     87
                      A                      A                      A
 Frequencies --   3110.1873              3121.0544              3132.0445
 Red. masses --      1.1025                 1.0536                 1.0817
 Frc consts  --      6.2837                 6.0466                 6.2519
 IR Inten    --     34.1968                15.3169                 1.6534

                     88                     89                     90
                      A                      A                      A
 Frequencies --   3140.1557              3155.0728              3164.2659
 Red. masses --      1.0847                 1.0893                 1.0908
 Frc consts  --      6.3019                 6.3886                 6.4347
 IR Inten    --      6.3373                38.5548                30.3377

                     91                     92                     93
                      A                      A                      A
 Frequencies --   3169.4426              3197.3041              3210.1204
 Red. masses --      1.0953                 1.0991                 1.1169
 Frc consts  --      6.4826                 6.6201                 6.7815
 IR Inten    --     16.4582                 9.8482                 9.5621

 - Thermochemistry -
 -------------------
 Temperature   298.150 Kelvin.  Pressure   1.00000 Atm.
 Atom     1 has atomic number  6 and mass  12.00000

 Molecular mass:   198.14085 amu.
 Principal axes and moments of inertia in atomic units:
                           1         2         3
     Eigenvalues --  1377.355126000.663046763.32651
           X            0.99994  -0.00975  -0.00539
           Y            0.00974   0.99995  -0.00290
           Z            0.00542   0.00285   0.99998
 This molecule is an asymmetric top.
 Rotational symmetry number  1.
 Warning -- assumption of classical behavior for rotation
           may cause significant error
 Rotational temperatures (Kelvin)      0.06288     0.01443     0.01281
 Rotational constants (GHZ):           1.31029     0.30076     0.26684
 Zero-point vibrational energy     748195.3 (Joules/Mol)
                                  178.82297 (Kcal/Mol)
 Warning -- explicit consideration of  20 degrees of freedom as
           vibrations may cause significant error
 Vibrational temperatures:     37.60    58.74   102.05   121.04   162.99
          (Kelvin)            255.79   271.68   312.15   343.88   381.24
                              408.04   477.60   519.54   545.29   584.60
                              616.99   685.56   745.02   791.13   846.68
                              904.34   937.46  1028.73  1061.31  1107.90
                             1134.03  1164.78  1200.24  1271.48  1285.38
                             1296.51  1311.42  1338.12  1350.73  1373.13
                             1384.69  1391.11  1422.57  1432.72  1442.52
                             1464.45  1477.98  1512.89  1517.79  1561.69
                             1566.03  1599.63  1619.71  1654.22  1699.06
                             1700.54  1738.78  1751.75  1802.19  1806.87
                             1827.63  1885.13  1903.48  1931.09  1935.97
                             1954.78  2020.48  2024.79  2051.11  2115.60
                             2120.68  2121.69  2123.84  2140.55  2155.32
                             2167.32  2265.49  2402.54  2403.74  2434.43
                             4320.98  4323.39  4356.52  4369.01  4394.56
                             4423.48  4438.15  4450.17  4471.37  4474.87
                             4490.50  4506.31  4517.98  4539.45  4552.67
                             4560.12  4600.21  4618.65

 Zero-point correction=                           0.284973 (Hartree/Particle)
 Thermal correction to Energy=                    0.299210
 Thermal correction to Enthalpy=                  0.300154
 Thermal correction to Gibbs Free Energy=         0.242932
 Sum of electronic and zero-point Energies=           -582.066116
 Sum of electronic and thermal Energies=              -582.051878
 Sum of electronic and thermal Enthalpies=            -582.050934
 Sum of electronic and thermal Free Energies=         -582.108156

                     E (Thermal)             CV                S
                      KCal/Mol        Cal/Mol-Kelvin    Cal/Mol-Kelvin
 Total                  187.757             55.937            120.435
 Electronic               0.000              0.000              0.000
 Translational            0.889              2.981             41.756
 Rotational               0.889              2.981             32.391
 Vibrational            185.980             49.976             46.287
 Vibration     1          0.593              1.985              6.103
 Vibration     2          0.594              1.981              5.218
 Vibration     3          0.598              1.968              4.127
 Vibration     4          0.601              1.960              3.792
 Vibration     5          0.607              1.938              3.212
 Vibration     6          0.628              1.870              2.352
 Vibration     7          0.633              1.855              2.239
 Vibration     8          0.646              1.815              1.984
 Vibration     9          0.657              1.781              1.810
 Vibration    10          0.671              1.737              1.629
 Vibration    11          0.682              1.704              1.512
 Vibration    12          0.714              1.612              1.251
 Vibration    13          0.735              1.552              1.117
 Vibration    14          0.749              1.515              1.043
 Vibration    15          0.771              1.456              0.940
 Vibration    16          0.790              1.407              0.862
 Vibration    17          0.833              1.302              0.720
 Vibration    18          0.873              1.211              0.615
 Vibration    19          0.905              1.140              0.544
 Vibration    20          0.946              1.056              0.470

 Optimization completed.
    -- Stationary point found.
 Normal termination of Gaussian 16 at Sun May 28 02:39:17 2023.
