 Gaussian 16, Revision A.03,
 Gaussian 16:  ES64L-G16RevA.03 25-Dec-2016

 -----------------------------
 # opt freq b3lyp/6-31g(2df,p)
 -----------------------------

 -------------------
 Title Card Required
 -------------------
 Symbolic Z-matrix:
 Charge =  0 Multiplicity = 1

 SCF Done:  E(RB3LYP) =  -313.256455055     A.U. after   12 cycles
 SCF Done:  E(RB3LYP) =  -313.263104631     A.U. after   10 cycles
 SCF Done:  E(RB3LYP) =  -313.263841690     A.U. after   10 cycles
 SCF Done:  E(RB3LYP) =  -313.263928851     A.U. after    9 cycles
 SCF Done:  E(RB3LYP) =  -313.263986006     A.U. after    9 cycles
 SCF Done:  E(RB3LYP) =  -313.264168872     A.U. after   10 cycles
 SCF Done:  E(RB3LYP) =  -313.264262911     A.U. after   10 cycles
 SCF Done:  E(RB3LYP) =  -313.260548248     A.U. after   10 cycles
 SCF Done:  E(RB3LYP) =  -313.264611754     A.U. after    9 cycles
 SCF Done:  E(RB3LYP) =  -313.265019094     A.U. after    9 cycles
 SCF Done:  E(RB3LYP) =  -313.266431216     A.U. after   10 cycles
 SCF Done:  E(RB3LYP) =  -313.266509398     A.U. after   10 cycles
 SCF Done:  E(RB3LYP) =  -313.266996082     A.U. after   10 cycles
 SCF Done:  E(RB3LYP) =  -313.267375115     A.U. after    9 cycles
 SCF Done:  E(RB3LYP) =  -313.267417004     A.U. after    8 cycles
 SCF Done:  E(RB3LYP) =  -313.267419571     A.U. after    7 cycles
 SCF Done:  E(RB3LYP) =  -313.267419846     A.U. after    6 cycles
 Optimization completed.
    -- Stationary point found.
 Normal termination of Gaussian 16 at Sun May 28 05:17:46 2023.

 ----------------------------------------------------------------------
 #N Geom=AllCheck Guess=TCheck SCRF=Check GenChk RB3LYP/6-31G(2df,p) Fr
 eq
 ----------------------------------------------------------------------

 Structure from the checkpoint file:  "CCC1CC2CC1C2.chk"
 -------------------
 Title Card Required
 -------------------
 Charge =  0 Multiplicity = 1

                         Standard orientation:
 ---------------------------------------------------------------------
 Center     Atomic      Atomic             Coordinates (Angstroms)
 Number     Number       Type             X           Y           Z
 ---------------------------------------------------------------------
      1          6           0        2.451959    0.687412   -0.243326
      2          6           0        1.872086   -0.584570    0.386266
      3          6           0        0.346816   -0.780602    0.369010
      4          6           0       -0.353595   -0.899029   -1.030135
      5          6           0       -1.526414    0.080560   -0.815149
      6          6           0       -1.966974   -0.239042    0.643370
      7          6           0       -0.552445    0.325734    0.976423
      8          6           0       -0.803066    1.312857   -0.205788
      9          1           0        3.545411    0.667298   -0.189749
     10          1           0        2.115589    1.589546    0.276152
     11          1           0        2.180536    0.788355   -1.299183
     12          1           0        2.205380   -0.634057    1.431646
     13          1           0        2.322642   -1.457071   -0.106152
     14          1           0        0.165029   -1.705026    0.931321
     15          1           0       -0.686917   -1.918888   -1.244590
     16          1           0        0.294594   -0.581925   -1.853814
     17          1           0       -2.248016    0.181729   -1.626984
     18          1           0       -2.179300   -1.280306    0.907024
     19          1           0       -2.775581    0.409752    0.988629
     20          1           0       -0.297880    0.678498    1.977499
     21          1           0        0.046963    1.732526   -0.745582
     22          1           0       -1.498646    2.109657    0.069750
 ---------------------------------------------------------------------

 SCF Done:  E(RB3LYP) =  -313.267419846     A.U. after    1 cycles

 The electronic state is 1-A.
 Alpha  occ. eigenvalues --  -10.18252 -10.18182 -10.17788 -10.17467 -10.17418
 Alpha  occ. eigenvalues --  -10.17266 -10.17094 -10.16876  -0.87953  -0.76908
 Alpha  occ. eigenvalues --   -0.70436  -0.67806  -0.64857  -0.60710  -0.53643
 Alpha  occ. eigenvalues --   -0.51969  -0.49254  -0.45791  -0.45130  -0.42785
 Alpha  occ. eigenvalues --   -0.39816  -0.37770  -0.36368  -0.35074  -0.34402
 Alpha  occ. eigenvalues --   -0.33401  -0.31642  -0.30082  -0.29820  -0.29047
 Alpha  occ. eigenvalues --   -0.28689
 Alpha virt. eigenvalues --    0.08629   0.11046   0.11441   0.12885   0.13589
 Alpha virt. eigenvalues --    0.14955   0.15542   0.16467   0.17053   0.17864
 Alpha virt. eigenvalues --    0.18744   0.18962   0.19368   0.20718   0.21573

 Mulliken charges:
               1
     1  C   -0.377460
     2  C   -0.216056
     3  C    0.064768
     4  C   -0.234652
     5  C   -0.005759
     6  C   -0.221181
     7  C   -0.025896
     8  C   -0.218761
     9  H    0.107803
    10  H    0.120319
    11  H    0.116655
    12  H    0.091939
    13  H    0.092978
    14  H    0.065519
    15  H    0.089661
    16  H    0.093219
    17  H    0.053283
    18  H    0.082280
    19  H    0.090625
    20  H    0.051156
    21  H    0.089318
    22  H    0.090241
 Sum of Mulliken charges =   0.00000

 Dipole moment (field-independent basis, Debye):
    X=              0.0440    Y=             -0.0429    Z=              0.0625  Tot=              0.0877
 Quadrupole moment (field-independent basis, Debye-Ang):
   XX=            -51.4530   YY=            -51.3481   ZZ=            -51.4172
   XY=             -0.3276   XZ=             -0.0431   YZ=              0.1189

  Exact polarizability:  89.951  -0.478  77.902  -0.377   0.009  75.020
 Approx polarizability: 117.211  -0.204 115.808  -0.358  -0.211 114.345

                      1                      2                      3
                      A                      A                      A
 Frequencies --    102.1185               181.8721               243.7525
 Red. masses --      2.2382                 2.7848                 1.4009
 Frc consts  --      0.0138                 0.0543                 0.0490
 IR Inten    --      0.0027                 0.0672                 0.0543

                      4                      5                      6
                      A                      A                      A
 Frequencies --    284.0820               324.5464               415.8418
 Red. masses --      2.6346                 1.4279                 1.8160
 Frc consts  --      0.1253                 0.0886                 0.1850
 IR Inten    --      0.1369                 0.0669                 0.4899

                      7                      8                      9
                      A                      A                      A
 Frequencies --    498.9411               550.1023               651.9520
 Red. masses --      2.0763                 2.5251                 2.6558
 Frc consts  --      0.3045                 0.4502                 0.6651
 IR Inten    --      0.0343                 0.0557                 0.0701

                     10                     11                     12
                      A                      A                      A
 Frequencies --    759.1392               777.9287               827.6352
 Red. masses --      1.5585                 2.0328                 2.6677
 Frc consts  --      0.5292                 0.7248                 1.0766
 IR Inten    --      0.3726                 0.6661                 0.9560

                     13                     14                     15
                      A                      A                      A
 Frequencies --    834.6160               852.8455               864.8632
 Red. masses --      3.0521                 2.1961                 2.1237
 Frc consts  --      1.2526                 0.9411                 0.9359
 IR Inten    --      2.2321                 0.4332                 1.9583

                     16                     17                     18
                      A                      A                      A
 Frequencies --    932.3400               942.7649               948.9390
 Red. masses --      2.2758                 1.3985                 1.7592
 Frc consts  --      1.1655                 0.7323                 0.9333
 IR Inten    --      0.4697                 0.0920                 2.2733

                     19                     20                     21
                      A                      A                      A
 Frequencies --    967.4145               995.9509              1032.4933
 Red. masses --      2.3122                 1.4094                 1.9745
 Frc consts  --      1.2750                 0.8237                 1.2402
 IR Inten    --      0.4975                 0.5604                 0.4868

                     22                     23                     24
                      A                      A                      A
 Frequencies --   1036.3296              1078.2043              1079.5121
 Red. masses --      1.4923                 1.5632                 1.2231
 Frc consts  --      0.9443                 1.0707                 0.8398
 IR Inten    --      1.1773                 0.9366                 0.0922

                     25                     26                     27
                      A                      A                      A
 Frequencies --   1084.3207              1130.3519              1136.7638
 Red. masses --      1.1670                 1.5615                 1.7423
 Frc consts  --      0.8084                 1.1755                 1.3265
 IR Inten    --      0.4410                 1.3853                 1.5020

                     28                     29                     30
                      A                      A                      A
 Frequencies --   1150.2365              1185.9461              1224.6609
 Red. masses --      1.7017                 1.4273                 1.4007
 Frc consts  --      1.3265                 1.1828                 1.2378
 IR Inten    --      0.6909                 0.4643                 0.0541

                     31                     32                     33
                      A                      A                      A
 Frequencies --   1242.7542              1252.8108              1269.3689
 Red. masses --      1.6200                 1.5898                 1.5369
 Frc consts  --      1.4742                 1.4701                 1.4590
 IR Inten    --      0.6265                 4.7650                 0.3650

                     34                     35                     36
                      A                      A                      A
 Frequencies --   1294.9567              1296.7303              1328.8393
 Red. masses --      1.3039                 1.5529                 1.4161
 Frc consts  --      1.2882                 1.5385                 1.4733
 IR Inten    --      1.8052                 0.0206                 0.8407

                     37                     38                     39
                      A                      A                      A
 Frequencies --   1354.1147              1355.1733              1399.8861
 Red. masses --      1.4216                 1.6261                 1.2441
 Frc consts  --      1.5359                 1.7594                 1.4364
 IR Inten    --      0.3354                 0.7154                 3.2958

                     40                     41                     42
                      A                      A                      A
 Frequencies --   1421.7955              1482.6292              1489.4231
 Red. masses --      1.3254                 1.0724                 1.0926
 Frc consts  --      1.5785                 1.3889                 1.4280
 IR Inten    --     12.4524                 0.2195                 1.7952

                     43                     44                     45
                      A                      A                      A
 Frequencies --   1493.9142              1504.7132              1510.2506
 Red. masses --      1.0815                 1.0577                 1.0620
 Frc consts  --      1.4221                 1.4110                 1.4272
 IR Inten    --      0.1955                 6.5090                 4.6697

                     46                     47                     48
                      A                      A                      A
 Frequencies --   1530.0070              3002.1016              3019.2808
 Red. masses --      1.1172                 1.0676                 1.0765
 Frc consts  --      1.5409                 5.6690                 5.7817
 IR Inten    --      1.3524                 9.0915                54.8078

                     49                     50                     51
                      A                      A                      A
 Frequencies --   3034.5779              3036.4796              3042.8225
 Red. masses --      1.0385                 1.0988                 1.0581
 Frc consts  --      5.6344                 5.9691                 5.7721
 IR Inten    --     14.4421                18.7691                62.2176

                     52                     53                     54
                      A                      A                      A
 Frequencies --   3044.8611              3067.1127              3084.9967
 Red. masses --      1.0590                 1.0592                 1.1053
 Frc consts  --      5.7846                 5.8708                 6.1980
 IR Inten    --     35.7208                24.0407                37.8979

                     55                     56                     57
                      A                      A                      A
 Frequencies --   3095.2276              3096.6345              3102.3034
 Red. masses --      1.0893                 1.1001                 1.0947
 Frc consts  --      6.1489                 6.2156                 6.2077
 IR Inten    --     52.8637                68.4450                26.6632

                     58                     59                     60
                      A                      A                      A
 Frequencies --   3107.9633              3110.0011              3129.7791
 Red. masses --      1.1018                 1.1013                 1.1058
 Frc consts  --      6.2705                 6.2758                 6.3818
 IR Inten    --     32.9416                61.0804                29.9636

 - Thermochemistry -
 -------------------
 Temperature   298.150 Kelvin.  Pressure   1.00000 Atm.
 Atom     1 has atomic number  6 and mass  12.00000

 Molecular mass:   110.10955 amu.
 Principal axes and moments of inertia in atomic units:
                           1         2         3
     Eigenvalues --   474.916611129.428241172.18352
           X            0.99994   0.00789  -0.00716
           Y           -0.00815   0.99926  -0.03760
           Z            0.00686   0.03766   0.99927
 This molecule is an asymmetric top.
 Rotational symmetry number  1.
 Warning -- assumption of classical behavior for rotation
           may cause significant error
 Rotational temperatures (Kelvin)      0.18238     0.07669     0.07389
 Rotational constants (GHZ):           3.80012     1.59792     1.53964
 Zero-point vibrational energy     534120.5 (Joules/Mol)
                                  127.65786 (Kcal/Mol)
 Warning -- explicit consideration of   8 degrees of freedom as
           vibrations may cause significant error
 Vibrational temperatures:    146.93   261.67   350.71   408.73   466.95
          (Kelvin)            598.30   717.87   791.47   938.01  1092.23
                             1119.27  1190.78  1200.83  1227.05  1244.35
                             1341.43  1356.43  1365.31  1391.89  1432.95
                             1485.53  1491.05  1551.30  1553.18  1560.10
                             1626.32  1635.55  1654.93  1706.31  1762.01
                             1788.05  1802.52  1826.34  1863.15  1865.71
                             1911.90  1948.27  1949.79  2014.12  2045.65
                             2133.17  2142.95  2149.41  2164.95  2172.91
                             2201.34  4319.35  4344.07  4366.08  4368.82
                             4377.94  4380.88  4412.89  4438.62  4453.34
                             4455.37  4463.52  4471.67  4474.60  4503.05

 Zero-point correction=                           0.203436 (Hartree/Particle)
 Thermal correction to Energy=                    0.210793
 Thermal correction to Enthalpy=                  0.211738
 Thermal correction to Gibbs Free Energy=         0.172128
 Sum of electronic and zero-point Energies=           -313.063984
 Sum of electronic and thermal Energies=              -313.056626
 Sum of electronic and thermal Enthalpies=            -313.055682
 Sum of electronic and thermal Free Energies=         -313.095292

                     E (Thermal)             CV                S
                      KCal/Mol        Cal/Mol-Kelvin    Cal/Mol-Kelvin
 Total                  132.275             30.060             83.366
 Electronic               0.000              0.000              0.000
 Translational            0.889              2.981             40.005
 Rotational               0.889              2.981             27.933
 Vibrational            130.497             24.099             15.428
 Vibration     1          0.604              1.947              3.413
 Vibration     2          0.630              1.864              2.309
 Vibration     3          0.659              1.773              1.775
 Vibration     4          0.682              1.703              1.509
 Vibration     5          0.709              1.626              1.287
 Vibration     6          0.779              1.436              0.906
 Vibration     7          0.854              1.252              0.661
 Vibration     8          0.905              1.139              0.544

 Optimization completed.
    -- Stationary point found.
 Normal termination of Gaussian 16 at Sun May 28 05:49:02 2023.
