 Gaussian 16, Revision A.03,
 Gaussian 16:  ES64L-G16RevA.03 25-Dec-2016

 -----------------------------
 # opt freq b3lyp/6-31g(2df,p)
 -----------------------------

 -------------------
 Title Card Required
 -------------------
 Symbolic Z-matrix:
 Charge =  0 Multiplicity = 1

 SCF Done:  E(RB3LYP) =  -545.680309411     A.U. after   12 cycles
 SCF Done:  E(RB3LYP) =  -545.720639971     A.U. after   10 cycles
 SCF Done:  E(RB3LYP) =  -545.755482259     A.U. after   11 cycles
 SCF Done:  E(RB3LYP) =  -545.769320189     A.U. after   10 cycles
 SCF Done:  E(RB3LYP) =  -545.777756170     A.U. after   10 cycles
 SCF Done:  E(RB3LYP) =  -545.782778640     A.U. after   10 cycles
 SCF Done:  E(RB3LYP) =  -545.784469403     A.U. after   10 cycles
 SCF Done:  E(RB3LYP) =  -545.785625112     A.U. after   10 cycles
 SCF Done:  E(RB3LYP) =  -545.785837431     A.U. after    9 cycles
 SCF Done:  E(RB3LYP) =  -545.785894404     A.U. after    9 cycles
 SCF Done:  E(RB3LYP) =  -545.785903766     A.U. after    8 cycles
 SCF Done:  E(RB3LYP) =  -545.785906935     A.U. after    8 cycles
 SCF Done:  E(RB3LYP) =  -545.785907495     A.U. after    6 cycles
 SCF Done:  E(RB3LYP) =  -545.785907750     A.U. after    6 cycles
 Optimization completed.
    -- Stationary point found.
 Normal termination of Gaussian 16 at Tue May 23 18:52:53 2023.

 ----------------------------------------------------------------------
 #N Geom=AllCheck Guess=TCheck SCRF=Check GenChk RB3LYP/6-31G(2df,p) Fr
 eq
 ----------------------------------------------------------------------

 Structure from the checkpoint file:  "CCC1CCC2CCOCCqCrC12.chk"
 -------------------
 Title Card Required
 -------------------
 Charge =  0 Multiplicity = 1

                         Standard orientation:
 ---------------------------------------------------------------------
 Center     Atomic      Atomic             Coordinates (Angstroms)
 Number     Number       Type             X           Y           Z
 ---------------------------------------------------------------------
      1          6           0        3.531164    0.650789    1.160766
      2          6           0        2.017998    0.502940    0.961356
      3          6           0        1.607156    0.255504   -0.503611
      4          6           0        2.052616   -1.123500   -1.031071
      5          6           0        0.983528   -2.086416   -0.495431
      6          6           0       -0.352288   -1.294990   -0.535857
      7          6           0       -1.242656   -1.613127    0.675238
      8          6           0       -2.691633   -1.133484    0.557375
      9          8           0       -2.878066    0.254309    0.738225
     10          6           0       -2.296789    1.087492   -0.245494
     11          6           0       -0.777123    1.298541   -0.075346
     12          6           0       -0.392797    2.689097   -0.608306
     13          6           0        0.068128    0.205111   -0.759386
     14          1           0        3.767551    0.881768    2.204313
     15          1           0        3.931023    1.462736    0.542479
     16          1           0        4.074685   -0.261570    0.896704
     17          1           0        1.535982    1.418632    1.320715
     18          1           0        1.642157   -0.302853    1.604288
     19          1           0        2.056633    1.053830   -1.106650
     20          1           0        3.066830   -1.402627   -0.732582
     21          1           0        2.034782   -1.114162   -2.127800
     22          1           0        1.216378   -2.365614    0.539063
     23          1           0        0.928716   -3.020277   -1.062910
     24          1           0       -0.916537   -1.613220   -1.421356
     25          1           0       -0.808467   -1.218144    1.602173
     26          1           0       -1.272046   -2.705719    0.789771
     27          1           0       -3.300757   -1.604922    1.335907
     28          1           0       -3.101691   -1.449035   -0.419081
     29          1           0       -2.804730    2.051565   -0.132879
     30          1           0       -2.526149    0.714105   -1.258820
     31          1           0       -0.605176    1.284987    1.007063
     32          1           0       -0.620416    2.775023   -1.678084
     33          1           0        0.673948    2.893746   -0.484178
     34          1           0       -0.946060    3.476683   -0.086563
     35          1           0       -0.045965    0.382858   -1.838781
 ---------------------------------------------------------------------

 SCF Done:  E(RB3LYP) =  -545.785907750     A.U. after    1 cycles

 The electronic state is 1-A.
 Alpha  occ. eigenvalues --  -19.12835 -10.21892 -10.21733 -10.17977 -10.17920
 Alpha  occ. eigenvalues --  -10.17782 -10.17764 -10.17536 -10.17437 -10.17235
 Alpha  occ. eigenvalues --  -10.17207 -10.17166 -10.17085  -1.02193  -0.84384
 Alpha  occ. eigenvalues --   -0.78854  -0.77382  -0.74385  -0.69953  -0.68811
 Alpha  occ. eigenvalues --   -0.65168  -0.62534  -0.60295  -0.57397  -0.54670
 Alpha  occ. eigenvalues --   -0.51954  -0.49274  -0.48281  -0.47422  -0.45279
 Alpha  occ. eigenvalues --   -0.44299  -0.42992  -0.41222  -0.40803  -0.39730
 Alpha  occ. eigenvalues --   -0.39532  -0.39118  -0.38375  -0.36179  -0.35836
 Alpha  occ. eigenvalues --   -0.34958  -0.34421  -0.33600  -0.33114  -0.31182
 Alpha  occ. eigenvalues --   -0.30896  -0.30155  -0.30095  -0.28982  -0.28892
 Alpha  occ. eigenvalues --   -0.23935
 Alpha virt. eigenvalues --    0.06921   0.08354   0.09977   0.10322   0.10899
 Alpha virt. eigenvalues --    0.12737   0.13446   0.14223   0.14627   0.15046
 Alpha virt. eigenvalues --    0.15461   0.16078   0.16544   0.17028   0.17331

 Mulliken charges:
               1
     1  C   -0.388990
     2  C   -0.178617
     3  C   -0.000923
     4  C   -0.230273
     5  C   -0.233228
     6  C    0.007963
     7  C   -0.221966
     8  C   -0.080541
     9  O   -0.241291
    10  C   -0.088575
    11  C   -0.019094
    12  C   -0.412093
    13  C    0.018393
    14  H    0.110373
    15  H    0.112464
    16  H    0.117611
    17  H    0.099876
    18  H    0.096488
    19  H    0.060057
    20  H    0.091276
    21  H    0.090432
    22  H    0.096574
    23  H    0.090811
    24  H    0.065003
    25  H    0.102955
    26  H    0.091677
    27  H    0.100022
    28  H    0.078608
    29  H    0.095466
    30  H    0.078554
    31  H    0.083742
    32  H    0.112050
    33  H    0.118623
    34  H    0.112246
    35  H    0.064328
 Sum of Mulliken charges =  -0.00000

 Dipole moment (field-independent basis, Debye):
    X=              0.9005    Y=             -0.4187    Z=             -0.7656  Tot=              1.2539
 Quadrupole moment (field-independent basis, Debye-Ang):
   XX=            -87.8225   YY=            -80.8700   ZZ=            -82.7760
   XY=              1.7021   XZ=              2.6623   YZ=             -0.8520

  Exact polarizability: 139.520   1.244 132.264   0.689  -0.817 111.788
 Approx polarizability: 179.271   0.701 184.016   0.085  -0.436 180.046

                      1                      2                      3
                      A                      A                      A
 Frequencies --     49.3194                78.1618               109.5303
 Red. masses --      3.1993                 1.9198                 2.9507
 Frc consts  --      0.0046                 0.0069                 0.0209
 IR Inten    --      0.0254                 0.0766                 0.9976

                      4                      5                      6
                      A                      A                      A
 Frequencies --    145.8918               177.9067               206.4895
 Red. masses --      2.8266                 1.8784                 1.2715
 Frc consts  --      0.0354                 0.0350                 0.0319
 IR Inten    --      0.0446                 0.0413                 0.2979

                      7                      8                      9
                      A                      A                      A
 Frequencies --    219.3433               253.0861               269.7513
 Red. masses --      1.8119                 1.5021                 2.4746
 Frc consts  --      0.0514                 0.0567                 0.1061
 IR Inten    --      1.1704                 0.4171                 0.1140

                     10                     11                     12
                      A                      A                      A
 Frequencies --    272.9824               292.0671               331.5364
 Red. masses --      2.1252                 3.5576                 2.6963
 Frc consts  --      0.0933                 0.1788                 0.1746
 IR Inten    --      0.1258                 1.0226                 1.0804

                     13                     14                     15
                      A                      A                      A
 Frequencies --    367.0150               376.0531               393.3227
 Red. masses --      2.7424                 2.2857                 2.1637
 Frc consts  --      0.2176                 0.1904                 0.1972
 IR Inten    --      1.3501                 1.2134                 0.5800

                     16                     17                     18
                      A                      A                      A
 Frequencies --    451.9015               467.7296               503.4593
 Red. masses --      2.7968                 3.0478                 2.2316
 Frc consts  --      0.3365                 0.3928                 0.3333
 IR Inten    --      0.3783                 0.9647                 0.4186

                     19                     20                     21
                      A                      A                      A
 Frequencies --    571.1259               599.3109               716.1417
 Red. masses --      2.7141                 1.9753                 2.6180
 Frc consts  --      0.5216                 0.4180                 0.7911
 IR Inten    --      8.7237                 0.9296                 1.1614

                     22                     23                     24
                      A                      A                      A
 Frequencies --    732.0068               772.5949               834.0827
 Red. masses --      2.6266                 1.6282                 1.7111
 Frc consts  --      0.8292                 0.5726                 0.7014
 IR Inten    --      1.3512                 0.5892                 0.5852

                     25                     26                     27
                      A                      A                      A
 Frequencies --    850.3264               857.1573               879.3718
 Red. masses --      2.5405                 2.1493                 1.7569
 Frc consts  --      1.0823                 0.9304                 0.8005
 IR Inten    --      1.3334                 6.0360                 3.7394

                     28                     29                     30
                      A                      A                      A
 Frequencies --    897.8991               935.6068               955.6375
 Red. masses --      1.8751                 1.8570                 1.7554
 Frc consts  --      0.8907                 0.9578                 0.9445
 IR Inten    --      4.5453                 0.4787                 2.0043

                     31                     32                     33
                      A                      A                      A
 Frequencies --    977.2339               984.1118               993.5843
 Red. masses --      1.9850                 1.9023                 1.8315
 Frc consts  --      1.1169                 1.0855                 1.0653
 IR Inten    --      2.1550                 7.5708                 2.5970

                     34                     35                     36
                      A                      A                      A
 Frequencies --   1004.9435              1027.4217              1037.3307
 Red. masses --      2.4405                 2.3182                 1.9701
 Frc consts  --      1.4522                 1.4417                 1.2490
 IR Inten    --      9.6594                 4.2088                 2.4787

                     37                     38                     39
                      A                      A                      A
 Frequencies --   1057.0756              1077.5219              1082.9467
 Red. masses --      1.5860                 2.0781                 2.3076
 Frc consts  --      1.0442                 1.4216                 1.5945
 IR Inten    --      1.7657                 3.1597                 2.9612

                     40                     41                     42
                      A                      A                      A
 Frequencies --   1089.7258              1108.5804              1134.6939
 Red. masses --      2.1201                 1.7662                 1.8328
 Frc consts  --      1.4833                 1.2789                 1.3903
 IR Inten    --      3.6854                 5.5007                 1.1793

                     43                     44                     45
                      A                      A                      A
 Frequencies --   1160.5406              1167.1797              1180.2283
 Red. masses --      3.3113                 2.2458                 2.7452
 Frc consts  --      2.6277                 1.8026                 2.2530
 IR Inten    --     87.0001                11.7445                 8.1280

                     46                     47                     48
                      A                      A                      A
 Frequencies --   1209.2610              1211.4723              1239.7084
 Red. masses --      1.6080                 1.4103                 1.4554
 Frc consts  --      1.3854                 1.2195                 1.3179
 IR Inten    --      0.8796                 3.0486                 2.8595

                     49                     50                     51
                      A                      A                      A
 Frequencies --   1264.7101              1272.2345              1289.8804
 Red. masses --      1.3237                 1.4205                 1.2380
 Frc consts  --      1.2475                 1.3546                 1.2136
 IR Inten    --     10.8816                 2.4364                 7.4831

                     52                     53                     54
                      A                      A                      A
 Frequencies --   1304.9625              1317.4940              1325.7292
 Red. masses --      1.3084                 1.2994                 1.2551
 Frc consts  --      1.3127                 1.3289                 1.2997
 IR Inten    --      2.0879                 3.4192                 3.7802

                     55                     56                     57
                      A                      A                      A
 Frequencies --   1337.8411              1342.3049              1344.1294
 Red. masses --      1.2922                 1.2054                 1.3177
 Frc consts  --      1.3627                 1.2797                 1.4027
 IR Inten    --      7.5020                 3.3186                 1.1869

                     58                     59                     60
                      A                      A                      A
 Frequencies --   1352.3325              1358.4835              1368.7770
 Red. masses --      1.3508                 1.2476                 1.3615
 Frc consts  --      1.4555                 1.3565                 1.5029
 IR Inten    --      1.9849                 2.7764                 0.2616

                     61                     62                     63
                      A                      A                      A
 Frequencies --   1393.1473              1394.1366              1399.5228
 Red. masses --      1.3185                 1.4172                 1.4228
 Frc consts  --      1.5077                 1.6229                 1.6420
 IR Inten    --      5.0166                 1.7954                 1.9635

                     64                     65                     66
                      A                      A                      A
 Frequencies --   1404.2528              1412.9353              1414.2974
 Red. masses --      1.2968                 1.2296                 1.2560
 Frc consts  --      1.5067                 1.4463                 1.4802
 IR Inten    --      0.7610                 5.9286                 5.9480

                     67                     68                     69
                      A                      A                      A
 Frequencies --   1429.2971              1472.4415              1483.3684
 Red. masses --      1.2936                 1.0909                 1.0695
 Frc consts  --      1.5571                 1.3935                 1.3865
 IR Inten    --     10.1295                 2.6902                 0.3653

                     70                     71                     72
                      A                      A                      A
 Frequencies --   1487.8008              1489.8230              1495.8422
 Red. masses --      1.0781                 1.0709                 1.0803
 Frc consts  --      1.4061                 1.4004                 1.4241
 IR Inten    --      1.5646                 2.8485                 1.2289

                     73                     74                     75
                      A                      A                      A
 Frequencies --   1499.6225              1502.0951              1503.6711
 Red. masses --      1.0593                 1.0624                 1.0673
 Frc consts  --      1.4035                 1.4123                 1.4218
 IR Inten    --      8.0667                 0.6288                 5.3691

                     76                     77                     78
                      A                      A                      A
 Frequencies --   1505.5367              1512.8912              2943.0242
 Red. masses --      1.0664                 1.0850                 1.0711
 Frc consts  --      1.4242                 1.4632                 5.4659
 IR Inten    --      2.4547                 3.7475                40.4486

                     79                     80                     81
                      A                      A                      A
 Frequencies --   2955.1784              2976.6995              3009.5415
 Red. masses --      1.0694                 1.0828                 1.0640
 Frc consts  --      5.5025                 5.6529                 5.6778
 IR Inten    --     53.4641                10.6211                15.3666

                     82                     83                     84
                      A                      A                      A
 Frequencies --   3012.0770              3017.8923              3025.8757
 Red. masses --      1.0821                 1.0754                 1.0416
 Frc consts  --      5.7843                 5.7707                 5.6191
 IR Inten    --     24.2603                16.3281                21.8766

                     85                     86                     87
                      A                      A                      A
 Frequencies --   3028.3951              3030.4067              3034.0710
 Red. masses --      1.0649                 1.0393                 1.0693
 Frc consts  --      5.7542                 5.6231                 5.7996
 IR Inten    --      7.3115                26.0477                 5.7316

                     88                     89                     90
                      A                      A                      A
 Frequencies --   3036.0827              3043.6555              3058.3981
 Red. masses --      1.0684                 1.0790                 1.0931
 Frc consts  --      5.8023                 5.8894                 6.0239
 IR Inten    --     44.9734                75.4747                25.9088

                     91                     92                     93
                      A                      A                      A
 Frequencies --   3059.3467              3063.8951              3067.6480
 Red. masses --      1.0966                 1.0971                 1.0915
 Frc consts  --      6.0472                 6.0682                 6.0517
 IR Inten    --     38.6070                27.5436                47.8218

                     94                     95                     96
                      A                      A                      A
 Frequencies --   3080.0574              3088.9718              3091.0002
 Red. masses --      1.0959                 1.0997                 1.0985
 Frc consts  --      6.1253                 6.1825                 6.1837
 IR Inten    --     40.1432                28.7084                53.1525

                     97                     98                     99
                      A                      A                      A
 Frequencies --   3096.5701              3106.3851              3111.3149
 Red. masses --      1.1007                 1.1002                 1.0996
 Frc consts  --      6.2184                 6.2552                 6.2716
 IR Inten    --     48.3765                47.5525                29.1863

 - Thermochemistry -
 -------------------
 Temperature   298.150 Kelvin.  Pressure   1.00000 Atm.
 Atom     1 has atomic number  6 and mass  12.00000

 Molecular mass:   182.16707 amu.
 Principal axes and moments of inertia in atomic units:
                           1         2         3
     Eigenvalues --  1625.096212962.245633774.30837
           X            0.99983   0.01068   0.01520
           Y           -0.01053   0.99990  -0.00941
           Z           -0.01530   0.00925   0.99984
 This molecule is an asymmetric top.
 Rotational symmetry number  1.
 Warning -- assumption of classical behavior for rotation
           may cause significant error
 Rotational temperatures (Kelvin)      0.05330     0.02924     0.02295
 Rotational constants (GHZ):           1.11054     0.60925     0.47816
 Zero-point vibrational energy     848908.5 (Joules/Mol)
                                  202.89400 (Kcal/Mol)
 Warning -- explicit consideration of  20 degrees of freedom as
           vibrations may cause significant error
 Vibrational temperatures:     70.96   112.46   157.59   209.91   255.97
          (Kelvin)            297.09   315.59   364.13   388.11   392.76
                              420.22   477.01   528.05   541.06   565.90
                              650.19   672.96   724.37   821.72   862.27
                             1030.37  1053.19  1111.59  1200.06  1223.43
                             1233.26  1265.22  1291.88  1346.13  1374.95
                             1406.02  1415.92  1429.55  1445.89  1478.23
                             1492.49  1520.90  1550.31  1558.12  1567.87
                             1595.00  1632.57  1669.76  1679.31  1698.09
                             1739.86  1743.04  1783.66  1819.64  1830.46
                             1855.85  1877.55  1895.58  1907.43  1924.85
                             1931.28  1933.90  1945.70  1954.55  1969.36
                             2004.43  2005.85  2013.60  2020.41  2032.90
                             2034.86  2056.44  2118.51  2134.24  2140.61
                             2143.52  2152.18  2157.62  2161.18  2163.45
                             2166.13  2176.71  4234.36  4251.84  4282.81
                             4330.06  4333.71  4342.07  4353.56  4357.19
                             4360.08  4365.35  4368.25  4379.14  4400.35
                             4401.72  4408.26  4413.66  4431.52  4444.34
                             4447.26  4455.27  4469.40  4476.49

 Zero-point correction=                           0.323332 (Hartree/Particle)
 Thermal correction to Energy=                    0.336490
 Thermal correction to Enthalpy=                  0.337434
 Thermal correction to Gibbs Free Energy=         0.284507
 Sum of electronic and zero-point Energies=           -545.462576
 Sum of electronic and thermal Energies=              -545.449418
 Sum of electronic and thermal Enthalpies=            -545.448474
 Sum of electronic and thermal Free Energies=         -545.501401

                     E (Thermal)             CV                S
                      KCal/Mol        Cal/Mol-Kelvin    Cal/Mol-Kelvin
 Total                  211.150             52.639            111.395
 Electronic               0.000              0.000              0.000
 Translational            0.889              2.981             41.506
 Rotational               0.889              2.981             31.275
 Vibrational            209.373             46.678             38.614
 Vibration     1          0.595              1.978              4.844
 Vibration     2          0.599              1.964              3.937
 Vibration     3          0.606              1.942              3.277
 Vibration     4          0.617              1.907              2.725
 Vibration     5          0.628              1.870              2.350
 Vibration     6          0.641              1.831              2.074
 Vibration     7          0.647              1.812              1.965
 Vibration     8          0.664              1.758              1.709
 Vibration     9          0.674              1.729              1.598
 Vibration    10          0.676              1.723              1.577
 Vibration    11          0.687              1.689              1.462
 Vibration    12          0.714              1.613              1.253
 Vibration    13          0.740              1.540              1.092
 Vibration    14          0.747              1.521              1.055
 Vibration    15          0.761              1.484              0.988
 Vibration    16          0.811              1.357              0.790
 Vibration    17          0.825              1.322              0.744
 Vibration    18          0.859              1.242              0.650
 Vibration    19          0.927              1.094              0.502
 Vibration    20          0.957              1.033              0.451

                           ! Non-Optimized Parameters !
 Normal termination of Gaussian 16 at Tue May 23 21:16:51 2023.
