 Gaussian 16, Revision A.03,
 Gaussian 16:  ES64L-G16RevA.03 25-Dec-2016

 -----------------------------
 # opt freq b3lyp/6-31g(2df,p)
 -----------------------------

 -------------------
 Title Card Required
 -------------------
 Symbolic Z-matrix:
 Charge =  0 Multiplicity = 1

 SCF Done:  E(RB3LYP) =  -772.571658010     A.U. after   13 cycles
 SCF Done:  E(RB3LYP) =  -772.579666113     A.U. after   11 cycles
 SCF Done:  E(RB3LYP) =  -772.581062458     A.U. after   10 cycles
 SCF Done:  E(RB3LYP) =  -772.581303564     A.U. after   10 cycles
 SCF Done:  E(RB3LYP) =  -772.581438160     A.U. after   10 cycles
 SCF Done:  E(RB3LYP) =  -772.581534699     A.U. after   12 cycles
 SCF Done:  E(RB3LYP) =  -772.581662039     A.U. after   12 cycles
 SCF Done:  E(RB3LYP) =  -772.581762784     A.U. after   10 cycles
 SCF Done:  E(RB3LYP) =  -772.581810782     A.U. after   10 cycles
 SCF Done:  E(RB3LYP) =  -772.581943319     A.U. after   11 cycles
 SCF Done:  E(RB3LYP) =  -772.581629773     A.U. after   13 cycles
 SCF Done:  E(RB3LYP) =  -772.582038026     A.U. after   12 cycles
 SCF Done:  E(RB3LYP) =  -772.581953623     A.U. after   10 cycles
 SCF Done:  E(RB3LYP) =  -772.582082035     A.U. after   11 cycles
 SCF Done:  E(RB3LYP) =  -772.582084209     A.U. after    9 cycles
 SCF Done:  E(RB3LYP) =  -772.582095312     A.U. after    9 cycles
 SCF Done:  E(RB3LYP) =  -772.582097538     A.U. after    9 cycles
 SCF Done:  E(RB3LYP) =  -772.582097334     A.U. after    8 cycles
 SCF Done:  E(RB3LYP) =  -772.582098381     A.U. after    8 cycles
 Optimization completed.
    -- Stationary point found.
 Normal termination of Gaussian 16 at Wed May 24 06:19:19 2023.

 ----------------------------------------------------------------------
 #N Geom=AllCheck Guess=TCheck SCRF=Check GenChk RB3LYP/6-31G(2df,p) Fr
 eq
 ----------------------------------------------------------------------

 Structure from the checkpoint file:  "CCC1OCqCCCqOrCOOrCCC1C.chk"
 -------------------
 Title Card Required
 -------------------
 Charge =  0 Multiplicity = 1

                         Standard orientation:
 ---------------------------------------------------------------------
 Center     Atomic      Atomic             Coordinates (Angstroms)
 Number     Number       Type             X           Y           Z
 ---------------------------------------------------------------------
      1          6           0       -3.131040    2.895754    0.351989
      2          6           0       -3.539067    1.485448    0.785503
      3          6           0       -3.289991    0.428701   -0.304256
      4          8           0       -1.939085    0.432015   -0.775968
      5          6           0       -0.955441   -0.069149    0.128600
      6          6           0        0.383763    0.096582   -0.589227
      7          6           0        1.605610   -0.228954    0.275287
      8          6           0        2.929249    0.122480   -0.422176
      9          8           0        2.988859    1.488729   -0.808553
     10          6           0        4.123533   -0.270687    0.448426
     11          8           0        5.287209   -0.132617   -0.344990
     12          8           0        6.399911   -0.560443    0.474228
     13          6           0       -1.279341   -1.511682    0.532287
     14          6           0       -2.713875   -1.615187    1.069351
     15          6           0       -3.734282   -0.996917    0.092513
     16          6           0       -3.944207   -1.866058   -1.156452
     17          1           0       -3.318886    3.624191    1.146708
     18          1           0       -3.694179    3.212790   -0.532879
     19          1           0       -2.069688    2.934824    0.093157
     20          1           0       -4.609550    1.464768    1.025406
     21          1           0       -3.019520    1.216528    1.712572
     22          1           0       -3.864779    0.735196   -1.187992
     23          1           0       -0.940826    0.553436    1.040721
     24          1           0        0.458089    1.130191   -0.939362
     25          1           0        0.381488   -0.535841   -1.486115
     26          1           0        1.619944   -1.292600    0.540475
     27          1           0        1.549719    0.325184    1.225308
     28          1           0        3.001088   -0.433486   -1.364653
     29          1           0        2.953419    2.024081   -0.007499
     30          1           0        4.024688   -1.308569    0.793273
     31          1           0        4.181876    0.380488    1.335982
     32          1           0        6.888282    0.271529    0.550256
     33          1           0       -0.569630   -1.855928    1.292748
     34          1           0       -1.149313   -2.159658   -0.343286
     35          1           0       -2.771383   -1.099089    2.035930
     36          1           0       -2.973057   -2.661803    1.265506
     37          1           0       -4.697651   -0.913238    0.611747
     38          1           0       -3.049160   -1.881413   -1.784637
     39          1           0       -4.765847   -1.476742   -1.766887
     40          1           0       -4.189749   -2.898303   -0.885298
 ---------------------------------------------------------------------

 SCF Done:  E(RB3LYP) =  -772.582098381     A.U. after    1 cycles

 The electronic state is 1-A.
 Alpha  occ. eigenvalues --  -19.18957 -19.18747 -19.13826 -19.12910 -10.23789
 Alpha  occ. eigenvalues --  -10.23064 -10.22574 -10.22240 -10.18838 -10.18278
 Alpha  occ. eigenvalues --  -10.17972 -10.17727 -10.17725 -10.17478 -10.16898
 Alpha  occ. eigenvalues --  -10.16845  -1.11325  -1.02213  -1.02135  -0.90848
 Alpha  occ. eigenvalues --   -0.80832  -0.80487  -0.77359  -0.74709  -0.71446
 Alpha  occ. eigenvalues --   -0.67744  -0.64834  -0.63163  -0.60923  -0.59173
 Alpha  occ. eigenvalues --   -0.58148  -0.53338  -0.52507  -0.49312  -0.49060
 Alpha  occ. eigenvalues --   -0.48394  -0.46609  -0.45842  -0.45377  -0.44773
 Alpha  occ. eigenvalues --   -0.43846  -0.43255  -0.42099  -0.40853  -0.39693
 Alpha  occ. eigenvalues --   -0.39270  -0.38633  -0.38027  -0.37393  -0.36345
 Alpha  occ. eigenvalues --   -0.36060  -0.35582  -0.34729  -0.33727  -0.33720
 Alpha  occ. eigenvalues --   -0.32346  -0.31947  -0.31806  -0.31022  -0.30018
 Alpha  occ. eigenvalues --   -0.27923  -0.27020  -0.25748  -0.24230
 Alpha virt. eigenvalues --    0.03332   0.06643   0.07639   0.08892   0.09360
 Alpha virt. eigenvalues --    0.10713   0.10906   0.11798   0.12288   0.12512
 Alpha virt. eigenvalues --    0.13651   0.13996   0.14941   0.15540   0.15645

 Mulliken charges:
               1
     1  C   -0.382560
     2  C   -0.206661
     3  C    0.138983
     4  O   -0.288789
     5  C    0.125625
     6  C   -0.209393
     7  C   -0.226665
     8  C    0.087628
     9  O   -0.420526
    10  C   -0.016249
    11  O   -0.187648
    12  O   -0.323731
    13  C   -0.202620
    14  C   -0.236274
    15  C    0.019187
    16  C   -0.407073
    17  H    0.106152
    18  H    0.114200
    19  H    0.128413
    20  H    0.094014
    21  H    0.096232
    22  H    0.071856
    23  H    0.056462
    24  H    0.117676
    25  H    0.100469
    26  H    0.104467
    27  H    0.084851
    28  H    0.106659
    29  H    0.276638
    30  H    0.104076
    31  H    0.076262
    32  H    0.311641
    33  H    0.092201
    34  H    0.100176
    35  H    0.093663
    36  H    0.091300
    37  H    0.065007
    38  H    0.128611
    39  H    0.110312
    40  H    0.105426
 Sum of Mulliken charges =   0.00000

 Dipole moment (field-independent basis, Debye):
    X=             -1.0773    Y=              0.3411    Z=              3.0421  Tot=              3.2452
 Quadrupole moment (field-independent basis, Debye-Ang):
   XX=            -98.5000   YY=            -98.4850   ZZ=           -101.5173
   XY=              7.7506   XZ=              7.2911   YZ=              4.3684

  Exact polarizability: 180.273   0.008 140.736   5.018   1.330 122.752
 Approx polarizability: 212.900  -2.009 199.137   5.854  -0.038 198.141

                      1                      2                      3
                      A                      A                      A
 Frequencies --     25.0684                29.9162                54.2453
 Red. masses --      4.6262                 3.8841                 4.2330
 Frc consts  --      0.0017                 0.0020                 0.0073
 IR Inten    --      0.7971                 1.6306                 0.3311

                      4                      5                      6
                      A                      A                      A
 Frequencies --     65.5573                83.2454                91.5283
 Red. masses --      3.3450                 2.6085                 5.0060
 Frc consts  --      0.0085                 0.0107                 0.0247
 IR Inten    --      0.7187                 0.3407                 6.2443

                      7                      8                      9
                      A                      A                      A
 Frequencies --    108.5149               135.1477               153.3188
 Red. masses --      2.7067                 2.0388                 2.7070
 Frc consts  --      0.0188                 0.0219                 0.0375
 IR Inten    --      1.0539                 0.4527                 0.7197

                     10                     11                     12
                      A                      A                      A
 Frequencies --    160.2851               178.9891               201.9216
 Red. masses --      4.3920                 1.6167                 1.0990
 Frc consts  --      0.0665                 0.0305                 0.0264
 IR Inten    --      0.6201                 0.1739               127.8950

                     13                     14                     15
                      A                      A                      A
 Frequencies --    206.3383               217.0693               233.6171
 Red. masses --      1.4926                 2.1467                 1.8539
 Frc consts  --      0.0374                 0.0596                 0.0596
 IR Inten    --      0.4014                 1.4853                 3.9265

                     16                     17                     18
                      A                      A                      A
 Frequencies --    247.2946               274.6883               278.9536
 Red. masses --      1.9781                 1.1280                 4.0698
 Frc consts  --      0.0713                 0.0501                 0.1866
 IR Inten    --      3.0837                90.0217                19.8090

                     19                     20                     21
                      A                      A                      A
 Frequencies --    298.1418               334.2398               370.3191
 Red. masses --      3.1026                 2.3183                 5.0433
 Frc consts  --      0.1625                 0.1526                 0.4075
 IR Inten    --      3.2753                 0.0947                 2.2734

                     22                     23                     24
                      A                      A                      A
 Frequencies --    413.6613               436.7772               456.7053
 Red. masses --      2.8811                 2.9157                 2.2127
 Frc consts  --      0.2905                 0.3277                 0.2719
 IR Inten    --      0.5791                 3.3712                 2.9645

                     25                     26                     27
                      A                      A                      A
 Frequencies --    476.9535               501.7697               515.4601
 Red. masses --      2.9683                 3.6283                 2.6845
 Frc consts  --      0.3978                 0.5382                 0.4203
 IR Inten    --      5.1941                 8.6761                 3.8032

                     28                     29                     30
                      A                      A                      A
 Frequencies --    549.1757               600.5708               691.7491
 Red. masses --      2.4510                 3.1617                 1.8242
 Frc consts  --      0.4355                 0.6719                 0.5143
 IR Inten    --      7.9006                23.7232                 0.4754

                     31                     32                     33
                      A                      A                      A
 Frequencies --    759.9534               773.4008               796.7488
 Red. masses --      1.6245                 1.8087                 1.6646
 Frc consts  --      0.5528                 0.6374                 0.6226
 IR Inten    --      0.2685                 0.8728                 0.5127

                     34                     35                     36
                      A                      A                      A
 Frequencies --    839.0146               865.8363               893.1353
 Red. masses --      2.0504                 2.1270                 2.8714
 Frc consts  --      0.8504                 0.9395                 1.3495
 IR Inten    --      2.2785                 4.9985                23.3185

                     37                     38                     39
                      A                      A                      A
 Frequencies --    904.6151               938.3209               947.9674
 Red. masses --      2.0697                 1.5568                 6.1962
 Frc consts  --      0.9979                 0.8076                 3.2807
 IR Inten    --     12.5609                 2.0207                15.5232

                     40                     41                     42
                      A                      A                      A
 Frequencies --    959.5022               972.4348               984.2871
 Red. masses --      2.6857                 2.0313                 1.8306
 Frc consts  --      1.4568                 1.1318                 1.0449
 IR Inten    --      9.5539                15.1903                 4.3138

                     43                     44                     45
                      A                      A                      A
 Frequencies --   1007.6496              1021.8032              1028.3752
 Red. masses --      1.8288                 1.6639                 1.9334
 Frc consts  --      1.0940                 1.0236                 1.2047
 IR Inten    --      4.1777                 2.7153                17.1607

                     46                     47                     48
                      A                      A                      A
 Frequencies --   1033.7805              1064.2288              1066.3100
 Red. masses --      2.6454                 2.5604                 2.0383
 Frc consts  --      1.6657                 1.7086                 1.3655
 IR Inten    --      4.2302                49.7449                 5.3201

                     49                     50                     51
                      A                      A                      A
 Frequencies --   1076.2857              1087.6585              1098.6094
 Red. masses --      2.8690                 2.0109                 1.9606
 Frc consts  --      1.9581                 1.4016                 1.3942
 IR Inten    --     55.8057                22.8172                 8.1309

                     52                     53                     54
                      A                      A                      A
 Frequencies --   1105.9747              1132.5575              1144.2058
 Red. masses --      2.1138                 2.1961                 1.8522
 Frc consts  --      1.5234                 1.6597                 1.4287
 IR Inten    --     50.8454                 8.5302                27.5668

                     55                     56                     57
                      A                      A                      A
 Frequencies --   1154.5505              1176.6058              1196.1816
 Red. masses --      2.9352                 2.2124                 1.8773
 Frc consts  --      2.3053                 1.8045                 1.5826
 IR Inten    --      4.3981                35.2433                 2.3613

                     58                     59                     60
                      A                      A                      A
 Frequencies --   1226.0146              1230.5804              1242.0436
 Red. masses --      1.1608                 1.5850                 1.3801
 Frc consts  --      1.0280                 1.4142                 1.2544
 IR Inten    --     12.9504                20.5580                 4.6454

                     61                     62                     63
                      A                      A                      A
 Frequencies --   1263.5544              1293.2177              1294.9937
 Red. masses --      1.2624                 1.2615                 1.2281
 Frc consts  --      1.1875                 1.2430                 1.2134
 IR Inten    --      6.4044                 1.9060                 5.6975

                     64                     65                     66
                      A                      A                      A
 Frequencies --   1305.7445              1315.8632              1339.2608
 Red. masses --      1.2014                 1.2808                 1.5145
 Frc consts  --      1.2068                 1.3066                 1.6004
 IR Inten    --      2.3156                 2.8993                 1.5223

                     67                     68                     69
                      A                      A                      A
 Frequencies --   1342.4522              1356.2630              1361.5643
 Red. masses --      1.2960                 1.2886                 1.3675
 Frc consts  --      1.3761                 1.3965                 1.4936
 IR Inten    --      1.7123                 5.5835                 4.8227

                     70                     71                     72
                      A                      A                      A
 Frequencies --   1376.4749              1379.4576              1384.8169
 Red. masses --      1.2938                 1.3457                 1.2538
 Frc consts  --      1.4443                 1.5088                 1.4167
 IR Inten    --      5.4895                35.5910                16.4403

                     73                     74                     75
                      A                      A                      A
 Frequencies --   1393.8165              1396.6637              1403.6676
 Red. masses --      1.4522                 1.4354                 1.3891
 Frc consts  --      1.6622                 1.6498                 1.6125
 IR Inten    --      1.6521                 7.2313                 3.0141

                     76                     77                     78
                      A                      A                      A
 Frequencies --   1404.6236              1407.2124              1409.6382
 Red. masses --      1.4494                 1.4050                 1.2974
 Frc consts  --      1.6848                 1.6392                 1.5190
 IR Inten    --      6.8861                13.2097                 3.9378

                     79                     80                     81
                      A                      A                      A
 Frequencies --   1414.9260              1425.0935              1477.7608
 Red. masses --      1.2696                 1.2022                 1.0818
 Frc consts  --      1.4976                 1.4385                 1.3919
 IR Inten    --      1.9319                37.7530                 0.3859

                     82                     83                     84
                      A                      A                      A
 Frequencies --   1480.7077              1485.9859              1491.2031
 Red. masses --      1.0838                 1.0712                 1.0685
 Frc consts  --      1.4000                 1.3936                 1.3999
 IR Inten    --      1.2241                 1.1905                 3.6228

                     85                     86                     87
                      A                      A                      A
 Frequencies --   1494.8326              1499.9660              1502.4973
 Red. masses --      1.0404                 1.0736                 1.0936
 Frc consts  --      1.3697                 1.4232                 1.4546
 IR Inten    --      3.6733                 5.5576                 3.3208

                     88                     89                     90
                      A                      A                      A
 Frequencies --   1506.8018              1509.8407              1512.4155
 Red. masses --      1.0645                 1.0561                 1.0876
 Frc consts  --      1.4240                 1.4185                 1.4657
 IR Inten    --      5.1763                 4.3305                 7.3342

                     91                     92                     93
                      A                      A                      A
 Frequencies --   2940.9917              2970.8392              2991.2188
 Red. masses --      1.0804                 1.0638                 1.0675
 Frc consts  --      5.5060                 5.5317                 5.6277
 IR Inten    --     32.2579                29.9757                26.4116

                     94                     95                     96
                      A                      A                      A
 Frequencies --   3012.9276              3015.7439              3024.0958
 Red. masses --      1.0778                 1.0813                 1.0641
 Frc consts  --      5.7644                 5.7939                 5.7337
 IR Inten    --      3.3007                28.1885                12.9555

                     97                     98                     99
                      A                      A                      A
 Frequencies --   3027.2601              3031.5040              3031.9101
 Red. masses --      1.0597                 1.0566                 1.0834
 Frc consts  --      5.7220                 5.7210                 5.8677
 IR Inten    --     21.2003                37.0635                23.9531

                    100                    101                    102
                      A                      A                      A
 Frequencies --   3035.1156              3035.6374              3036.1980
 Red. masses --      1.0644                 1.0561                 1.0429
 Frc consts  --      5.7772                 5.7340                 5.6643
 IR Inten    --     62.2488                18.5629                13.7787

                    103                    104                    105
                      A                      A                      A
 Frequencies --   3048.1594              3058.2595              3062.5673
 Red. masses --      1.0849                 1.0979                 1.0950
 Frc consts  --      5.9390                 6.0501                 6.0513
 IR Inten    --      6.6824                37.3252                36.0262

                    106                    107                    108
                      A                      A                      A
 Frequencies --   3064.5382              3075.0657              3095.4560
 Red. masses --      1.0956                 1.1023                 1.1012
 Frc consts  --      6.0620                 6.1413                 6.2165
 IR Inten    --     38.9726                53.3504                19.2873

                    109                    110                    111
                      A                      A                      A
 Frequencies --   3096.0895              3100.5460              3114.1359
 Red. masses --      1.0980                 1.1008                 1.1000
 Frc consts  --      6.2011                 6.2349                 6.2851
 IR Inten    --     40.4004                45.2028                24.6690

                    112                    113                    114
                      A                      A                      A
 Frequencies --   3118.9992              3755.9487              3791.7311
 Red. masses --      1.1007                 1.0686                 1.0658
 Frc consts  --      6.3091                 8.8819                 9.0279
 IR Inten    --     36.1472                36.0382                11.1290

 - Thermochemistry -
 -------------------
 Temperature   298.150 Kelvin.  Pressure   1.00000 Atm.
 Atom     1 has atomic number  6 and mass  12.00000

 Molecular mass:   232.16746 amu.
 Principal axes and moments of inertia in atomic units:
                           1         2         3
     Eigenvalues --  1702.69903********************
           X            1.00000   0.00059   0.00242
           Y           -0.00065   0.99969   0.02470
           Z           -0.00240  -0.02470   0.99969
 This molecule is an asymmetric top.
 Rotational symmetry number  1.
 Warning -- assumption of classical behavior for rotation
           may cause significant error
 Rotational temperatures (Kelvin)      0.05087     0.00837     0.00770
 Rotational constants (GHZ):           1.05993     0.17447     0.16039
 Zero-point vibrational energy     932406.0 (Joules/Mol)
                                  222.85038 (Kcal/Mol)
 Warning -- explicit consideration of  29 degrees of freedom as
           vibrations may cause significant error
 Vibrational temperatures:     36.07    43.04    78.05    94.32   119.77
          (Kelvin)            131.69   156.13   194.45   220.59   230.61
                              257.53   290.52   296.87   312.31   336.12
                              355.80   395.22   401.35   428.96   480.90
                              532.81   595.17   628.42   657.10   686.23
                              721.93   741.63   790.14   864.09   995.27
                             1093.40  1112.75  1146.34  1207.15  1245.75
                             1285.02  1301.54  1350.03  1363.91  1380.51
                             1399.12  1416.17  1449.78  1470.15  1479.60
                             1487.38  1531.19  1534.18  1548.54  1564.90
                             1580.65  1591.25  1629.50  1646.26  1661.14
                             1692.87  1721.04  1763.96  1770.53  1787.02
                             1817.97  1860.65  1863.21  1878.68  1893.23
                             1926.90  1931.49  1951.36  1958.99  1980.44
                             1984.73  1992.44  2005.39  2009.49  2019.56
                             2020.94  2024.66  2028.15  2035.76  2050.39
                             2126.17  2130.41  2138.00  2145.51  2150.73
                             2158.12  2161.76  2167.95  2172.32  2176.03
                             4231.43  4274.37  4303.70  4334.93  4338.98
                             4351.00  4355.55  4361.66  4362.24  4366.85
                             4367.61  4368.41  4385.62  4400.15  4406.35
                             4409.19  4424.33  4453.67  4454.58  4460.99
                             4480.55  4487.54  5403.97  5455.46

 Zero-point correction=                           0.355135 (Hartree/Particle)
 Thermal correction to Energy=                    0.374155
 Thermal correction to Enthalpy=                  0.375100
 Thermal correction to Gibbs Free Energy=         0.306724
 Sum of electronic and zero-point Energies=           -772.226964
 Sum of electronic and thermal Energies=              -772.207943
 Sum of electronic and thermal Enthalpies=            -772.206999
 Sum of electronic and thermal Free Energies=         -772.275375

                     E (Thermal)             CV                S
                      KCal/Mol        Cal/Mol-Kelvin    Cal/Mol-Kelvin
 Total                  234.786             69.966            143.909
 Electronic               0.000              0.000              0.000
 Translational            0.889              2.981             42.229
 Rotational               0.889              2.981             33.649
 Vibrational            233.009             64.005             68.031
 Vibration     1          0.593              1.985              6.186
 Vibration     2          0.594              1.984              5.835
 Vibration     3          0.596              1.976              4.656
 Vibration     4          0.597              1.971              4.283
 Vibration     5          0.600              1.961              3.813
 Vibration     6          0.602              1.955              3.627
 Vibration     7          0.606              1.942              3.295
 Vibration     8          0.613              1.918              2.871
 Vibration     9          0.619              1.899              2.631
 Vibration    10          0.622              1.891              2.546
 Vibration    11          0.629              1.868              2.339
 Vibration    12          0.639              1.837              2.116
 Vibration    13          0.641              1.831              2.076
 Vibration    14          0.646              1.815              1.983
 Vibration    15          0.654              1.789              1.851
 Vibration    16          0.661              1.767              1.750
 Vibration    17          0.677              1.720              1.567
 Vibration    18          0.679              1.712              1.540
 Vibration    19          0.691              1.677              1.427
 Vibration    20          0.716              1.607              1.240
 Vibration    21          0.742              1.533              1.078
 Vibration    22          0.777              1.441              0.914
 Vibration    23          0.797              1.390              0.837
 Vibration    24          0.815              1.346              0.776
 Vibration    25          0.834              1.301              0.718
 Vibration    26          0.857              1.246              0.654
 Vibration    27          0.870              1.216              0.621
 Vibration    28          0.904              1.141              0.546
 Vibration    29          0.959              1.031              0.449

 Optimization completed.
    -- Stationary point found.
 Normal termination of Gaussian 16 at Wed May 24 09:55:52 2023.
