 Gaussian 16, Revision A.03,
 Gaussian 16:  ES64L-G16RevA.03 25-Dec-2016

 -----------------------------
 # opt freq b3lyp/6-31g(2df,p)
 -----------------------------

 -------------------
 Title Card Required
 -------------------
 Symbolic Z-matrix:
 Charge =  0 Multiplicity = 1

 SCF Done:  E(RB3LYP) =  -622.993042650     A.U. after   13 cycles
 SCF Done:  E(RB3LYP) =  -623.049893662     A.U. after   11 cycles
 SCF Done:  E(RB3LYP) =  -623.104387014     A.U. after   12 cycles
 SCF Done:  E(RB3LYP) =  -623.134482731     A.U. after   11 cycles
 SCF Done:  E(RB3LYP) =  -623.155502074     A.U. after   12 cycles
 SCF Done:  E(RB3LYP) =  -623.168672857     A.U. after   11 cycles
 SCF Done:  E(RB3LYP) =  -623.177644974     A.U. after   11 cycles
 SCF Done:  E(RB3LYP) =  -623.179735868     A.U. after   10 cycles
 SCF Done:  E(RB3LYP) =  -623.180629088     A.U. after   10 cycles
 SCF Done:  E(RB3LYP) =  -623.181491642     A.U. after   10 cycles
 SCF Done:  E(RB3LYP) =  -623.184180061     A.U. after   10 cycles
 SCF Done:  E(RB3LYP) =  -623.184420814     A.U. after   10 cycles
 SCF Done:  E(RB3LYP) =  -623.184394823     A.U. after    9 cycles
 SCF Done:  E(RB3LYP) =  -623.184445188     A.U. after   10 cycles
 SCF Done:  E(RB3LYP) =  -623.184424644     A.U. after    9 cycles
 SCF Done:  E(RB3LYP) =  -623.184446691     A.U. after    9 cycles
 SCF Done:  E(RB3LYP) =  -623.184447316     A.U. after    7 cycles
 SCF Done:  E(RB3LYP) =  -623.184447248     A.U. after    7 cycles
 SCF Done:  E(RB3LYP) =  -623.184447506     A.U. after    7 cycles
 Optimization completed.
    -- Stationary point found.
 Normal termination of Gaussian 16 at Mon May 29 04:14:57 2023.

 ----------------------------------------------------------------------
 #N Geom=AllCheck Guess=TCheck SCRF=Check GenChk RB3LYP/6-31G(2df,p) Fr
 eq
 ----------------------------------------------------------------------

 Structure from the checkpoint file:  "CCC1CC2CCdC1CCCCCC2O.chk"
 -------------------
 Title Card Required
 -------------------
 Charge =  0 Multiplicity = 1

                         Standard orientation:
 ---------------------------------------------------------------------
 Center     Atomic      Atomic             Coordinates (Angstroms)
 Number     Number       Type             X           Y           Z
 ---------------------------------------------------------------------
      1          6           0        3.754876   -0.659580   -0.781928
      2          6           0        2.572458   -1.517285   -0.323418
      3          6           0        1.161681   -0.875021   -0.415518
      4          6           0        0.100274   -1.994090   -0.191359
      5          6           0       -1.127881   -1.603357    0.648227
      6          6           0       -0.625906   -0.956828    1.952546
      7          6           0        0.277376    0.206326    1.646347
      8          6           0        0.991071    0.309616    0.521348
      9          6           0        1.568243    1.649636    0.085573
     10          6           0        0.599238    2.843729    0.224941
     11          6           0       -0.715690    2.806245   -0.583994
     12          6           0       -1.804684    1.799094   -0.131628
     13          6           0       -1.823081    0.459373   -0.908059
     14          6           0       -2.225000   -0.809255   -0.120709
     15          8           0       -2.893381   -1.722194   -1.001440
     16          1           0        4.678519   -1.247311   -0.768031
     17          1           0        3.911403    0.209801   -0.138386
     18          1           0        3.612281   -0.296076   -1.805950
     19          1           0        2.733318   -1.844183    0.711969
     20          1           0        2.550014   -2.431191   -0.931833
     21          1           0        1.066739   -0.497795   -1.443865
     22          1           0        0.584132   -2.830472    0.327606
     23          1           0       -0.205999   -2.400165   -1.163473
     24          1           0       -1.643762   -2.533475    0.913291
     25          1           0       -0.122388   -1.725232    2.557136
     26          1           0       -1.471570   -0.612322    2.560704
     27          1           0        0.218891    1.059251    2.318002
     28          1           0        1.883196    1.577861   -0.962220
     29          1           0        2.481171    1.886752    0.648438
     30          1           0        1.149553    3.743740   -0.078716
     31          1           0        0.353702    2.994763    1.283399
     32          1           0       -0.488922    2.646231   -1.647299
     33          1           0       -1.139820    3.815784   -0.526022
     34          1           0       -2.786078    2.270408   -0.258844
     35          1           0       -1.703752    1.621513    0.941914
     36          1           0       -0.862882    0.295656   -1.403857
     37          1           0       -2.559540    0.544826   -1.714929
     38          1           0       -2.999810   -0.534386    0.607055
     39          1           0       -2.309207   -1.888046   -1.748782
 ---------------------------------------------------------------------

 SCF Done:  E(RB3LYP) =  -623.184447506     A.U. after    1 cycles

 The electronic state is 1-A.
 Alpha  occ. eigenvalues --  -19.12397 -10.22205 -10.18649 -10.18034 -10.17915
 Alpha  occ. eigenvalues --  -10.17825 -10.17800 -10.17789 -10.17745 -10.17658
 Alpha  occ. eigenvalues --  -10.17635 -10.17354 -10.17219 -10.17077 -10.16667
 Alpha  occ. eigenvalues --   -1.00549  -0.84262  -0.79473  -0.78387  -0.76657
 Alpha  occ. eigenvalues --   -0.72528  -0.71566  -0.70120  -0.63334  -0.62481
 Alpha  occ. eigenvalues --   -0.61467  -0.58931  -0.56191  -0.55100  -0.50710
 Alpha  occ. eigenvalues --   -0.48060  -0.46767  -0.45949  -0.44845  -0.44337
 Alpha  occ. eigenvalues --   -0.43297  -0.43059  -0.41435  -0.40374  -0.40125
 Alpha  occ. eigenvalues --   -0.39918  -0.38726  -0.37976  -0.36750  -0.36334
 Alpha  occ. eigenvalues --   -0.35778  -0.34281  -0.34020  -0.33238  -0.32848
 Alpha  occ. eigenvalues --   -0.32426  -0.31708  -0.31027  -0.30049  -0.29175
 Alpha  occ. eigenvalues --   -0.28515  -0.25450  -0.22369
 Alpha virt. eigenvalues --    0.01815   0.06736   0.08348   0.08555   0.10449
 Alpha virt. eigenvalues --    0.10927   0.11450   0.12554   0.13364   0.13621
 Alpha virt. eigenvalues --    0.14173   0.14769   0.16059   0.16602   0.16816

 Mulliken charges:
               1
     1  C   -0.394739
     2  C   -0.183065
     3  C   -0.066897
     4  C   -0.252570
     5  C   -0.001989
     6  C   -0.289693
     7  C   -0.156479
     8  C    0.322429
     9  C   -0.292830
    10  C   -0.195418
    11  C   -0.189930
    12  C   -0.181272
    13  C   -0.214514
    14  C    0.101041
    15  O   -0.439600
    16  H    0.110459
    17  H    0.124098
    18  H    0.111305
    19  H    0.098906
    20  H    0.093316
    21  H    0.068575
    22  H    0.097029
    23  H    0.078678
    24  H    0.077963
    25  H    0.101136
    26  H    0.095586
    27  H    0.077209
    28  H    0.095609
    29  H    0.105939
    30  H    0.088683
    31  H    0.097340
    32  H    0.088787
    33  H    0.092478
    34  H    0.089269
    35  H    0.098886
    36  H    0.094215
    37  H    0.096533
    38  H    0.078467
    39  H    0.275058
 Sum of Mulliken charges =  -0.00000

 Dipole moment (field-independent basis, Debye):
    X=              1.5203    Y=              0.6012    Z=             -0.2341  Tot=              1.6515
 Quadrupole moment (field-independent basis, Debye-Ang):
   XX=           -101.8956   YY=            -94.5926   ZZ=            -91.5466
   XY=             -4.1664   XZ=             -1.9637   YZ=              0.7627

  Exact polarizability: 156.576   1.052 153.102  -7.180  -0.928 132.593
 Approx polarizability: 214.148   3.027 210.310 -16.874  -0.014 224.522

                      1                      2                      3
                      A                      A                      A
 Frequencies --     47.2212                65.2376               114.5185
 Red. masses --      3.2127                 3.0503                 2.1241
 Frc consts  --      0.0042                 0.0076                 0.0164
 IR Inten    --      0.2693                 0.3391                 1.0423

                      4                      5                      6
                      A                      A                      A
 Frequencies --    144.2052               175.2794               187.9648
 Red. masses --      2.7108                 2.5629                 3.3229
 Frc consts  --      0.0332                 0.0464                 0.0692
 IR Inten    --      2.4655                 1.0625                 3.2659

                      7                      8                      9
                      A                      A                      A
 Frequencies --    223.7853               230.9395               241.1586
 Red. masses --      2.5362                 2.3919                 1.1624
 Frc consts  --      0.0748                 0.0752                 0.0398
 IR Inten    --      1.6939                 8.8759                71.3317

                     10                     11                     12
                      A                      A                      A
 Frequencies --    252.3227               261.1272               292.1951
 Red. masses --      1.8788                 2.0866                 2.2273
 Frc consts  --      0.0705                 0.0838                 0.1120
 IR Inten    --      0.3608                 0.0872                 6.8347

                     13                     14                     15
                      A                      A                      A
 Frequencies --    297.0818               324.2490               331.9168
 Red. masses --      2.0032                 1.8238                 2.2530
 Frc consts  --      0.1042                 0.1130                 0.1462
 IR Inten    --      0.3534                 0.1661                 0.8831

                     16                     17                     18
                      A                      A                      A
 Frequencies --    351.4006               380.9767               395.7487
 Red. masses --      2.4107                 2.9923                 3.7709
 Frc consts  --      0.1754                 0.2559                 0.3480
 IR Inten    --      1.2689                 0.3816                 0.9906

                     19                     20                     21
                      A                      A                      A
 Frequencies --    437.3866               470.8269               500.1106
 Red. masses --      2.6543                 1.9051                 3.3555
 Frc consts  --      0.2992                 0.2488                 0.4945
 IR Inten    --     10.0027                 0.3161                 0.6620

                     22                     23                     24
                      A                      A                      A
 Frequencies --    546.2154               592.4275               628.3228
 Red. masses --      3.9920                 3.4341                 2.4718
 Frc consts  --      0.7017                 0.7101                 0.5749
 IR Inten    --      2.0802                 0.3767                 1.6071

                     25                     26                     27
                      A                      A                      A
 Frequencies --    698.8961               714.7195               764.8325
 Red. masses --      2.2536                 1.8757                 2.4661
 Frc consts  --      0.6486                 0.5645                 0.8500
 IR Inten    --      3.0719                 0.9273                 6.6268

                     28                     29                     30
                      A                      A                      A
 Frequencies --    784.5848               800.6671               825.5183
 Red. masses --      2.6660                 1.3220                 1.5537
 Frc consts  --      0.9669                 0.4993                 0.6239
 IR Inten    --      1.4317                 1.0540                 2.4551

                     31                     32                     33
                      A                      A                      A
 Frequencies --    861.7360               871.5243               895.6952
 Red. masses --      1.5443                 1.7267                 1.9669
 Frc consts  --      0.6757                 0.7727                 0.9297
 IR Inten    --      2.6214                 3.7504                 3.2440

                     34                     35                     36
                      A                      A                      A
 Frequencies --    901.6357               931.4882               941.8665
 Red. masses --      2.3959                 2.0921                 2.0020
 Frc consts  --      1.1476                 1.0695                 1.0464
 IR Inten    --      4.0372                 3.0967                12.5862

                     37                     38                     39
                      A                      A                      A
 Frequencies --    952.7846               972.1374               992.2948
 Red. masses --      2.2755                 2.4215                 2.2077
 Frc consts  --      1.2171                 1.3483                 1.2808
 IR Inten    --      1.1707                 8.4674                 3.5853

                     40                     41                     42
                      A                      A                      A
 Frequencies --   1003.7764              1035.1692              1044.1141
 Red. masses --      2.6364                 2.4675                 1.9784
 Frc consts  --      1.5651                 1.5579                 1.2708
 IR Inten    --     39.5397                30.6438                 4.4751

                     43                     44                     45
                      A                      A                      A
 Frequencies --   1058.6317              1065.7470              1075.4684
 Red. masses --      2.1414                 2.5479                 2.7731
 Frc consts  --      1.4140                 1.7050                 1.8898
 IR Inten    --      1.3847                 0.2485                17.4725

                     46                     47                     48
                      A                      A                      A
 Frequencies --   1093.5379              1099.8002              1117.1938
 Red. masses --      2.1052                 2.0161                 1.9953
 Frc consts  --      1.4832                 1.4368                 1.4673
 IR Inten    --      7.6159                 4.6416                 9.6889

                     49                     50                     51
                      A                      A                      A
 Frequencies --   1121.7055              1137.7635              1154.2488
 Red. masses --      2.1907                 1.8507                 2.2918
 Frc consts  --      1.6240                 1.4115                 1.7990
 IR Inten    --      0.6525                 0.5351                 2.2151

                     52                     53                     54
                      A                      A                      A
 Frequencies --   1175.3233              1195.5497              1205.7488
 Red. masses --      1.1151                 1.2404                 1.1594
 Frc consts  --      0.9076                 1.0446                 0.9931
 IR Inten    --      3.2282                 0.2801                 1.3278

                     55                     56                     57
                      A                      A                      A
 Frequencies --   1237.2081              1248.8569              1257.7260
 Red. masses --      1.3165                 1.3044                 1.3330
 Frc consts  --      1.1873                 1.1986                 1.2423
 IR Inten    --     13.5632                 5.3007                 1.5020

                     58                     59                     60
                      A                      A                      A
 Frequencies --   1277.0057              1287.8121              1298.0974
 Red. masses --      1.2323                 1.2594                 1.2318
 Frc consts  --      1.1840                 1.2306                 1.2229
 IR Inten    --      2.9859                 4.9935                 4.0164

                     61                     62                     63
                      A                      A                      A
 Frequencies --   1315.6217              1322.2011              1338.4868
 Red. masses --      1.2101                 1.1969                 1.3803
 Frc consts  --      1.2341                 1.2329                 1.4570
 IR Inten    --      2.8110                 0.8306                 1.1576

                     64                     65                     66
                      A                      A                      A
 Frequencies --   1340.4848              1354.1187              1362.5228
 Red. masses --      1.2913                 1.4678                 1.3481
 Frc consts  --      1.3671                 1.5857                 1.4745
 IR Inten    --      2.5532                 0.8791                 2.8305

                     67                     68                     69
                      A                      A                      A
 Frequencies --   1366.0294              1375.4857              1380.4010
 Red. masses --      1.3267                 1.3368                 1.3756
 Frc consts  --      1.4586                 1.4901                 1.5443
 IR Inten    --     11.5048                 2.6256                 1.0426

                     70                     71                     72
                      A                      A                      A
 Frequencies --   1384.1768              1387.6375              1391.3654
 Red. masses --      1.3526                 1.3647                 1.4147
 Frc consts  --      1.5269                 1.5483                 1.6136
 IR Inten    --      4.4029                 5.0482                 1.0812

                     73                     74                     75
                      A                      A                      A
 Frequencies --   1404.6854              1406.6530              1414.8844
 Red. masses --      1.3641                 1.4527                 1.3195
 Frc consts  --      1.5858                 1.6935                 1.5564
 IR Inten    --      8.2870                 2.8814                 2.7656

                     76                     77                     78
                      A                      A                      A
 Frequencies --   1423.6213              1475.9376              1479.4491
 Red. masses --      1.2655                 1.0848                 1.0900
 Frc consts  --      1.5112                 1.3923                 1.4056
 IR Inten    --     41.3694                 2.7415                 5.0012

                     79                     80                     81
                      A                      A                      A
 Frequencies --   1482.8792              1485.1804              1490.5002
 Red. masses --      1.0819                 1.0833                 1.0886
 Frc consts  --      1.4017                 1.4078                 1.4249
 IR Inten    --      0.2487                 2.9389                 2.2081

                     82                     83                     84
                      A                      A                      A
 Frequencies --   1494.4225              1498.2857              1499.5746
 Red. masses --      1.0842                 1.0730                 1.0463
 Frc consts  --      1.4266                 1.4193                 1.3862
 IR Inten    --      2.2187                 7.4652                 5.5879

                     85                     86                     87
                      A                      A                      A
 Frequencies --   1504.2577              1509.5849              1719.9575
 Red. masses --      1.0843                 1.0563                 6.8932
 Frc consts  --      1.4455                 1.4182                12.0146
 IR Inten    --      5.1592                 6.1785                 0.6840

                     88                     89                     90
                      A                      A                      A
 Frequencies --   2983.9718              2994.0563              3006.0506
 Red. masses --      1.0815                 1.0681                 1.0646
 Frc consts  --      5.6739                 5.6414                 5.6678
 IR Inten    --     17.2616                34.9417                19.4875

                     91                     92                     93
                      A                      A                      A
 Frequencies --   3008.9908              3009.3854              3017.2713
 Red. masses --      1.0626                 1.0626                 1.0662
 Frc consts  --      5.6686                 5.6697                 5.7187
 IR Inten    --     27.5131                 6.6284                20.3336

                     94                     95                     96
                      A                      A                      A
 Frequencies --   3019.8668              3020.0936              3028.0913
 Red. masses --      1.0694                 1.0744                 1.0756
 Frc consts  --      5.7459                 5.7735                 5.8107
 IR Inten    --     25.3123                40.1415                20.2410

                     97                     98                     99
                      A                      A                      A
 Frequencies --   3033.3582              3036.7616              3040.2452
 Red. masses --      1.0404                 1.0877                 1.0868
 Frc consts  --      5.6402                 5.9098                 5.9187
 IR Inten    --     31.6932                30.8424                42.0863

                    100                    101                    102
                      A                      A                      A
 Frequencies --   3043.1091              3044.1898              3048.6353
 Red. masses --      1.0782                 1.0919                 1.1004
 Frc consts  --      5.8830                 5.9617                 6.0256
 IR Inten    --     50.2731                 7.4501                12.6410

                    103                    104                    105
                      A                      A                      A
 Frequencies --   3051.8838              3053.1849              3062.5637
 Red. masses --      1.0984                 1.0887                 1.0979
 Frc consts  --      6.0276                 5.9794                 6.0673
 IR Inten    --     38.0471                63.2480                55.3791

                    106                    107                    108
                      A                      A                      A
 Frequencies --   3091.6814              3094.3745              3098.5432
 Red. masses --      1.0870                 1.1004                 1.0968
 Frc consts  --      6.1215                 6.2079                 6.2040
 IR Inten    --     32.9286                46.0334                36.4823

                    109                    110                    111
                      A                      A                      A
 Frequencies --   3118.1115              3146.3966              3808.0911
 Red. masses --      1.0993                 1.0886                 1.0659
 Frc consts  --      6.2974                 6.3494                 9.1070
 IR Inten    --     31.7814                24.4785                 8.7284

 - Thermochemistry -
 -------------------
 Temperature   298.150 Kelvin.  Pressure   1.00000 Atm.
 Atom     1 has atomic number  6 and mass  12.00000

 Molecular mass:   208.18272 amu.
 Principal axes and moments of inertia in atomic units:
                           1         2         3
     Eigenvalues --  2589.162963211.467894569.69068
           X            0.99798  -0.06152  -0.01573
           Y            0.06148   0.99810  -0.00322
           Z            0.01590   0.00225   0.99987
 This molecule is an asymmetric top.
 Rotational symmetry number  1.
 Warning -- assumption of classical behavior for rotation
           may cause significant error
 Rotational temperatures (Kelvin)      0.03345     0.02697     0.01895
 Rotational constants (GHZ):           0.69704     0.56197     0.39494
 Zero-point vibrational energy     939432.2 (Joules/Mol)
                                  224.52968 (Kcal/Mol)
 Warning -- explicit consideration of  23 degrees of freedom as
           vibrations may cause significant error
 Vibrational temperatures:     67.94    93.86   164.77   207.48   252.19
          (Kelvin)            270.44   321.98   332.27   346.97   363.04
                              375.70   420.40   427.43   466.52   477.55
                              505.59   548.14   569.39   629.30   677.41
                              719.55   785.88   852.37   904.02  1005.56
                             1028.32  1100.42  1128.84  1151.98  1187.74
                             1239.85  1253.93  1288.71  1297.25  1340.20
                             1355.14  1370.84  1398.69  1427.69  1444.21
                             1489.38  1502.25  1523.13  1533.37  1547.36
                             1573.36  1582.37  1607.39  1613.88  1636.99
                             1660.71  1691.03  1720.13  1734.80  1780.07
                             1796.83  1809.59  1837.33  1852.87  1867.67
                             1892.89  1902.35  1925.78  1928.66  1948.27
                             1960.37  1965.41  1979.02  1986.09  1991.52
                             1996.50  2001.86  2021.03  2023.86  2035.70
                             2048.27  2123.55  2128.60  2133.53  2136.84
                             2144.50  2150.14  2155.70  2157.55  2164.29
                             2171.96  2474.64  4293.27  4307.78  4325.04
                             4329.27  4329.83  4341.18  4344.91  4345.24
                             4356.75  4364.33  4369.22  4374.23  4378.36
                             4379.91  4386.31  4390.98  4392.85  4406.35
                             4448.24  4452.11  4458.11  4486.27  4526.96
                             5478.99

 Zero-point correction=                           0.357811 (Hartree/Particle)
 Thermal correction to Energy=                    0.372823
 Thermal correction to Enthalpy=                  0.373767
 Thermal correction to Gibbs Free Energy=         0.317180
 Sum of electronic and zero-point Energies=           -622.826637
 Sum of electronic and thermal Energies=              -622.811625
 Sum of electronic and thermal Enthalpies=            -622.810680
 Sum of electronic and thermal Free Energies=         -622.867267

                     E (Thermal)             CV                S
                      KCal/Mol        Cal/Mol-Kelvin    Cal/Mol-Kelvin
 Total                  233.950             61.010            119.097
 Electronic               0.000              0.000              0.000
 Translational            0.889              2.981             41.904
 Rotational               0.889              2.981             32.008
 Vibrational            232.172             55.048             45.186
 Vibration     1          0.595              1.979              4.930
 Vibration     2          0.597              1.971              4.292
 Vibration     3          0.607              1.937              3.191
 Vibration     4          0.616              1.909              2.747
 Vibration     5          0.627              1.873              2.378
 Vibration     6          0.633              1.856              2.248
 Vibration     7          0.649              1.805              1.928
 Vibration     8          0.653              1.794              1.872
 Vibration     9          0.658              1.777              1.794
 Vibration    10          0.664              1.759              1.714
 Vibration    11          0.669              1.744              1.654
 Vibration    12          0.688              1.688              1.461
 Vibration    13          0.691              1.679              1.433
 Vibration    14          0.709              1.627              1.289
 Vibration    15          0.714              1.612              1.251
 Vibration    16          0.728              1.572              1.160
 Vibration    17          0.751              1.511              1.035
 Vibration    18          0.762              1.479              0.978
 Vibration    19          0.798              1.389              0.835
 Vibration    20          0.828              1.315              0.735
 Vibration    21          0.856              1.250              0.658
 Vibration    22          0.901              1.148              0.552
 Vibration    23          0.950              1.048              0.463

                           ! Non-Optimized Parameters !
 Normal termination of Gaussian 16 at Mon May 29 08:31:10 2023.
