 Gaussian 16, Revision A.03,
 Gaussian 16:  ES64L-G16RevA.03 25-Dec-2016

 -----------------------------
 # opt freq b3lyp/6-31g(2df,p)
 -----------------------------

 -------------------
 Title Card Required
 -------------------
 Symbolic Z-matrix:
 Charge =  0 Multiplicity = 1

 SCF Done:  E(RB3LYP) =  -312.981859965     A.U. after   15 cycles
 SCF Done:  E(RB3LYP) =  -313.035895744     A.U. after   13 cycles
 SCF Done:  E(RB3LYP) =  -313.096971389     A.U. after   13 cycles
 SCF Done:  E(RB3LYP) =  -313.101615512     A.U. after   10 cycles
 SCF Done:  E(RB3LYP) =  -313.120528696     A.U. after   11 cycles
 SCF Done:  E(RB3LYP) =  -313.133871383     A.U. after   11 cycles
 SCF Done:  E(RB3LYP) =  -313.172090829     A.U. after   11 cycles
 SCF Done:  E(RB3LYP) =  -313.199103804     A.U. after   11 cycles
 SCF Done:  E(RB3LYP) =  -313.212929981     A.U. after   10 cycles
 SCF Done:  E(RB3LYP) =  -313.228493604     A.U. after   11 cycles
 SCF Done:  E(RB3LYP) =  -313.230769816     A.U. after   10 cycles
 SCF Done:  E(RB3LYP) =  -313.231842300     A.U. after   10 cycles
 SCF Done:  E(RB3LYP) =  -313.232395046     A.U. after   10 cycles
 SCF Done:  E(RB3LYP) =  -313.232590589     A.U. after    9 cycles
 SCF Done:  E(RB3LYP) =  -313.232699255     A.U. after    9 cycles
 SCF Done:  E(RB3LYP) =  -313.232735714     A.U. after    8 cycles
 SCF Done:  E(RB3LYP) =  -313.232740732     A.U. after    8 cycles
 SCF Done:  E(RB3LYP) =  -313.232741616     A.U. after    6 cycles
 SCF Done:  E(RB3LYP) =  -313.232741711     A.U. after    5 cycles
 Optimization completed.
    -- Stationary point found.
 Normal termination of Gaussian 16 at Sun May 28 18:26:20 2023.

 ----------------------------------------------------------------------
 #N Geom=AllCheck Guess=TCheck SCRF=Check GenChk RB3LYP/6-31G(2df,p) Fr
 eq
 ----------------------------------------------------------------------

 Structure from the checkpoint file:  "CCC12CCqC1rC2C.chk"
 -------------------
 Title Card Required
 -------------------
 Charge =  0 Multiplicity = 1

                         Standard orientation:
 ---------------------------------------------------------------------
 Center     Atomic      Atomic             Coordinates (Angstroms)
 Number     Number       Type             X           Y           Z
 ---------------------------------------------------------------------
      1          6           0        2.751854   -0.328462   -0.180599
      2          6           0        1.423200   -0.911126    0.314946
      3          6           0        0.247530    0.016294    0.122259
      4          6           0        0.041278    1.438124    0.738550
      5          6           0       -1.231306    1.166904   -0.110513
      6          6           0       -0.280428    0.631481   -1.217043
      7          6           0       -1.247518   -0.262175    0.517677
      8          6           0       -2.042916   -1.407181   -0.092422
      9          1           0        3.574999   -1.031957   -0.022632
     10          1           0        2.998667    0.598779    0.347006
     11          1           0        2.708509   -0.099595   -1.250588
     12          1           0        1.505101   -1.161674    1.381278
     13          1           0        1.220417   -1.856868   -0.205460
     14          1           0        0.705344    2.229544    0.379894
     15          1           0       -0.090573    1.486366    1.824099
     16          1           0       -2.082680    1.836396   -0.244477
     17          1           0        0.365392    1.373902   -1.694928
     18          1           0       -0.693992   -0.051130   -1.961450
     19          1           0       -1.405014   -0.248899    1.604014
     20          1           0       -1.939191   -1.481723   -1.177900
     21          1           0       -3.109974   -1.290726    0.128522
     22          1           0       -1.727163   -2.365561    0.335497
 ---------------------------------------------------------------------

 SCF Done:  E(RB3LYP) =  -313.232741711     A.U. after    1 cycles

 The electronic state is 1-A.
 Alpha  occ. eigenvalues --  -10.19524 -10.19090 -10.18351 -10.17688 -10.17607
 Alpha  occ. eigenvalues --  -10.17603 -10.17069 -10.16880  -0.90323  -0.76115
 Alpha  occ. eigenvalues --   -0.72769  -0.65842  -0.64342  -0.61229  -0.57153
 Alpha  occ. eigenvalues --   -0.51388  -0.46471  -0.45568  -0.44140  -0.42635
 Alpha  occ. eigenvalues --   -0.41155  -0.38177  -0.37402  -0.36401  -0.34935
 Alpha  occ. eigenvalues --   -0.34099  -0.30692  -0.30386  -0.29298  -0.29239
 Alpha  occ. eigenvalues --   -0.27841
 Alpha virt. eigenvalues --    0.09240   0.10693   0.12315   0.13032   0.14359
 Alpha virt. eigenvalues --    0.14731   0.15260   0.15740   0.15886   0.16692
 Alpha virt. eigenvalues --    0.17702   0.18206   0.18728   0.19450   0.20756

 Mulliken charges:
               1
     1  C   -0.378780
     2  C   -0.313578
     3  C    0.360220
     4  C   -0.257035
     5  C   -0.058998
     6  C   -0.266967
     7  C    0.019895
     8  C   -0.444538
     9  H    0.110285
    10  H    0.117886
    11  H    0.117889
    12  H    0.094934
    13  H    0.096499
    14  H    0.084064
    15  H    0.082113
    16  H    0.063176
    17  H    0.085530
    18  H    0.087025
    19  H    0.054404
    20  H    0.115778
    21  H    0.115240
    22  H    0.114959
 Sum of Mulliken charges =  -0.00000

 Dipole moment (field-independent basis, Debye):
    X=              0.0830    Y=             -0.2275    Z=              0.0503  Tot=              0.2474
 Quadrupole moment (field-independent basis, Debye-Ang):
   XX=            -51.6618   YY=            -51.6417   ZZ=            -51.2881
   XY=              0.0203   XZ=             -0.0131   YZ=             -0.0580

  Exact polarizability:  89.838   2.204  81.814  -0.448  -0.106  76.128
 Approx polarizability: 117.523   2.027 117.759  -0.567  -0.228 117.685

                      1                      2                      3
                      A                      A                      A
 Frequencies --     76.9513               148.1183               172.9412
 Red. masses --      2.1055                 2.3720                 1.0680
 Frc consts  --      0.0073                 0.0307                 0.0188
 IR Inten    --      0.0001                 0.0265                 0.0057

                      4                      5                      6
                      A                      A                      A
 Frequencies --    208.6922               250.0833               311.9029
 Red. masses --      1.2889                 2.1224                 2.1487
 Frc consts  --      0.0331                 0.0782                 0.1232
 IR Inten    --      0.0008                 0.0186                 0.0380

                      7                      8                      9
                      A                      A                      A
 Frequencies --    353.3832               432.2978               545.4041
 Red. masses --      2.2745                 2.6291                 2.2238
 Frc consts  --      0.1674                 0.2895                 0.3897
 IR Inten    --      0.1401                 0.4697                 0.1500

                     10                     11                     12
                      A                      A                      A
 Frequencies --    578.0493               619.3877               753.3315
 Red. masses --      2.3171                 2.6102                 1.7842
 Frc consts  --      0.4562                 0.5900                 0.5966
 IR Inten    --      1.3766                 0.4623                 0.8295

                     13                     14                     15
                      A                      A                      A
 Frequencies --    773.3396               797.5004               820.7367
 Red. masses --      2.2536                 2.2960                 1.7560
 Frc consts  --      0.7941                 0.8604                 0.6969
 IR Inten    --      0.2813                 0.9627                 0.6566

                     16                     17                     18
                      A                      A                      A
 Frequencies --    897.6167               928.5948               942.8381
 Red. masses --      2.3715                 1.8286                 2.4829
 Frc consts  --      1.1258                 0.9290                 1.3004
 IR Inten    --      0.8516                 0.8679                 0.1145

                     19                     20                     21
                      A                      A                      A
 Frequencies --    988.6517               997.6279              1006.1139
 Red. masses --      1.9281                 1.2717                 1.0760
 Frc consts  --      1.1104                 0.7457                 0.6417
 IR Inten    --      2.1499                 0.2214                 0.6325

                     22                     23                     24
                      A                      A                      A
 Frequencies --   1039.2271              1054.4303              1067.8148
 Red. masses --      1.1907                 1.2944                 1.8977
 Frc consts  --      0.7576                 0.8479                 1.2749
 IR Inten    --      1.7537                 0.7821                 1.9421

                     25                     26                     27
                      A                      A                      A
 Frequencies --   1118.5683              1124.1101              1145.9852
 Red. masses --      1.7495                 1.5709                 2.2899
 Frc consts  --      1.2897                 1.1695                 1.7719
 IR Inten    --      0.5882                 0.9119                 1.2891

                     28                     29                     30
                      A                      A                      A
 Frequencies --   1151.3543              1171.1692              1190.6391
 Red. masses --      1.4834                 1.7288                 1.7227
 Frc consts  --      1.1586                 1.3971                 1.4388
 IR Inten    --      0.3602                 1.9970                 3.2569

                     31                     32                     33
                      A                      A                      A
 Frequencies --   1222.4711              1232.7397              1249.1834
 Red. masses --      1.7026                 1.8600                 1.7896
 Frc consts  --      1.4992                 1.6654                 1.6453
 IR Inten    --      0.0777                 3.9889                 1.4513

                     34                     35                     36
                      A                      A                      A
 Frequencies --   1305.2329              1308.3328              1373.5091
 Red. masses --      1.2366                 2.2314                 1.9319
 Frc consts  --      1.2413                 2.2504                 2.1473
 IR Inten    --      0.6522                24.3499                 0.2566

                     37                     38                     39
                      A                      A                      A
 Frequencies --   1404.6523              1409.8934              1423.0872
 Red. masses --      1.2250                 1.2324                 1.3770
 Frc consts  --      1.4240                 1.4433                 1.6430
 IR Inten    --      1.0645                 2.2120                10.3922

                     40                     41                     42
                      A                      A                      A
 Frequencies --   1480.2465              1490.4938              1495.6595
 Red. masses --      1.0685                 1.0738                 1.0479
 Frc consts  --      1.3794                 1.4055                 1.3811
 IR Inten    --      0.8412                 1.3334                 3.6232

                     43                     44                     45
                      A                      A                      A
 Frequencies --   1499.4013              1506.7735              1510.8348
 Red. masses --      1.0392                 1.0676                 1.0861
 Frc consts  --      1.3765                 1.4281                 1.4607
 IR Inten    --      5.1826                 2.9605                 3.1456

                     46                     47                     48
                      A                      A                      A
 Frequencies --   1545.4685              3009.3329              3014.3196
 Red. masses --      1.1725                 1.0596                 1.0813
 Frc consts  --      1.6501                 5.6537                 5.7885
 IR Inten    --      2.1188                24.5910                37.2422

                     49                     50                     51
                      A                      A                      A
 Frequencies --   3030.7663              3033.7375              3039.7864
 Red. masses --      1.0392                 1.0351                 1.0555
 Frc consts  --      5.6240                 5.6130                 5.7464
 IR Inten    --     37.7399                23.1735                63.9166

                     52                     53                     54
                      A                      A                      A
 Frequencies --   3040.5497              3055.5045              3084.7062
 Red. masses --      1.0997                 1.0574                 1.1003
 Frc consts  --      5.9902                 5.8162                 6.1686
 IR Inten    --      8.7313                24.3103                22.6519

                     55                     56                     57
                      A                      A                      A
 Frequencies --   3095.4687              3101.8801              3103.4594
 Red. masses --      1.0920                 1.1031                 1.1044
 Frc consts  --      6.1648                 6.2533                 6.2669
 IR Inten    --     73.8896                41.1776                18.0976

                     58                     59                     60
                      A                      A                      A
 Frequencies --   3104.8672              3109.4301              3121.7141
 Red. masses --      1.1048                 1.1032                 1.1016
 Frc consts  --      6.2752                 6.2845                 6.3249
 IR Inten    --     23.0713                69.1206                43.0790

 - Thermochemistry -
 -------------------
 Temperature   298.150 Kelvin.  Pressure   1.00000 Atm.
 Atom     1 has atomic number  6 and mass  12.00000

 Molecular mass:   110.10955 amu.
 Principal axes and moments of inertia in atomic units:
                           1         2         3
     Eigenvalues --   563.355081102.292431325.27661
           X            0.99977   0.02143  -0.00085
           Y           -0.02143   0.99975   0.00647
           Z            0.00099  -0.00645   0.99998
 This molecule is an asymmetric top.
 Rotational symmetry number  1.
 Warning -- assumption of classical behavior for rotation
           may cause significant error
 Rotational temperatures (Kelvin)      0.15375     0.07858     0.06536
 Rotational constants (GHZ):           3.20356     1.63726     1.36178
 Zero-point vibrational energy     526777.8 (Joules/Mol)
                                  125.90291 (Kcal/Mol)
 Warning -- explicit consideration of  11 degrees of freedom as
           vibrations may cause significant error
 Vibrational temperatures:    110.72   213.11   248.82   300.26   359.81
          (Kelvin)            448.76   508.44   621.98   784.71   831.68
                              891.16  1083.88  1112.66  1147.43  1180.86
                             1291.47  1336.04  1356.53  1422.45  1435.36
                             1447.57  1495.22  1517.09  1536.35  1609.37
                             1617.34  1648.82  1656.54  1685.05  1713.06
                             1758.86  1773.64  1797.30  1877.94  1882.40
                             1976.17  2020.98  2028.52  2047.51  2129.74
                             2144.49  2151.92  2157.30  2167.91  2173.75
                             2223.58  4329.76  4336.93  4360.60  4364.87
                             4373.57  4374.67  4396.19  4438.20  4453.69
                             4462.91  4465.19  4467.21  4473.78  4491.45

 Zero-point correction=                           0.200639 (Hartree/Particle)
 Thermal correction to Energy=                    0.209026
 Thermal correction to Enthalpy=                  0.209971
 Thermal correction to Gibbs Free Energy=         0.168034
 Sum of electronic and zero-point Energies=           -313.032103
 Sum of electronic and thermal Energies=              -313.023715
 Sum of electronic and thermal Enthalpies=            -313.022771
 Sum of electronic and thermal Free Energies=         -313.064708

                     E (Thermal)             CV                S
                      KCal/Mol        Cal/Mol-Kelvin    Cal/Mol-Kelvin
 Total                  131.166             32.571             88.263
 Electronic               0.000              0.000              0.000
 Translational            0.889              2.981             40.005
 Rotational               0.889              2.981             28.200
 Vibrational            129.389             26.610             20.058
 Vibration     1          0.599              1.965              3.967
 Vibration     2          0.617              1.905              2.696
 Vibration     3          0.626              1.876              2.403
 Vibration     4          0.642              1.827              2.055
 Vibration     5          0.663              1.763              1.730
 Vibration     6          0.700              1.651              1.352
 Vibration     7          0.730              1.568              1.151
 Vibration     8          0.793              1.400              0.851
 Vibration     9          0.901              1.150              0.554
 Vibration    10          0.935              1.079              0.489
 Vibration    11          0.979              0.991              0.417

 Optimization completed.
    -- Stationary point found.
 Normal termination of Gaussian 16 at Sun May 28 18:56:23 2023.
