 Gaussian 16, Revision A.03,
 Gaussian 16:  ES64L-G16RevA.03 25-Dec-2016

 -----------------------------
 # opt freq b3lyp/6-31g(2df,p)
 -----------------------------

 -------------------
 Title Card Required
 -------------------
 Symbolic Z-matrix:
 Charge =  0 Multiplicity = 1

 SCF Done:  E(RB3LYP) =  -602.289000779     A.U. after   12 cycles
 SCF Done:  E(RB3LYP) =  -602.321767030     A.U. after   10 cycles
 SCF Done:  E(RB3LYP) =  -602.334273604     A.U. after   11 cycles
 SCF Done:  E(RB3LYP) =  -602.338569452     A.U. after   10 cycles
 SCF Done:  E(RB3LYP) =  -602.340115949     A.U. after   10 cycles
 SCF Done:  E(RB3LYP) =  -602.340605798     A.U. after   10 cycles
 SCF Done:  E(RB3LYP) =  -602.340858048     A.U. after    9 cycles
 SCF Done:  E(RB3LYP) =  -602.341020066     A.U. after    9 cycles
 SCF Done:  E(RB3LYP) =  -602.341104862     A.U. after    9 cycles
 SCF Done:  E(RB3LYP) =  -602.341177909     A.U. after    9 cycles
 SCF Done:  E(RB3LYP) =  -602.342028378     A.U. after   10 cycles
 SCF Done:  E(RB3LYP) =  -602.342031947     A.U. after    7 cycles
 SCF Done:  E(RB3LYP) =  -602.342037674     A.U. after    8 cycles
 SCF Done:  E(RB3LYP) =  -602.342041518     A.U. after    8 cycles
 SCF Done:  E(RB3LYP) =  -602.342029625     A.U. after   10 cycles
 SCF Done:  E(RB3LYP) =  -602.342048597     A.U. after   10 cycles
 SCF Done:  E(RB3LYP) =  -602.342048770     A.U. after    6 cycles
 SCF Done:  E(RB3LYP) =  -602.342049562     A.U. after    7 cycles
 SCF Done:  E(RB3LYP) =  -602.342049753     A.U. after    7 cycles
 Optimization completed.
    -- Stationary point found.
 Normal termination of Gaussian 16 at Mon May 22 20:53:17 2023.

 ----------------------------------------------------------------------
 #N Geom=AllCheck Guess=TCheck SCRF=Check GenChk RB3LYP/6-31G(2df,p) Fr
 eq
 ----------------------------------------------------------------------

 Structure from the checkpoint file:  "CCC1qCrCCCCCCqNrqCCrO1.chk"
 -------------------
 Title Card Required
 -------------------
 Charge =  0 Multiplicity = 1

                         Standard orientation:
 ---------------------------------------------------------------------
 Center     Atomic      Atomic             Coordinates (Angstroms)
 Number     Number       Type             X           Y           Z
 ---------------------------------------------------------------------
      1          6           0       -2.917507    1.695288   -0.206564
      2          6           0       -1.596132    2.040611    0.483745
      3          6           0       -0.331394    1.295967   -0.017200
      4          6           0       -0.264657    1.405818   -1.552388
      5          6           0        0.892573    1.983742    0.650444
      6          6           0        2.127503    1.128925    0.961498
      7          6           0        2.873109    0.501637   -0.234333
      8          6           0        2.550127   -0.975319   -0.501765
      9          6           0        1.137818   -1.361657   -0.970191
     10          6           0       -0.040716   -1.300796    0.034515
     11          7           0        0.403146   -1.969970    1.269156
     12          6           0       -1.267739   -2.003080   -0.620125
     13          6           0       -2.449736   -2.233175    0.325026
     14          8           0       -0.495575   -0.032479    0.516176
     15          1           0       -3.750079    2.196217    0.297698
     16          1           0       -3.112597    0.620437   -0.181409
     17          1           0       -2.932836    2.016147   -1.252698
     18          1           0       -1.677099    1.831233    1.556030
     19          1           0       -1.407405    3.117398    0.388154
     20          1           0       -0.481754    2.441937   -1.832818
     21          1           0       -1.007086    0.770469   -2.040820
     22          1           0        0.717695    1.168031   -1.956180
     23          1           0        0.554030    2.406755    1.604206
     24          1           0        1.183565    2.841099    0.028374
     25          1           0        1.842052    0.335781    1.659632
     26          1           0        2.821009    1.782311    1.504236
     27          1           0        3.950580    0.551262   -0.035282
     28          1           0        2.722734    1.102407   -1.140838
     29          1           0        2.771159   -1.543705    0.407449
     30          1           0        3.244397   -1.338002   -1.271071
     31          1           0        1.192907   -2.420952   -1.254027
     32          1           0        0.868031   -0.843196   -1.891767
     33          1           0        0.471275   -2.972652    1.112318
     34          1           0       -0.309559   -1.826964    1.978010
     35          1           0       -0.942802   -2.967285   -1.031775
     36          1           0       -1.590285   -1.399645   -1.476894
     37          1           0       -2.210528   -2.974218    1.094639
     38          1           0       -3.319158   -2.605275   -0.225396
     39          1           0       -2.735168   -1.307738    0.830765
 ---------------------------------------------------------------------

 SCF Done:  E(RB3LYP) =  -602.342049753     A.U. after    1 cycles

 The electronic state is 1-A.
 Alpha  occ. eigenvalues --  -19.12244 -14.30139 -10.25778 -10.23491 -10.17275
 Alpha  occ. eigenvalues --  -10.17237 -10.17077 -10.17035 -10.16829 -10.16711
 Alpha  occ. eigenvalues --  -10.16690 -10.16595 -10.16569 -10.16160  -1.01602
 Alpha  occ. eigenvalues --   -0.87491  -0.79976  -0.78232  -0.75755  -0.73928
 Alpha  occ. eigenvalues --   -0.71671  -0.68614  -0.66410  -0.62116  -0.58940
 Alpha  occ. eigenvalues --   -0.58657  -0.55578  -0.51947  -0.48087  -0.47202
 Alpha  occ. eigenvalues --   -0.45810  -0.45094  -0.44336  -0.43500  -0.42746
 Alpha  occ. eigenvalues --   -0.42254  -0.41361  -0.40537  -0.39016  -0.38451
 Alpha  occ. eigenvalues --   -0.37946  -0.37207  -0.36836  -0.36018  -0.35418
 Alpha  occ. eigenvalues --   -0.34219  -0.33164  -0.32921  -0.32477  -0.31773
 Alpha  occ. eigenvalues --   -0.30691  -0.30239  -0.29720  -0.27465  -0.24517
 Alpha  occ. eigenvalues --   -0.22793
 Alpha virt. eigenvalues --    0.06481   0.09301   0.09699   0.10725   0.11337
 Alpha virt. eigenvalues --    0.12531   0.13083   0.13615   0.13994   0.15096
 Alpha virt. eigenvalues --    0.15677   0.16470   0.16882   0.17088   0.17331

 Mulliken charges:
               1
     1  C   -0.412807
     2  C   -0.168687
     3  C    0.381817
     4  C   -0.458348
     5  C   -0.215762
     6  C   -0.201081
     7  C   -0.194659
     8  C   -0.195973
     9  C   -0.227631
    10  C    0.333522
    11  N   -0.511784
    12  C   -0.180037
    13  C   -0.401025
    14  O   -0.360781
    15  H    0.109295
    16  H    0.132253
    17  H    0.110967
    18  H    0.099719
    19  H    0.088982
    20  H    0.114126
    21  H    0.122838
    22  H    0.126799
    23  H    0.087646
    24  H    0.085019
    25  H    0.125876
    26  H    0.080688
    27  H    0.088686
    28  H    0.085364
    29  H    0.112797
    30  H    0.081151
    31  H    0.090285
    32  H    0.100475
    33  H    0.218355
    34  H    0.230704
    35  H    0.082022
    36  H    0.095507
    37  H    0.100104
    38  H    0.108239
    39  H    0.135341
 Sum of Mulliken charges =  -0.00000

 Dipole moment (field-independent basis, Debye):
    X=             -0.4372    Y=             -0.4934    Z=             -0.8278  Tot=              1.0583
 Quadrupole moment (field-independent basis, Debye-Ang):
   XX=            -92.0427   YY=            -84.8245   ZZ=            -90.0781
   XY=              0.4423   XZ=             -1.4464   YZ=             -0.6688

  Exact polarizability: 151.092  -0.085 145.495  -0.291   0.969 121.267
 Approx polarizability: 194.346  -1.583 202.680  -0.841  -1.643 192.253

                      1                      2                      3
                      A                      A                      A
 Frequencies --     43.5790                88.6301               108.9526
 Red. masses --      3.1635                 3.1675                 2.2170
 Frc consts  --      0.0035                 0.0147                 0.0155
 IR Inten    --      1.7879                 0.5201                 0.2943

                      4                      5                      6
                      A                      A                      A
 Frequencies --    138.0566               157.6410               171.5851
 Red. masses --      2.6603                 2.3788                 1.4410
 Frc consts  --      0.0299                 0.0348                 0.0250
 IR Inten    --      0.2027                 0.4433                 0.2590

                      7                      8                      9
                      A                      A                      A
 Frequencies --    194.5038               210.9351               220.1734
 Red. masses --      1.4752                 1.9919                 1.6316
 Frc consts  --      0.0329                 0.0522                 0.0466
 IR Inten    --      1.5123                 1.0404                11.5006

                     10                     11                     12
                      A                      A                      A
 Frequencies --    237.1352               243.4112               269.9086
 Red. masses --      2.0828                 1.2505                 2.3432
 Frc consts  --      0.0690                 0.0437                 0.1006
 IR Inten    --      0.3753                15.0065                 0.8615

                     13                     14                     15
                      A                      A                      A
 Frequencies --    293.0537               300.5743               315.0291
 Red. masses --      1.8336                 2.1490                 1.4571
 Frc consts  --      0.0928                 0.1144                 0.0852
 IR Inten    --      0.1225                 3.9082                 0.9908

                     16                     17                     18
                      A                      A                      A
 Frequencies --    319.9214               349.7611               365.2424
 Red. masses --      2.6950                 2.4807                 2.1602
 Frc consts  --      0.1625                 0.1788                 0.1698
 IR Inten    --      4.6331                 1.3805                 1.7339

                     19                     20                     21
                      A                      A                      A
 Frequencies --    381.8095               400.9015               431.5318
 Red. masses --      2.7361                 2.3142                 2.2017
 Frc consts  --      0.2350                 0.2191                 0.2416
 IR Inten    --      1.0495                 4.4529                 0.2091

                     22                     23                     24
                      A                      A                      A
 Frequencies --    470.9894               474.6846               523.7196
 Red. masses --      2.1049                 2.1309                 2.6429
 Frc consts  --      0.2751                 0.2829                 0.4271
 IR Inten    --      1.1874                 4.4261                 0.7123

                     25                     26                     27
                      A                      A                      A
 Frequencies --    565.9463               588.0074               661.4421
 Red. masses --      2.4301                 2.6089                 4.0057
 Frc consts  --      0.4586                 0.5315                 1.0326
 IR Inten    --      2.3371                 0.2760                 3.3424

                     28                     29                     30
                      A                      A                      A
 Frequencies --    737.7307               773.9807               780.3679
 Red. masses --      1.9601                 1.7583                 1.3583
 Frc consts  --      0.6285                 0.6206                 0.4873
 IR Inten    --      3.2065                 2.5261                13.3512

                     31                     32                     33
                      A                      A                      A
 Frequencies --    793.4416               819.2976               829.9151
 Red. masses --      1.5892                 1.8147                 2.0101
 Frc consts  --      0.5895                 0.7177                 0.8157
 IR Inten    --      9.0063                 9.4641                 2.8710

                     34                     35                     36
                      A                      A                      A
 Frequencies --    866.4297               882.3929               903.4794
 Red. masses --      2.1555                 1.6195                 1.7055
 Frc consts  --      0.9534                 0.7429                 0.8202
 IR Inten    --      1.7085                25.1557                53.0044

                     37                     38                     39
                      A                      A                      A
 Frequencies --    929.1413               949.0753               970.7174
 Red. masses --      1.9638                 1.9871                 1.8733
 Frc consts  --      0.9989                 1.0546                 1.0400
 IR Inten    --      2.0393                21.0506                28.5973

                     40                     41                     42
                      A                      A                      A
 Frequencies --    984.3680              1009.8228              1018.2649
 Red. masses --      1.8421                 1.7246                 1.8581
 Frc consts  --      1.0517                 1.0362                 1.1351
 IR Inten    --      3.3702                 7.6445                 9.2916

                     43                     44                     45
                      A                      A                      A
 Frequencies --   1034.4419              1040.3133              1054.8800
 Red. masses --      1.7911                 2.3920                 1.9456
 Frc consts  --      1.1292                 1.5252                 1.2756
 IR Inten    --      1.3081                70.0522                 1.3214

                     46                     47                     48
                      A                      A                      A
 Frequencies --   1078.1036              1091.2017              1097.2705
 Red. masses --      1.9424                 2.3785                 2.1929
 Frc consts  --      1.3302                 1.6686                 1.5556
 IR Inten    --      7.9122               111.9929                27.4645

                     49                     50                     51
                      A                      A                      A
 Frequencies --   1103.3949              1111.7939              1151.7301
 Red. masses --      1.8208                 1.9900                 1.7587
 Frc consts  --      1.3061                 1.4493                 1.3745
 IR Inten    --      3.6231                37.8367                 8.5844

                     52                     53                     54
                      A                      A                      A
 Frequencies --   1168.2199              1185.8567              1210.4852
 Red. masses --      1.9523                 2.3095                 2.5669
 Frc consts  --      1.5698                 1.9135                 2.2160
 IR Inten    --     44.5052                38.1600                10.0459

                     55                     56                     57
                      A                      A                      A
 Frequencies --   1228.3763              1241.9019              1280.6358
 Red. masses --      1.8079                 1.2284                 1.2166
 Frc consts  --      1.6073                 1.1163                 1.1756
 IR Inten    --      2.7525                23.2584                 6.1587

                     58                     59                     60
                      A                      A                      A
 Frequencies --   1286.8032              1294.0481              1312.4884
 Red. masses --      1.4181                 1.4216                 1.1686
 Frc consts  --      1.3835                 1.4026                 1.1861
 IR Inten    --      7.7798                 7.5332                 5.2391

                     61                     62                     63
                      A                      A                      A
 Frequencies --   1339.2422              1349.6910              1367.9290
 Red. masses --      1.3343                 1.3919                 1.4300
 Frc consts  --      1.4100                 1.4940                 1.5766
 IR Inten    --     11.0466                12.1007                 1.8720

                     64                     65                     66
                      A                      A                      A
 Frequencies --   1371.7361              1380.7765              1383.4041
 Red. masses --      1.5307                 1.3557                 1.3226
 Frc consts  --      1.6970                 1.5229                 1.4914
 IR Inten    --      2.2471                 6.4087                 6.6352

                     67                     68                     69
                      A                      A                      A
 Frequencies --   1391.0645              1399.6873              1403.3186
 Red. masses --      1.3747                 1.3082                 1.3250
 Frc consts  --      1.5672                 1.5100                 1.5373
 IR Inten    --      0.8800                 0.5639                 5.0375

                     70                     71                     72
                      A                      A                      A
 Frequencies --   1407.9766              1408.6927              1417.6852
 Red. masses --      1.2788                 1.3142                 1.3132
 Frc consts  --      1.4937                 1.5366                 1.5550
 IR Inten    --      3.6979                 5.4499                 7.1875

                     73                     74                     75
                      A                      A                      A
 Frequencies --   1468.3962              1473.0621              1477.3552
 Red. masses --      1.0781                 1.0808                 1.0811
 Frc consts  --      1.3696                 1.3817                 1.3903
 IR Inten    --      0.0521                 0.3271                 2.3828

                     76                     77                     78
                      A                      A                      A
 Frequencies --   1480.6871              1485.2161              1488.8618
 Red. masses --      1.0836                 1.0788                 1.0629
 Frc consts  --      1.3997                 1.4021                 1.3882
 IR Inten    --      0.8703                 6.7312                 3.6400

                     79                     80                     81
                      A                      A                      A
 Frequencies --   1495.4201              1497.1769              1499.4598
 Red. masses --      1.0534                 1.0778                 1.0670
 Frc consts  --      1.3879                 1.4234                 1.4134
 IR Inten    --      7.9848                 7.6333                 2.3142

                     82                     83                     84
                      A                      A                      A
 Frequencies --   1503.7097              1510.5545              1516.0773
 Red. masses --      1.0519                 1.0621                 1.0567
 Frc consts  --      1.4014                 1.4278                 1.4310
 IR Inten    --      2.2656                 3.5353                 4.0404

                     85                     86                     87
                      A                      A                      A
 Frequencies --   1520.3107              1628.1792              3007.5143
 Red. masses --      1.0525                 1.1006                 1.0627
 Frc consts  --      1.4332                 1.7191                 5.6633
 IR Inten    --      2.0247                29.9422                16.7330

                     88                     89                     90
                      A                      A                      A
 Frequencies --   3008.8720              3014.4515              3021.5125
 Red. masses --      1.0655                 1.0647                 1.0632
 Frc consts  --      5.6836                 5.7000                 5.7192
 IR Inten    --      3.0120                26.1657                 7.0547

                     91                     92                     93
                      A                      A                      A
 Frequencies --   3025.8936              3027.6877              3031.3172
 Red. masses --      1.0625                 1.0706                 1.0702
 Frc consts  --      5.7315                 5.7825                 5.7939
 IR Inten    --     12.5595                65.4871                63.1939

                     94                     95                     96
                      A                      A                      A
 Frequencies --   3041.0039              3042.8543              3044.9332
 Red. masses --      1.0374                 1.0378                 1.0985
 Frc consts  --      5.6521                 5.6615                 6.0008
 IR Inten    --     17.7667                31.6500                40.3158

                     97                     98                     99
                      A                      A                      A
 Frequencies --   3049.9987              3050.9457              3059.0614
 Red. masses --      1.0471                 1.0917                 1.0976
 Frc consts  --      5.7390                 5.9870                 6.0517
 IR Inten    --      5.8199                63.8885                36.7800

                    100                    101                    102
                      A                      A                      A
 Frequencies --   3068.4794              3076.5981              3086.3965
 Red. masses --      1.1000                 1.0943                 1.0954
 Frc consts  --      6.1022                 6.1025                 6.1479
 IR Inten    --     15.6132                10.8180                21.1676

                    103                    104                    105
                      A                      A                      A
 Frequencies --   3100.6077              3101.7455              3109.8538
 Red. masses --      1.1004                 1.1003                 1.0936
 Frc consts  --      6.2332                 6.2370                 6.2314
 IR Inten    --     28.2391                36.5846                35.2560

                    106                    107                    108
                      A                      A                      A
 Frequencies --   3118.2553              3123.9906              3128.4742
 Red. masses --      1.0905                 1.1004                 1.0990
 Frc consts  --      6.2473                 6.3274                 6.3377
 IR Inten    --     29.7625                54.8504                 3.2620

                    109                    110                    111
                      A                      A                      A
 Frequencies --   3160.5271              3483.6748              3574.6655
 Red. masses --      1.0966                 1.0494                 1.0913
 Frc consts  --      6.4540                 7.5033                 8.2165
 IR Inten    --     18.7665                 0.8003                 0.8323

 - Thermochemistry -
 -------------------
 Temperature   298.150 Kelvin.  Pressure   1.00000 Atm.
 Atom     1 has atomic number  6 and mass  12.00000

 Molecular mass:   199.19361 amu.
 Principal axes and moments of inertia in atomic units:
                           1         2         3
     Eigenvalues --  2317.833802680.022554011.12795
           X            0.99988   0.01569  -0.00067
           Y           -0.01569   0.99988  -0.00055
           Z            0.00066   0.00056   1.00000
 This molecule is an asymmetric top.
 Rotational symmetry number  1.
 Warning -- assumption of classical behavior for rotation
           may cause significant error
 Rotational temperatures (Kelvin)      0.03737     0.03232     0.02159
 Rotational constants (GHZ):           0.77863     0.67341     0.44993
 Zero-point vibrational energy     944885.3 (Joules/Mol)
                                  225.83300 (Kcal/Mol)
 Warning -- explicit consideration of  26 degrees of freedom as
           vibrations may cause significant error
 Vibrational temperatures:     62.70   127.52   156.76   198.63   226.81
          (Kelvin)            246.87   279.85   303.49   316.78   341.18
                              350.21   388.34   421.64   432.46   453.26
                              460.30   503.23   525.50   549.34   576.81
                              620.88   677.65   682.97   753.52   814.27
                              846.01   951.67  1061.43  1113.59  1122.78
                             1141.59  1178.79  1194.06  1246.60  1269.57
                             1299.91  1336.83  1365.51  1396.65  1416.29
                             1452.91  1465.06  1488.33  1496.78  1517.74
                             1551.15  1570.00  1578.73  1587.54  1599.62
                             1657.08  1680.81  1706.18  1741.62  1767.36
                             1786.82  1842.55  1851.42  1861.85  1888.38
                             1926.87  1941.90  1968.14  1973.62  1986.63
                             1990.41  2001.43  2013.84  2019.06  2025.76
                             2026.79  2039.73  2112.69  2119.41  2125.58
                             2130.38  2136.89  2142.14  2151.58  2154.10
                             2157.39  2163.50  2173.35  2181.30  2187.39
                             2342.59  4327.14  4329.10  4337.12  4347.28
                             4353.59  4356.17  4361.39  4375.33  4377.99
                             4380.98  4388.27  4389.63  4401.31  4414.86
                             4426.54  4440.64  4461.08  4462.72  4474.39
                             4486.47  4494.73  4501.18  4547.29  5012.23
                             5143.15

 Zero-point correction=                           0.359888 (Hartree/Particle)
 Thermal correction to Energy=                    0.375928
 Thermal correction to Enthalpy=                  0.376872
 Thermal correction to Gibbs Free Energy=         0.318742
 Sum of electronic and zero-point Energies=           -601.982162
 Sum of electronic and thermal Energies=              -601.966122
 Sum of electronic and thermal Enthalpies=            -601.965178
 Sum of electronic and thermal Free Energies=         -602.023308

                     E (Thermal)             CV                S
                      KCal/Mol        Cal/Mol-Kelvin    Cal/Mol-Kelvin
 Total                  235.898             63.985            122.345
 Electronic               0.000              0.000              0.000
 Translational            0.889              2.981             41.772
 Rotational               0.889              2.981             31.589
 Vibrational            234.121             58.023             48.985
 Vibration     1          0.595              1.980              5.089
 Vibration     2          0.601              1.957              3.690
 Vibration     3          0.606              1.942              3.287
 Vibration     4          0.614              1.915              2.831
 Vibration     5          0.621              1.894              2.578
 Vibration     6          0.626              1.877              2.418
 Vibration     7          0.635              1.848              2.184
 Vibration     8          0.643              1.824              2.036
 Vibration     9          0.647              1.810              1.958
 Vibration    10          0.656              1.784              1.824
 Vibration    11          0.659              1.774              1.778
 Vibration    12          0.674              1.729              1.597
 Vibration    13          0.688              1.687              1.456
 Vibration    14          0.693              1.673              1.414
 Vibration    15          0.702              1.645              1.336
 Vibration    16          0.706              1.635              1.311
 Vibration    17          0.727              1.576              1.167
 Vibration    18          0.738              1.544              1.100
 Vibration    19          0.751              1.509              1.032
 Vibration    20          0.767              1.468              0.959
 Vibration    21          0.793              1.402              0.854
 Vibration    22          0.828              1.314              0.735
 Vibration    23          0.831              1.306              0.725
 Vibration    24          0.879              1.197              0.601
 Vibration    25          0.922              1.105              0.512
 Vibration    26          0.945              1.057              0.471

 Optimization completed.
    -- Stationary point found.
 Normal termination of Gaussian 16 at Tue May 23 00:32:02 2023.
