 Gaussian 16, Revision A.03,
 Gaussian 16:  ES64L-G16RevA.03 25-Dec-2016

 -----------------------------
 # opt freq b3lyp/6-31g(2df,p)
 -----------------------------

 -------------------
 Title Card Required
 -------------------
 Symbolic Z-matrix:
 Charge =  0 Multiplicity = 1

 SCF Done:  E(RB3LYP) =  -352.566494260     A.U. after   12 cycles
 SCF Done:  E(RB3LYP) =  -352.578833487     A.U. after   10 cycles
 SCF Done:  E(RB3LYP) =  -352.581388245     A.U. after   10 cycles
 SCF Done:  E(RB3LYP) =  -352.582088025     A.U. after    9 cycles
 SCF Done:  E(RB3LYP) =  -352.582287899     A.U. after    9 cycles
 SCF Done:  E(RB3LYP) =  -352.582331232     A.U. after    9 cycles
 SCF Done:  E(RB3LYP) =  -352.582339024     A.U. after    7 cycles
 SCF Done:  E(RB3LYP) =  -352.582340630     A.U. after    7 cycles
 SCF Done:  E(RB3LYP) =  -352.582340702     A.U. after    5 cycles
 Optimization completed.
    -- Stationary point found.
 Normal termination of Gaussian 16 at Sun May 28 21:44:57 2023.

 ----------------------------------------------------------------------
 #N Geom=AllCheck Guess=TCheck SCRF=Check GenChk RB3LYP/6-31G(2df,p) Fr
 eq
 ----------------------------------------------------------------------

 Structure from the checkpoint file:  "CCC1C2CCqCrC1C2.chk"
 -------------------
 Title Card Required
 -------------------
 Charge =  0 Multiplicity = 1

                         Standard orientation:
 ---------------------------------------------------------------------
 Center     Atomic      Atomic             Coordinates (Angstroms)
 Number     Number       Type             X           Y           Z
 ---------------------------------------------------------------------
      1          6           0       -2.999214   -0.583174    0.301381
      2          6           0       -2.225441    0.199992   -0.766512
      3          6           0       -0.714478    0.432303   -0.634232
      4          6           0       -0.088671    0.995911    0.686072
      5          6           0        1.358563    1.274891    0.228353
      6          6           0        1.632877   -0.046566   -0.583107
      7          6           0        2.871440   -0.827795   -0.148799
      8          6           0        0.272695   -0.746188   -0.334891
      9          6           0        0.032010   -0.473129    1.178176
     10          1           0       -4.056888   -0.635588    0.022187
     11          1           0       -2.946405   -0.105797    1.284671
     12          1           0       -2.639127   -1.611560    0.403104
     13          1           0       -2.691493    1.190054   -0.866513
     14          1           0       -2.388279   -0.293200   -1.734794
     15          1           0       -0.427160    1.010704   -1.522792
     16          1           0       -0.583995    1.767130    1.279297
     17          1           0        2.044756    1.385451    1.074813
     18          1           0        1.441153    2.173872   -0.389858
     19          1           0        1.731851    0.182742   -1.650658
     20          1           0        2.828614   -1.109190    0.908610
     21          1           0        3.779049   -0.230660   -0.291339
     22          1           0        2.984776   -1.747551   -0.733760
     23          1           0        0.140441   -1.737527   -0.774027
     24          1           0        0.841075   -0.704866    1.877396
     25          1           0       -0.897054   -0.891486    1.555023
 ---------------------------------------------------------------------

 SCF Done:  E(RB3LYP) =  -352.582340702     A.U. after    1 cycles

 The electronic state is 1-A.
 Alpha  occ. eigenvalues --  -10.17982 -10.17862 -10.17853 -10.17829 -10.17796
 Alpha  occ. eigenvalues --  -10.17084 -10.17034 -10.16918 -10.16647  -0.87975
 Alpha  occ. eigenvalues --   -0.76846  -0.73514  -0.68770  -0.66800  -0.63961
 Alpha  occ. eigenvalues --   -0.58713  -0.53068  -0.51448  -0.49230  -0.46374
 Alpha  occ. eigenvalues --   -0.43935  -0.43553  -0.40336  -0.39288  -0.38412
 Alpha  occ. eigenvalues --   -0.36733  -0.36487  -0.34617  -0.34060  -0.32505
 Alpha  occ. eigenvalues --   -0.31837  -0.29422  -0.29066  -0.28889  -0.27607
 Alpha virt. eigenvalues --    0.08499   0.10874   0.11771   0.12235   0.12968
 Alpha virt. eigenvalues --    0.14605   0.14704   0.15826   0.16138   0.16938
 Alpha virt. eigenvalues --    0.17094   0.17772   0.18087   0.19569   0.20255

 Mulliken charges:
               1
     1  C   -0.383687
     2  C   -0.229827
     3  C    0.056505
     4  C   -0.028146
     5  C   -0.234353
     6  C    0.055214
     7  C   -0.419809
     8  C   -0.034357
     9  C   -0.230482
    10  H    0.106865
    11  H    0.121085
    12  H    0.120990
    13  H    0.096270
    14  H    0.096035
    15  H    0.054796
    16  H    0.049370
    17  H    0.089600
    18  H    0.089528
    19  H    0.063395
    20  H    0.114080
    21  H    0.110978
    22  H    0.108364
    23  H    0.047224
    24  H    0.081228
    25  H    0.099133
 Sum of Mulliken charges =  -0.00000

 Dipole moment (field-independent basis, Debye):
    X=             -0.2187    Y=              0.0326    Z=             -0.1555  Tot=              0.2703
 Quadrupole moment (field-independent basis, Debye-Ang):
   XX=            -58.0939   YY=            -58.1084   ZZ=            -57.9226
   XY=              0.0774   XZ=              0.0602   YZ=              0.1159

  Exact polarizability: 107.891  -0.288  85.457   0.547  -0.273  83.959
 Approx polarizability: 133.467  -0.521 129.312   1.146  -0.321 130.393

                      1                      2                      3
                      A                      A                      A
 Frequencies --     75.1180               174.4468               195.0538
 Red. masses --      2.4230                 2.7305                 1.9439
 Frc consts  --      0.0081                 0.0490                 0.0436
 IR Inten    --      0.0052                 0.0598                 0.0815

                      4                      5                      6
                      A                      A                      A
 Frequencies --    218.3032               260.3958               300.2556
 Red. masses --      1.1103                 2.1683                 2.3031
 Frc consts  --      0.0312                 0.0866                 0.1223
 IR Inten    --      0.0234                 0.0170                 0.0599

                      7                      8                      9
                      A                      A                      A
 Frequencies --    313.7591               356.1553               445.4016
 Red. masses --      1.7223                 1.5265                 1.9595
 Frc consts  --      0.0999                 0.1141                 0.2290
 IR Inten    --      0.0828                 0.0475                 0.2210

                     10                     11                     12
                      A                      A                      A
 Frequencies --    470.5360               585.3767               626.8974
 Red. masses --      2.7172                 2.3469                 3.0481
 Frc consts  --      0.3545                 0.4738                 0.7058
 IR Inten    --      1.0667                 0.1804                 0.3534

                     13                     14                     15
                      A                      A                      A
 Frequencies --    761.8281               793.8633               815.7032
 Red. masses --      1.2735                 2.8228                 2.7864
 Frc consts  --      0.4355                 1.0482                 1.0923
 IR Inten    --      1.4759                 0.2512                 1.4858

                     16                     17                     18
                      A                      A                      A
 Frequencies --    833.9190               847.6324               889.7960
 Red. masses --      2.7831                 2.5730                 2.0159
 Frc consts  --      1.1403                 1.0892                 0.9404
 IR Inten    --      1.1816                 0.2509                 0.8508

                     19                     20                     21
                      A                      A                      A
 Frequencies --    909.5772               930.8382               932.8988
 Red. masses --      2.0268                 1.4805                 2.0360
 Frc consts  --      0.9880                 0.7558                 1.0440
 IR Inten    --      0.6319                 0.3196                 0.4120

                     22                     23                     24
                      A                      A                      A
 Frequencies --    953.2338              1011.5939              1024.1964
 Red. masses --      1.8596                 2.0627                 1.2426
 Frc consts  --      0.9955                 1.2437                 0.7680
 IR Inten    --      0.3724                 0.1135                 1.5404

                     25                     26                     27
                      A                      A                      A
 Frequencies --   1031.1990              1068.7719              1077.9554
 Red. masses --      1.5973                 1.7975                 1.5907
 Frc consts  --      1.0007                 1.2097                 1.0890
 IR Inten    --      2.7888                 0.7770                 0.9401

                     28                     29                     30
                      A                      A                      A
 Frequencies --   1088.8314              1107.1977              1115.5046
 Red. masses --      1.0819                 1.4700                 1.6359
 Frc consts  --      0.7557                 1.0617                 1.1994
 IR Inten    --      0.3956                 2.2199                 0.6997

                     31                     32                     33
                      A                      A                      A
 Frequencies --   1148.6972              1158.7009              1207.1907
 Red. masses --      2.0190                 2.0039                 1.6341
 Frc consts  --      1.5696                 1.5851                 1.4031
 IR Inten    --      0.6462                 0.7827                 0.3461

                     34                     35                     36
                      A                      A                      A
 Frequencies --   1220.0518              1230.3442              1247.0094
 Red. masses --      1.6287                 1.4223                 1.4438
 Frc consts  --      1.4284                 1.2685                 1.3228
 IR Inten    --      0.0141                 0.7986                 1.8037

                     37                     38                     39
                      A                      A                      A
 Frequencies --   1274.0052              1285.1938              1304.3744
 Red. masses --      1.5939                 1.6954                 1.3941
 Frc consts  --      1.5243                 1.6499                 1.3975
 IR Inten    --      0.1670                 0.7622                 0.9775

                     40                     41                     42
                      A                      A                      A
 Frequencies --   1320.4818              1339.7267              1363.8098
 Red. masses --      1.4452                 1.2410                 1.6170
 Frc consts  --      1.4847                 1.3124                 1.7721
 IR Inten    --      0.7615                 0.2361                 4.0372

                     43                     44                     45
                      A                      A                      A
 Frequencies --   1380.4537              1404.1451              1411.2219
 Red. masses --      1.4103                 1.2213                 1.2515
 Frc consts  --      1.5834                 1.4188                 1.4685
 IR Inten    --      7.7416                 2.2617                 2.8921

                     46                     47                     48
                      A                      A                      A
 Frequencies --   1434.0727              1481.9656              1493.1520
 Red. masses --      1.3264                 1.0703                 1.0704
 Frc consts  --      1.6072                 1.3850                 1.4061
 IR Inten    --     10.7182                 0.3484                 1.0000

                     49                     50                     51
                      A                      A                      A
 Frequencies --   1497.1054              1500.0104              1505.4957
 Red. masses --      1.0573                 1.0642                 1.0410
 Frc consts  --      1.3962                 1.4108                 1.3901
 IR Inten    --      3.2696                 1.5603                 5.2417

                     52                     53                     54
                      A                      A                      A
 Frequencies --   1507.4974              1527.1651              2993.3588
 Red. masses --      1.0729                 1.0947                 1.0735
 Frc consts  --      1.4365                 1.5042                 5.6670
 IR Inten    --      6.3234                 3.0826                10.4783

                     55                     56                     57
                      A                      A                      A
 Frequencies --   3011.8718              3024.3195              3025.8478
 Red. masses --      1.0708                 1.0663                 1.0520
 Frc consts  --      5.7231                 5.7462                 5.6750
 IR Inten    --     60.2733                34.4704                26.3892

                     58                     59                     60
                      A                      A                      A
 Frequencies --   3030.9955              3033.8184              3040.9896
 Red. masses --      1.1011                 1.0354                 1.0603
 Frc consts  --      5.9601                 5.6150                 5.7769
 IR Inten    --     20.8382                20.5849                42.8746

                     61                     62                     63
                      A                      A                      A
 Frequencies --   3059.9477              3084.1403              3085.6983
 Red. masses --      1.0696                 1.1032                 1.0911
 Frc consts  --      5.9008                 6.1824                 6.1207
 IR Inten    --     42.5995                20.4023                55.8961

                     64                     65                     66
                      A                      A                      A
 Frequencies --   3089.1504              3092.3047              3095.0231
 Red. masses --      1.0999                 1.0911                 1.1004
 Frc consts  --      6.1840                 6.1470                 6.2106
 IR Inten    --     49.2810                16.4722                47.7652

                     67                     68                     69
                      A                      A                      A
 Frequencies --   3098.3816              3108.1621              3173.9890
 Red. masses --      1.0997                 1.1022                 1.0930
 Frc consts  --      6.2203                 6.2735                 6.4876
 IR Inten    --     60.7268                39.0835                18.2071

 - Thermochemistry -
 -------------------
 Temperature   298.150 Kelvin.  Pressure   1.00000 Atm.
 Atom     1 has atomic number  6 and mass  12.00000

 Molecular mass:   124.12520 amu.
 Principal axes and moments of inertia in atomic units:
                           1         2         3
     Eigenvalues --   511.711191710.657371770.90528
           X            1.00000   0.00051  -0.00126
           Y           -0.00060   0.99711  -0.07601
           Z            0.00121   0.07601   0.99711
 This molecule is an asymmetric top.
 Rotational symmetry number  1.
 Warning -- assumption of classical behavior for rotation
           may cause significant error
 Rotational temperatures (Kelvin)      0.16926     0.05063     0.04891
 Rotational constants (GHZ):           3.52687     1.05500     1.01911
 Zero-point vibrational energy     607141.4 (Joules/Mol)
                                  145.11027 (Kcal/Mol)
 Warning -- explicit consideration of  11 degrees of freedom as
           vibrations may cause significant error
 Vibrational temperatures:    108.08   250.99   280.64   314.09   374.65
          (Kelvin)            432.00   451.43   512.43   640.83   677.00
                              842.23   901.97  1096.10  1142.19  1173.61
                             1199.82  1219.55  1280.22  1308.68  1339.27
                             1342.23  1371.49  1455.46  1473.59  1483.67
                             1537.72  1550.94  1566.59  1593.01  1604.96
                             1652.72  1667.11  1736.88  1755.38  1770.19
                             1794.17  1833.01  1849.11  1876.70  1899.88
                             1927.57  1962.22  1986.16  2020.25  2030.43
                             2063.31  2132.22  2148.31  2154.00  2158.18
                             2166.07  2168.95  2197.25  4306.78  4333.41
                             4351.32  4353.52  4360.93  4364.99  4375.31
                             4402.58  4437.39  4439.63  4444.60  4449.14
                             4453.05  4457.88  4471.95  4566.66

 Zero-point correction=                           0.231248 (Hartree/Particle)
 Thermal correction to Energy=                    0.240130
 Thermal correction to Enthalpy=                  0.241075
 Thermal correction to Gibbs Free Energy=         0.198073
 Sum of electronic and zero-point Energies=           -352.351093
 Sum of electronic and thermal Energies=              -352.342210
 Sum of electronic and thermal Enthalpies=            -352.341266
 Sum of electronic and thermal Free Energies=         -352.384267

                     E (Thermal)             CV                S
                      KCal/Mol        Cal/Mol-Kelvin    Cal/Mol-Kelvin
 Total                  150.684             35.851             90.504
 Electronic               0.000              0.000              0.000
 Translational            0.889              2.981             40.362
 Rotational               0.889              2.981             28.829
 Vibrational            148.907             29.889             21.313
 Vibration     1          0.599              1.966              4.015
 Vibration     2          0.627              1.874              2.387
 Vibration     3          0.636              1.847              2.179
 Vibration     4          0.646              1.813              1.973
 Vibration     5          0.668              1.745              1.659
 Vibration     6          0.693              1.673              1.415
 Vibration     7          0.702              1.647              1.342
 Vibration     8          0.732              1.563              1.139
 Vibration     9          0.805              1.371              0.810
 Vibration    10          0.828              1.315              0.736
 Vibration    11          0.942              1.063              0.475

 Optimization completed.
    -- Stationary point found.
 Normal termination of Gaussian 16 at Sun May 28 22:28:21 2023.
