 Gaussian 16, Revision A.03,
 Gaussian 16:  ES64L-G16RevA.03 25-Dec-2016

 -----------------------------
 # opt freq b3lyp/6-31g(2df,p)
 -----------------------------

 -------------------
 Title Card Required
 -------------------
 Symbolic Z-matrix:
 Charge =  0 Multiplicity = 1

 SCF Done:  E(RB3LYP) =  -623.164950270     A.U. after   13 cycles
 SCF Done:  E(RB3LYP) =  -623.176511266     A.U. after   11 cycles
 SCF Done:  E(RB3LYP) =  -623.183295284     A.U. after   11 cycles
 SCF Done:  E(RB3LYP) =  -623.186136262     A.U. after   10 cycles
 SCF Done:  E(RB3LYP) =  -623.188459779     A.U. after   11 cycles
 SCF Done:  E(RB3LYP) =  -623.189672274     A.U. after   11 cycles
 SCF Done:  E(RB3LYP) =  -623.190250724     A.U. after   11 cycles
 SCF Done:  E(RB3LYP) =  -623.190520244     A.U. after   11 cycles
 SCF Done:  E(RB3LYP) =  -623.191038482     A.U. after   10 cycles
 SCF Done:  E(RB3LYP) =  -623.191157221     A.U. after    9 cycles
 SCF Done:  E(RB3LYP) =  -623.191244829     A.U. after    9 cycles
 SCF Done:  E(RB3LYP) =  -623.191251067     A.U. after    8 cycles
 SCF Done:  E(RB3LYP) =  -623.191255352     A.U. after    8 cycles
 SCF Done:  E(RB3LYP) =  -623.191263832     A.U. after    8 cycles
 SCF Done:  E(RB3LYP) =  -623.191270618     A.U. after    8 cycles
 SCF Done:  E(RB3LYP) =  -623.191273481     A.U. after    8 cycles
 SCF Done:  E(RB3LYP) =  -623.191274852     A.U. after    8 cycles
 SCF Done:  E(RB3LYP) =  -623.191274925     A.U. after    6 cycles
 SCF Done:  E(RB3LYP) =  -623.191274992     A.U. after    6 cycles
 Optimization completed.
    -- Stationary point found.
 Normal termination of Gaussian 16 at Tue May 23 15:01:12 2023.

 ----------------------------------------------------------------------
 #N Geom=AllCheck Guess=TCheck SCRF=Check GenChk RB3LYP/6-31G(2df,p) Fr
 eq
 ----------------------------------------------------------------------

 Structure from the checkpoint file:  "CCC1qCqOrC2CCCC2rCCCdC1C.chk"
 -------------------
 Title Card Required
 -------------------
 Charge =  0 Multiplicity = 1

                         Standard orientation:
 ---------------------------------------------------------------------
 Center     Atomic      Atomic             Coordinates (Angstroms)
 Number     Number       Type             X           Y           Z
 ---------------------------------------------------------------------
      1          6           0       -3.728911    0.314783   -0.218869
      2          6           0       -2.405617    0.945249   -0.663918
      3          6           0       -1.115047    0.330509   -0.041513
      4          6           0        0.087915    1.103805   -0.685343
      5          8           0       -0.032387    2.501908   -0.388447
      6          6           0        1.557739    0.679487   -0.448839
      7          6           0        2.110782    0.538158    0.984144
      8          6           0        3.556270    0.042376    0.759852
      9          6           0        3.518432   -0.757633   -0.577322
     10          6           0        2.072164   -0.614326   -1.110084
     11          6           0       -1.136508    0.438972    1.522068
     12          6           0       -1.081781   -1.006560    2.087013
     13          6           0       -1.064508   -1.869925    0.855496
     14          6           0       -1.078595   -1.177001   -0.285076
     15          6           0       -1.155276   -1.768266   -1.663373
     16          1           0       -4.567808    0.804673   -0.723398
     17          1           0       -3.895739    0.418246    0.858224
     18          1           0       -3.775258   -0.753156   -0.453164
     19          1           0       -2.405879    2.015091   -0.437683
     20          1           0       -2.331769    0.873574   -1.756809
     21          1           0       -0.061535    1.061987   -1.772014
     22          1           0        0.156500    2.616423    0.548781
     23          1           0        2.114646    1.508477   -0.910604
     24          1           0        1.545798   -0.218868    1.536159
     25          1           0        2.078272    1.465867    1.565420
     26          1           0        3.915268   -0.560333    1.598523
     27          1           0        4.236681    0.895407    0.672302
     28          1           0        3.790976   -1.807151   -0.436784
     29          1           0        4.235778   -0.341551   -1.291158
     30          1           0        1.470885   -1.465996   -0.782112
     31          1           0        2.029102   -0.577729   -2.203130
     32          1           0       -2.040772    0.951721    1.856803
     33          1           0       -0.301932    1.033503    1.899376
     34          1           0       -1.948304   -1.230565    2.722244
     35          1           0       -0.200405   -1.175250    2.720439
     36          1           0       -1.061820   -2.954886    0.908111
     37          1           0       -1.075317   -2.858422   -1.627690
     38          1           0       -0.363690   -1.394692   -2.321180
     39          1           0       -2.106929   -1.519409   -2.148485
 ---------------------------------------------------------------------

 SCF Done:  E(RB3LYP) =  -623.191274992     A.U. after    1 cycles

 The electronic state is 1-A.
 Alpha  occ. eigenvalues --  -19.12789 -10.22357 -10.18842 -10.17975 -10.17888
 Alpha  occ. eigenvalues --  -10.17806 -10.17804 -10.17592 -10.17548 -10.17489
 Alpha  occ. eigenvalues --  -10.17374 -10.17100 -10.16949 -10.16874 -10.16624
 Alpha  occ. eigenvalues --   -1.00936  -0.84768  -0.82814  -0.76301  -0.74523
 Alpha  occ. eigenvalues --   -0.72783  -0.70282  -0.69004  -0.66463  -0.63382
 Alpha  occ. eigenvalues --   -0.60697  -0.56115  -0.55908  -0.54898  -0.50574
 Alpha  occ. eigenvalues --   -0.49102  -0.47611  -0.46786  -0.45825  -0.44349
 Alpha  occ. eigenvalues --   -0.43378  -0.42197  -0.41544  -0.40337  -0.40146
 Alpha  occ. eigenvalues --   -0.39456  -0.38472  -0.37867  -0.35330  -0.35174
 Alpha  occ. eigenvalues --   -0.34888  -0.34054  -0.33756  -0.33228  -0.33083
 Alpha  occ. eigenvalues --   -0.32631  -0.31735  -0.31046  -0.30602  -0.30570
 Alpha  occ. eigenvalues --   -0.28947  -0.26332  -0.22477
 Alpha virt. eigenvalues --    0.02991   0.06476   0.08058   0.08910   0.09591
 Alpha virt. eigenvalues --    0.10938   0.12240   0.12968   0.13409   0.13825
 Alpha virt. eigenvalues --    0.14708   0.15158   0.16065   0.16845   0.17195

 Mulliken charges:
               1
     1  C   -0.408624
     2  C   -0.208655
     3  C    0.209266
     4  C   -0.008669
     5  O   -0.437593
     6  C    0.049090
     7  C   -0.229350
     8  C   -0.213856
     9  C   -0.213435
    10  C   -0.225113
    11  C   -0.280061
    12  C   -0.263442
    13  C   -0.181441
    14  C    0.305539
    15  C   -0.503659
    16  H    0.111242
    17  H    0.113115
    18  H    0.116689
    19  H    0.111834
    20  H    0.088942
    21  H    0.080341
    22  H    0.278556
    23  H    0.081192
    24  H    0.112413
    25  H    0.080780
    26  H    0.094751
    27  H    0.099232
    28  H    0.096415
    29  H    0.098420
    30  H    0.109644
    31  H    0.087722
    32  H    0.100327
    33  H    0.085201
    34  H    0.100479
    35  H    0.101936
    36  H    0.082573
    37  H    0.120517
    38  H    0.129355
    39  H    0.128328
 Sum of Mulliken charges =  -0.00000

 Dipole moment (field-independent basis, Debye):
    X=              0.3351    Y=             -0.9938    Z=              0.7449  Tot=              1.2864
 Quadrupole moment (field-independent basis, Debye-Ang):
   XX=            -94.8704   YY=            -97.1422   ZZ=            -92.4727
   XY=              0.9947   XZ=              0.1333   YZ=              3.3748

  Exact polarizability: 158.219  -1.764 138.045   1.260  -1.869 144.939
 Approx polarizability: 200.067  -0.214 214.288   0.977 -10.934 231.554

                      1                      2                      3
                      A                      A                      A
 Frequencies --     39.5605                83.0633                85.9558
 Red. masses --      2.4740                 1.8643                 2.9445
 Frc consts  --      0.0023                 0.0076                 0.0128
 IR Inten    --      0.0118                 0.0817                 0.0944

                      4                      5                      6
                      A                      A                      A
 Frequencies --    100.9456               116.4471               120.0986
 Red. masses --      3.0595                 1.7942                 2.3452
 Frc consts  --      0.0184                 0.0143                 0.0199
 IR Inten    --      0.2911                 0.1724                 0.1991

                      7                      8                      9
                      A                      A                      A
 Frequencies --    161.5780               183.0990               188.5101
 Red. masses --      2.1904                 1.7889                 2.6439
 Frc consts  --      0.0337                 0.0353                 0.0554
 IR Inten    --      0.3082                 0.7761                 1.3158

                     10                     11                     12
                      A                      A                      A
 Frequencies --    190.8393               212.5091               245.7783
 Red. masses --      1.4115                 2.2248                 2.6258
 Frc consts  --      0.0303                 0.0592                 0.0935
 IR Inten    --      0.6661                 1.4271                 3.8820

                     13                     14                     15
                      A                      A                      A
 Frequencies --    250.6354               272.5666               287.4942
 Red. masses --      2.1787                 1.1460                 2.1069
 Frc consts  --      0.0806                 0.0502                 0.1026
 IR Inten    --      2.0682                77.8055                 1.8753

                     16                     17                     18
                      A                      A                      A
 Frequencies --    305.4529               345.4118               382.8006
 Red. masses --      2.7270                 3.3563                 3.0425
 Frc consts  --      0.1499                 0.2359                 0.2627
 IR Inten    --     30.2458                 4.4998                 0.8306

                     19                     20                     21
                      A                      A                      A
 Frequencies --    421.8116               473.4082               517.7747
 Red. masses --      2.4182                 2.6859                 3.3696
 Frc consts  --      0.2535                 0.3547                 0.5322
 IR Inten    --      3.8284                 0.6505                 1.4822

                     22                     23                     24
                      A                      A                      A
 Frequencies --    558.7829               607.1669               631.6672
 Red. masses --      3.7093                 2.6937                 2.7402
 Frc consts  --      0.6824                 0.5851                 0.6442
 IR Inten    --      0.6468                10.3650                 1.5937

                     25                     26                     27
                      A                      A                      A
 Frequencies --    655.0887               691.6941               749.9570
 Red. masses --      3.5351                 3.5264                 2.8304
 Frc consts  --      0.8938                 0.9941                 0.9379
 IR Inten    --      2.6265                 4.2424                 2.2214

                     28                     29                     30
                      A                      A                      A
 Frequencies --    757.6462               781.8705               791.4975
 Red. masses --      1.3636                 1.3728                 1.3381
 Frc consts  --      0.4612                 0.4945                 0.4939
 IR Inten    --      3.3186                12.0512                 4.1680

                     31                     32                     33
                      A                      A                      A
 Frequencies --    830.4602               856.8046               873.3136
 Red. masses --      1.5776                 1.3173                 2.4002
 Frc consts  --      0.6410                 0.5698                 1.0785
 IR Inten    --      1.0942                 5.7234                 0.8466

                     34                     35                     36
                      A                      A                      A
 Frequencies --    893.0844               923.6940               927.7423
 Red. masses --      2.7082                 2.5296                 2.2791
 Frc consts  --      1.2727                 1.2716                 1.1558
 IR Inten    --      0.5470                 1.3883                 2.0954

                     37                     38                     39
                      A                      A                      A
 Frequencies --    949.0060               954.6435               966.6557
 Red. masses --      2.2503                 1.8952                 1.9511
 Frc consts  --      1.1940                 1.0176                 1.0742
 IR Inten    --      3.2687                 4.4364                 1.8250

                     40                     41                     42
                      A                      A                      A
 Frequencies --    978.4346               991.0354              1018.6584
 Red. masses --      1.3099                 1.7333                 2.0200
 Frc consts  --      0.7388                 1.0030                 1.2350
 IR Inten    --      1.1168                 9.8998                10.5596

                     43                     44                     45
                      A                      A                      A
 Frequencies --   1023.5185              1038.2950              1044.4722
 Red. masses --      2.6091                 2.5087                 1.8422
 Frc consts  --      1.6104                 1.5935                 1.1841
 IR Inten    --     38.8640                34.8003                 4.6609

                     46                     47                     48
                      A                      A                      A
 Frequencies --   1053.1380              1066.8391              1080.2595
 Red. masses --      2.1200                 1.7946                 2.2077
 Frc consts  --      1.3853                 1.2034                 1.5179
 IR Inten    --      0.8623                 9.4611                 7.5297

                     49                     50                     51
                      A                      A                      A
 Frequencies --   1096.8977              1125.7773              1127.0179
 Red. masses --      2.1890                 2.0103                 2.1252
 Frc consts  --      1.5517                 1.5011                 1.5904
 IR Inten    --      4.7707                 1.5137                 4.4194

                     52                     53                     54
                      A                      A                      A
 Frequencies --   1153.2643              1193.8561              1208.7993
 Red. masses --      1.8390                 1.3967                 1.8506
 Frc consts  --      1.4411                 1.1729                 1.5932
 IR Inten    --      1.9681                 0.8077                 3.6510

                     55                     56                     57
                      A                      A                      A
 Frequencies --   1211.2062              1214.8899              1240.6030
 Red. masses --      1.4695                 2.0512                 1.3086
 Frc consts  --      1.2702                 1.7838                 1.1866
 IR Inten    --      0.8371                 8.1117                 7.5735

                     58                     59                     60
                      A                      A                      A
 Frequencies --   1242.5487              1267.8998              1268.9784
 Red. masses --      1.5559                 1.1975                 1.3106
 Frc consts  --      1.4154                 1.1342                 1.2435
 IR Inten    --      1.8001                 1.1194                 8.9031

                     61                     62                     63
                      A                      A                      A
 Frequencies --   1285.9812              1299.5830              1301.9245
 Red. masses --      1.5088                 1.2962                 1.2791
 Frc consts  --      1.4701                 1.2898                 1.2774
 IR Inten    --      1.6887                 4.4195                 1.6294

                     64                     65                     66
                      A                      A                      A
 Frequencies --   1320.8943              1327.0365              1333.0210
 Red. masses --      1.2937                 1.3834                 1.3732
 Frc consts  --      1.3299                 1.4354                 1.4377
 IR Inten    --      1.9269                 0.8656                 1.3900

                     67                     68                     69
                      A                      A                      A
 Frequencies --   1339.4551              1344.5127              1354.1375
 Red. masses --      1.3710                 1.3747                 1.4082
 Frc consts  --      1.4492                 1.4641                 1.5213
 IR Inten    --      2.0423                 2.8723                 1.8614

                     70                     71                     72
                      A                      A                      A
 Frequencies --   1366.0711              1376.2391              1410.2957
 Red. masses --      1.4819                 1.5283                 1.2557
 Frc consts  --      1.6294                 1.7055                 1.4715
 IR Inten    --      1.0152                 0.5270                10.6918

                     73                     74                     75
                      A                      A                      A
 Frequencies --   1412.2137              1415.3051              1423.0927
 Red. masses --      1.2606                 1.2674                 1.2400
 Frc consts  --      1.4813                 1.4958                 1.4796
 IR Inten    --      1.9456                 1.0310                47.4106

                     76                     77                     78
                      A                      A                      A
 Frequencies --   1478.1404              1480.5188              1486.1030
 Red. masses --      1.0558                 1.0739                 1.0669
 Frc consts  --      1.3591                 1.3869                 1.3882
 IR Inten    --      3.4985                 0.0403                 2.3716

                     79                     80                     81
                      A                      A                      A
 Frequencies --   1488.6169              1493.9404              1494.8631
 Red. masses --      1.0691                 1.0846                 1.0662
 Frc consts  --      1.3958                 1.4263                 1.4038
 IR Inten    --      3.3333                 1.3742                 1.8170

                     82                     83                     84
                      A                      A                      A
 Frequencies --   1496.5589              1500.2742              1507.8564
 Red. masses --      1.0565                 1.0803                 1.0719
 Frc consts  --      1.3942                 1.4327                 1.4359
 IR Inten    --      0.6936                 3.1775                 0.9952

                     85                     86                     87
                      A                      A                      A
 Frequencies --   1514.6714              1520.3602              1718.8807
 Red. masses --      1.0773                 1.1002                 7.2006
 Frc consts  --      1.4561                 1.4983                12.5347
 IR Inten    --      9.0398                 2.4650                 0.9687

                     88                     89                     90
                      A                      A                      A
 Frequencies --   2990.3291              3009.3922              3017.4804
 Red. masses --      1.0820                 1.0620                 1.0795
 Frc consts  --      5.7004                 5.6667                 5.7912
 IR Inten    --     19.2668                51.5656                 3.2898

                     91                     92                     93
                      A                      A                      A
 Frequencies --   3024.4742              3030.5659              3030.8271
 Red. masses --      1.0592                 1.0965                 1.0547
 Frc consts  --      5.7086                 5.9335                 5.7081
 IR Inten    --      8.2425                21.8684                57.2004

                     94                     95                     96
                      A                      A                      A
 Frequencies --   3036.8858              3038.9018              3044.8267
 Red. masses --      1.0357                 1.0614                 1.0618
 Frc consts  --      5.6277                 5.7751                 5.8000
 IR Inten    --     23.5821                21.7346                37.8736

                     97                     98                     99
                      A                      A                      A
 Frequencies --   3049.8072              3060.4874              3073.7735
 Red. masses --      1.0615                 1.0629                 1.0830
 Frc consts  --      5.8174                 5.8655                 6.0289
 IR Inten    --     66.7778                27.7295                34.6250

                    100                    101                    102
                      A                      A                      A
 Frequencies --   3074.0463              3080.7001              3084.2804
 Red. masses --      1.0782                 1.0952                 1.0930
 Frc consts  --      6.0031                 6.1243                 6.1260
 IR Inten    --      6.5496                20.6142                 1.0344

                    103                    104                    105
                      A                      A                      A
 Frequencies --   3088.1756              3098.3980              3099.2972
 Red. masses --      1.1025                 1.1022                 1.1024
 Frc consts  --      6.1950                 6.2343                 6.2391
 IR Inten    --      8.8528                37.2108                22.5399

                    106                    107                    108
                      A                      A                      A
 Frequencies --   3104.8251              3109.2574              3110.2017
 Red. masses --      1.1020                 1.1006                 1.1007
 Frc consts  --      6.2593                 6.2687                 6.2731
 IR Inten    --     23.1230                44.7629                22.3155

                    109                    110                    111
                      A                      A                      A
 Frequencies --   3112.4745              3170.2932              3810.5070
 Red. masses --      1.1028                 1.0928                 1.0656
 Frc consts  --      6.2947                 6.4711                 9.1157
 IR Inten    --     58.7125                19.2601                 9.2714

 - Thermochemistry -
 -------------------
 Temperature   298.150 Kelvin.  Pressure   1.00000 Atm.
 Atom     1 has atomic number  6 and mass  12.00000

 Molecular mass:   208.18272 amu.
 Principal axes and moments of inertia in atomic units:
                           1         2         3
     Eigenvalues --  1955.762734127.266404397.08801
           X            0.99998  -0.00503   0.00400
           Y            0.00465   0.99592   0.09009
           Z           -0.00444  -0.09007   0.99593
 This molecule is an asymmetric top.
 Rotational symmetry number  1.
 Warning -- assumption of classical behavior for rotation
           may cause significant error
 Rotational temperatures (Kelvin)      0.04429     0.02099     0.01970
 Rotational constants (GHZ):           0.92278     0.43727     0.41044
 Zero-point vibrational energy     932331.5 (Joules/Mol)
                                  222.83258 (Kcal/Mol)
 Warning -- explicit consideration of  23 degrees of freedom as
           vibrations may cause significant error
 Vibrational temperatures:     56.92   119.51   123.67   145.24   167.54
          (Kelvin)            172.80   232.47   263.44   271.22   274.58
                              305.75   353.62   360.61   392.16   413.64
                              439.48   496.97   550.76   606.89   681.13
                              744.96   803.96   873.58   908.83   942.53
                              995.19  1079.02  1090.08  1124.94  1138.79
                             1194.85  1232.75  1256.50  1284.95  1328.99
                             1334.81  1365.41  1373.52  1390.80  1407.75
                             1425.88  1465.62  1472.61  1493.87  1502.76
                             1515.23  1534.94  1554.25  1578.19  1619.74
                             1621.53  1659.29  1717.69  1739.19  1742.66
                             1747.96  1784.95  1787.75  1824.23  1825.78
                             1850.24  1869.81  1873.18  1900.47  1909.31
                             1917.92  1927.18  1934.45  1948.30  1965.47
                             1980.10  2029.10  2031.86  2036.31  2047.51
                             2126.71  2130.14  2138.17  2141.79  2149.45
                             2150.77  2153.21  2158.56  2169.47  2179.27
                             2187.46  2473.09  4302.42  4329.84  4341.48
                             4351.54  4360.31  4360.68  4369.40  4372.30
                             4380.83  4387.99  4403.36  4422.47  4422.87
                             4432.44  4437.59  4443.20  4457.90  4459.20
                             4467.15  4473.53  4474.89  4478.16  4561.34
                             5482.47

 Zero-point correction=                           0.355106 (Hartree/Particle)
 Thermal correction to Energy=                    0.371342
 Thermal correction to Enthalpy=                  0.372286
 Thermal correction to Gibbs Free Energy=         0.312408
 Sum of electronic and zero-point Energies=           -622.836169
 Sum of electronic and thermal Energies=              -622.819933
 Sum of electronic and thermal Enthalpies=            -622.818989
 Sum of electronic and thermal Free Energies=         -622.878867

                     E (Thermal)             CV                S
                      KCal/Mol        Cal/Mol-Kelvin    Cal/Mol-Kelvin
 Total                  233.021             63.071            126.024
 Electronic               0.000              0.000              0.000
 Translational            0.889              2.981             41.904
 Rotational               0.889              2.981             31.940
 Vibrational            231.243             57.110             52.180
 Vibration     1          0.594              1.981              5.281
 Vibration     2          0.600              1.961              3.817
 Vibration     3          0.601              1.959              3.750
 Vibration     4          0.604              1.948              3.436
 Vibration     5          0.608              1.936              3.159
 Vibration     6          0.609              1.933              3.099
 Vibration     7          0.622              1.890              2.531
 Vibration     8          0.631              1.863              2.297
 Vibration     9          0.633              1.856              2.242
 Vibration    10          0.634              1.853              2.220
 Vibration    11          0.644              1.822              2.022
 Vibration    12          0.660              1.770              1.761
 Vibration    13          0.663              1.762              1.726
 Vibration    14          0.676              1.724              1.580
 Vibration    15          0.685              1.697              1.489
 Vibration    16          0.696              1.663              1.387
 Vibration    17          0.724              1.585              1.187
 Vibration    18          0.752              1.507              1.028
 Vibration    19          0.784              1.423              0.886
 Vibration    20          0.830              1.309              0.728
 Vibration    21          0.873              1.211              0.615
 Vibration    22          0.914              1.121              0.526
 Vibration    23          0.966              1.017              0.437

 Optimization completed.
    -- Stationary point found.
 Normal termination of Gaussian 16 at Tue May 23 19:10:13 2023.
