 Gaussian 16, Revision A.03,
 Gaussian 16:  ES64L-G16RevA.03 25-Dec-2016

 -----------------------------
 # opt freq b3lyp/6-31g(2df,p)
 -----------------------------

 -------------------
 Title Card Required
 -------------------
 Symbolic Z-matrix:
 Charge =  0 Multiplicity = 1

 SCF Done:  E(RB3LYP) =  -353.833626434     A.U. after   12 cycles
 SCF Done:  E(RB3LYP) =  -353.837698319     A.U. after   10 cycles
 SCF Done:  E(RB3LYP) =  -353.838967353     A.U. after   10 cycles
 SCF Done:  E(RB3LYP) =  -353.839281823     A.U. after    9 cycles
 SCF Done:  E(RB3LYP) =  -353.839503221     A.U. after    9 cycles
 SCF Done:  E(RB3LYP) =  -353.839532698     A.U. after    9 cycles
 SCF Done:  E(RB3LYP) =  -353.839548841     A.U. after    8 cycles
 SCF Done:  E(RB3LYP) =  -353.839882060     A.U. after   10 cycles
 SCF Done:  E(RB3LYP) =  -353.840486932     A.U. after   11 cycles
 SCF Done:  E(RB3LYP) =  -353.840193150     A.U. after   10 cycles
 SCF Done:  E(RB3LYP) =  -353.840927465     A.U. after   10 cycles
 SCF Done:  E(RB3LYP) =  -353.841012232     A.U. after   10 cycles
 SCF Done:  E(RB3LYP) =  -353.840973379     A.U. after    9 cycles
 SCF Done:  E(RB3LYP) =  -353.841026890     A.U. after    9 cycles
 SCF Done:  E(RB3LYP) =  -353.841008463     A.U. after    9 cycles
 SCF Done:  E(RB3LYP) =  -353.841027862     A.U. after    9 cycles
 SCF Done:  E(RB3LYP) =  -353.841027665     A.U. after    7 cycles
 SCF Done:  E(RB3LYP) =  -353.841027927     A.U. after    6 cycles
 SCF Done:  E(RB3LYP) =  -353.841027899     A.U. after    5 cycles
 Optimization completed.
    -- Stationary point found.
 Normal termination of Gaussian 16 at Sun May 28 22:00:55 2023.

 ----------------------------------------------------------------------
 #N Geom=AllCheck Guess=TCheck SCRF=Check GenChk RB3LYP/6-31G(2df,p) Fr
 eq
 ----------------------------------------------------------------------

 Structure from the checkpoint file:  "CCC1qCrCCCqCrC1.chk"
 -------------------
 Title Card Required
 -------------------
 Charge =  0 Multiplicity = 1

                         Standard orientation:
 ---------------------------------------------------------------------
 Center     Atomic      Atomic             Coordinates (Angstroms)
 Number     Number       Type             X           Y           Z
 ---------------------------------------------------------------------
      1          6           0       -1.828694   -1.898447    0.192568
      2          6           0       -2.036202   -0.429370   -0.192233
      3          6           0       -0.794663    0.493166   -0.143187
      4          6           0       -1.211053    1.875259   -0.676835
      5          6           0       -0.217045    0.632517    1.303769
      6          6           0        1.309178    0.534514    1.157945
      7          6           0        1.497325   -0.483342    0.020491
      8          6           0        2.905735   -0.542081   -0.567023
      9          6           0        0.403425   -0.063197   -0.981368
     10          1           0       -2.770849   -2.449364    0.107317
     11          1           0       -1.479491   -2.012549    1.223609
     12          1           0       -1.102098   -2.393774   -0.459463
     13          1           0       -2.808399    0.001615    0.459630
     14          1           0       -2.449500   -0.390344   -1.209280
     15          1           0       -2.064113    2.276518   -0.117591
     16          1           0       -1.499228    1.821733   -1.733121
     17          1           0       -0.389044    2.594855   -0.593988
     18          1           0       -0.573925   -0.184267    1.939990
     19          1           0       -0.541204    1.563241    1.779948
     20          1           0        1.813445    0.244471    2.085453
     21          1           0        1.729591    1.502458    0.851910
     22          1           0        1.243079   -1.477048    0.416231
     23          1           0        3.203230    0.434951   -0.966483
     24          1           0        2.969488   -1.267843   -1.385153
     25          1           0        3.643163   -0.830738    0.189947
     26          1           0        0.107350   -0.879512   -1.647844
     27          1           0        0.800474    0.731485   -1.625875
 ---------------------------------------------------------------------

 SCF Done:  E(RB3LYP) =  -353.841027899     A.U. after    1 cycles

 The electronic state is 1-A.
 Alpha  occ. eigenvalues --  -10.18400 -10.17680 -10.17260 -10.16931 -10.16902
 Alpha  occ. eigenvalues --  -10.16748 -10.16734 -10.16607 -10.16534  -0.84013
 Alpha  occ. eigenvalues --   -0.77435  -0.72876  -0.71074  -0.67157  -0.63070
 Alpha  occ. eigenvalues --   -0.60669  -0.55205  -0.51898  -0.47757  -0.44405
 Alpha  occ. eigenvalues --   -0.44001  -0.42343  -0.41791  -0.40482  -0.39564
 Alpha  occ. eigenvalues --   -0.38377  -0.36702  -0.36170  -0.34571  -0.34139
 Alpha  occ. eigenvalues --   -0.32483  -0.31416  -0.30612  -0.29903  -0.29729
 Alpha  occ. eigenvalues --   -0.29404
 Alpha virt. eigenvalues --    0.07875   0.09768   0.10359   0.12643   0.13227
 Alpha virt. eigenvalues --    0.13699   0.15503   0.15671   0.16710   0.16916
 Alpha virt. eigenvalues --    0.17416   0.17694   0.18506   0.19251   0.19932

 Mulliken charges:
               1
     1  C   -0.400177
     2  C   -0.213059
     3  C    0.353191
     4  C   -0.437359
     5  C   -0.258563
     6  C   -0.204506
     7  C    0.056240
     8  C   -0.407379
     9  C   -0.255869
    10  H    0.111224
    11  H    0.116663
    12  H    0.117394
    13  H    0.089229
    14  H    0.088850
    15  H    0.106059
    16  H    0.107033
    17  H    0.106330
    18  H    0.092040
    19  H    0.087061
    20  H    0.087037
    21  H    0.089753
    22  H    0.068183
    23  H    0.109503
    24  H    0.109435
    25  H    0.108952
    26  H    0.088246
    27  H    0.084488
 Sum of Mulliken charges =  -0.00000

 Dipole moment (field-independent basis, Debye):
    X=             -0.0535    Y=             -0.1011    Z=              0.0321  Tot=              0.1188
 Quadrupole moment (field-independent basis, Debye-Ang):
   XX=            -60.3084   YY=            -59.9190   ZZ=            -59.7063
   XY=              0.2385   XZ=              0.1008   YZ=              0.0530

  Exact polarizability: 103.964  -0.415  93.362   0.345   0.126  88.328
 Approx polarizability: 133.515   0.711 133.362   0.018  -0.023 132.753

                      1                      2                      3
                      A                      A                      A
 Frequencies --     49.5756               123.7144               157.3206
 Red. masses --      2.6222                 1.6517                 1.8404
 Frc consts  --      0.0038                 0.0149                 0.0268
 IR Inten    --      0.0025                 0.0027                 0.0009

                      4                      5                      6
                      A                      A                      A
 Frequencies --    225.3835               235.1299               245.4077
 Red. masses --      1.9531                 1.1167                 1.7665
 Frc consts  --      0.0585                 0.0364                 0.0627
 IR Inten    --      0.0074                 0.0054                 0.0156

                      7                      8                      9
                      A                      A                      A
 Frequencies --    269.6213               282.1530               332.5911
 Red. masses --      1.3515                 1.2971                 1.9764
 Frc consts  --      0.0579                 0.0608                 0.1288
 IR Inten    --      0.0174                 0.0015                 0.0765

                     10                     11                     12
                      A                      A                      A
 Frequencies --    368.7353               403.4774               435.4702
 Red. masses --      2.4420                 1.9346                 1.9339
 Frc consts  --      0.1956                 0.1856                 0.2161
 IR Inten    --      0.0894                 0.0776                 0.0944

                     13                     14                     15
                      A                      A                      A
 Frequencies --    474.8647               519.3074               560.0015
 Red. masses --      2.1913                 3.4030                 2.7289
 Frc consts  --      0.2911                 0.5407                 0.5042
 IR Inten    --      0.5054                 0.1201                 0.4040

                     16                     17                     18
                      A                      A                      A
 Frequencies --    726.8804               786.7227               818.1722
 Red. masses --      2.0816                 1.3020                 2.2599
 Frc consts  --      0.6480                 0.4748                 0.8913
 IR Inten    --      0.2478                 1.5580                 0.1831

                     19                     20                     21
                      A                      A                      A
 Frequencies --    860.0864               868.7491               903.9527
 Red. masses --      1.8765                 2.0677                 1.7704
 Frc consts  --      0.8179                 0.9194                 0.8523
 IR Inten    --      0.1577                 0.6666                 0.3396

                     22                     23                     24
                      A                      A                      A
 Frequencies --    925.7841               941.4811               969.6900
 Red. masses --      1.6693                 1.5896                 1.5317
 Frc consts  --      0.8429                 0.8301                 0.8486
 IR Inten    --      1.1377                 0.2278                 0.2251

                     25                     26                     27
                      A                      A                      A
 Frequencies --   1002.5522              1013.7484              1027.9595
 Red. masses --      1.9554                 1.4186                 1.6382
 Frc consts  --      1.1580                 0.8590                 1.0199
 IR Inten    --      1.4084                 3.6675                 1.6440

                     28                     29                     30
                      A                      A                      A
 Frequencies --   1047.0134              1064.0003              1089.1913
 Red. masses --      1.3217                 1.9193                 2.0609
 Frc consts  --      0.8537                 1.2802                 1.4405
 IR Inten    --      0.4782                 0.8539                 0.3650

                     31                     32                     33
                      A                      A                      A
 Frequencies --   1117.0495              1148.0659              1190.8064
 Red. masses --      1.6526                 1.9277                 2.1418
 Frc consts  --      1.2150                 1.4970                 1.7894
 IR Inten    --      0.1986                 1.1020                 1.5766

                     34                     35                     36
                      A                      A                      A
 Frequencies --   1208.8959              1249.0558              1253.5165
 Red. masses --      2.3963                 1.7759                 1.6115
 Frc consts  --      2.0633                 1.6324                 1.4919
 IR Inten    --      1.2132                 1.0255                 1.0189

                     37                     38                     39
                      A                      A                      A
 Frequencies --   1266.9288              1298.4986              1319.5855
 Red. masses --      1.5209                 1.3914                 1.2577
 Frc consts  --      1.4384                 1.3822                 1.2903
 IR Inten    --      2.2006                 0.6971                 2.6529

                     40                     41                     42
                      A                      A                      A
 Frequencies --   1328.3839              1342.6288              1354.8334
 Red. masses --      1.2914                 1.3555                 1.3518
 Frc consts  --      1.3426                 1.4396                 1.4620
 IR Inten    --      0.8718                 1.2193                 1.0393

                     43                     44                     45
                      A                      A                      A
 Frequencies --   1374.6555              1388.7508              1410.7870
 Red. masses --      1.4856                 1.5287                 1.2587
 Frc consts  --      1.6540                 1.7371                 1.4760
 IR Inten    --      0.9204                 2.7895                 1.4311

                     46                     47                     48
                      A                      A                      A
 Frequencies --   1411.5512              1414.2658              1478.6444
 Red. masses --      1.2258                 1.2564                 1.0685
 Frc consts  --      1.4390                 1.4807                 1.3765
 IR Inten    --      0.1599                 6.6979                 0.2913

                     49                     50                     51
                      A                      A                      A
 Frequencies --   1485.3893              1488.1042              1496.6296
 Red. masses --      1.0699                 1.0856                 1.0520
 Frc consts  --      1.3908                 1.4164                 1.3883
 IR Inten    --      0.8128                 0.3503                 0.6820

                     52                     53                     54
                      A                      A                      A
 Frequencies --   1497.3734              1498.8909              1499.8806
 Red. masses --      1.0535                 1.0474                 1.0564
 Frc consts  --      1.3917                 1.3865                 1.4002
 IR Inten    --      2.8834                 4.8869                 2.6959

                     55                     56                     57
                      A                      A                      A
 Frequencies --   1505.2922              1509.0290              1511.4952
 Red. masses --      1.0628                 1.0981                 1.0555
 Frc consts  --      1.4189                 1.4733                 1.4208
 IR Inten    --      3.4768                 3.5511                 9.5129

                     58                     59                     60
                      A                      A                      A
 Frequencies --   2997.1860              3004.5232              3013.9297
 Red. masses --      1.0804                 1.0585                 1.0655
 Frc consts  --      5.7185                 5.6299                 5.7027
 IR Inten    --      5.2079                25.3203                25.3293

                     61                     62                     63
                      A                      A                      A
 Frequencies --   3016.9494              3020.5046              3026.3805
 Red. masses --      1.0400                 1.0407                 1.0574
 Frc consts  --      5.5771                 5.5939                 5.7059
 IR Inten    --     15.6697                32.4614                65.5640

                     64                     65                     66
                      A                      A                      A
 Frequencies --   3035.8014              3036.7348              3042.5128
 Red. masses --      1.0407                 1.0989                 1.0593
 Frc consts  --      5.6509                 5.9708                 5.7772
 IR Inten    --     17.6012                17.5087                21.6858

                     67                     68                     69
                      A                      A                      A
 Frequencies --   3070.0885              3072.0455              3081.5723
 Red. masses --      1.0959                 1.0976                 1.1036
 Frc consts  --      6.0856                 6.1031                 6.1745
 IR Inten    --     44.6771                 4.2274                23.2976

                     70                     71                     72
                      A                      A                      A
 Frequencies --   3086.6232              3087.7952              3090.1930
 Red. masses --      1.1014                 1.1009                 1.1011
 Frc consts  --      6.1824                 6.1843                 6.1950
 IR Inten    --     28.5228                39.3515                80.0002

                     73                     74                     75
                      A                      A                      A
 Frequencies --   3091.5401              3099.6757              3104.6977
 Red. masses --      1.1012                 1.1004                 1.1008
 Frc consts  --      6.2009                 6.2290                 6.2519
 IR Inten    --     30.1726                40.5130                43.8692

 - Thermochemistry -
 -------------------
 Temperature   298.150 Kelvin.  Pressure   1.00000 Atm.
 Atom     1 has atomic number  6 and mass  12.00000

 Molecular mass:   126.14085 amu.
 Principal axes and moments of inertia in atomic units:
                           1         2         3
     Eigenvalues --   833.425701521.069671740.86904
           X            0.99999   0.00234  -0.00455
           Y           -0.00242   0.99985  -0.01740
           Z            0.00451   0.01741   0.99984
 This molecule is an asymmetric top.
 Rotational symmetry number  1.
 Warning -- assumption of classical behavior for rotation
           may cause significant error
 Rotational temperatures (Kelvin)      0.10393     0.05694     0.04975
 Rotational constants (GHZ):           2.16545     1.18649     1.03669
 Zero-point vibrational energy     662470.9 (Joules/Mol)
                                  158.33434 (Kcal/Mol)
 Warning -- explicit consideration of  15 degrees of freedom as
           vibrations may cause significant error
 Vibrational temperatures:     71.33   178.00   226.35   324.28   338.30
          (Kelvin)            353.09   387.92   405.96   478.52   530.53
                              580.51   626.54   683.22   747.17   805.72
                             1045.82  1131.92  1177.17  1237.47  1249.94
                             1300.59  1332.00  1354.58  1395.17  1442.45
                             1458.56  1479.00  1506.42  1530.86  1567.10
                             1607.19  1651.81  1713.30  1739.33  1797.11
                             1803.53  1822.83  1868.25  1898.59  1911.25
                             1931.74  1949.30  1977.82  1998.10  2029.81
                             2030.91  2034.81  2127.44  2137.14  2141.05
                             2153.32  2154.39  2156.57  2157.99  2165.78
                             2171.16  2174.70  4312.28  4322.84  4336.37
                             4340.72  4345.83  4354.29  4367.84  4369.18
                             4377.50  4417.17  4419.99  4433.70  4440.96
                             4442.65  4446.10  4448.04  4459.74  4466.97

 Zero-point correction=                           0.252322 (Hartree/Particle)
 Thermal correction to Energy=                    0.262693
 Thermal correction to Enthalpy=                  0.263637
 Thermal correction to Gibbs Free Energy=         0.217424
 Sum of electronic and zero-point Energies=           -353.588706
 Sum of electronic and thermal Energies=              -353.578335
 Sum of electronic and thermal Enthalpies=            -353.577391
 Sum of electronic and thermal Free Energies=         -353.623604

                     E (Thermal)             CV                S
                      KCal/Mol        Cal/Mol-Kelvin    Cal/Mol-Kelvin
 Total                  164.842             40.592             97.265
 Electronic               0.000              0.000              0.000
 Translational            0.889              2.981             40.410
 Rotational               0.889              2.981             29.180
 Vibrational            163.065             34.630             27.675
 Vibration     1          0.595              1.978              4.834
 Vibration     2          0.610              1.929              3.042
 Vibration     3          0.621              1.894              2.582
 Vibration     4          0.650              1.802              1.915
 Vibration     5          0.655              1.787              1.839
 Vibration     6          0.660              1.770              1.763
 Vibration     7          0.674              1.729              1.599
 Vibration     8          0.681              1.707              1.521
 Vibration     9          0.715              1.610              1.247
 Vibration    10          0.741              1.536              1.085
 Vibration    11          0.769              1.463              0.950
 Vibration    12          0.796              1.393              0.841
 Vibration    13          0.832              1.306              0.724
 Vibration    14          0.874              1.207              0.612
 Vibration    15          0.916              1.118              0.524

 Optimization completed.
    -- Stationary point found.
 Normal termination of Gaussian 16 at Sun May 28 22:50:00 2023.
