 Gaussian 16, Revision A.03,
 Gaussian 16:  ES64L-G16RevA.03 25-Dec-2016

 -----------------------------
 # opt freq b3lyp/6-31g(2df,p)
 -----------------------------

 -------------------
 Title Card Required
 -------------------
 Symbolic Z-matrix:
 Charge =  0 Multiplicity = 1

 SCF Done:  E(RB3LYP) =  -624.370936034     A.U. after   13 cycles
 SCF Done:  E(RB3LYP) =  -624.385269111     A.U. after   12 cycles
 SCF Done:  E(RB3LYP) =  -624.391603428     A.U. after   10 cycles
 SCF Done:  E(RB3LYP) =  -624.394227124     A.U. after   11 cycles
 SCF Done:  E(RB3LYP) =  -624.395798344     A.U. after   10 cycles
 SCF Done:  E(RB3LYP) =  -624.398086894     A.U. after   12 cycles
 SCF Done:  E(RB3LYP) =  -624.399222084     A.U. after   11 cycles
 SCF Done:  E(RB3LYP) =  -624.399535543     A.U. after   10 cycles
 SCF Done:  E(RB3LYP) =  -624.399358701     A.U. after   11 cycles
 SCF Done:  E(RB3LYP) =  -624.400131192     A.U. after   11 cycles
 SCF Done:  E(RB3LYP) =  -624.402051227     A.U. after    9 cycles
 SCF Done:  E(RB3LYP) =  -624.402029283     A.U. after    9 cycles
 SCF Done:  E(RB3LYP) =  -624.402098755     A.U. after   10 cycles
 SCF Done:  E(RB3LYP) =  -624.402119559     A.U. after    8 cycles
 SCF Done:  E(RB3LYP) =  -624.402117859     A.U. after    8 cycles
 SCF Done:  E(RB3LYP) =  -624.402124245     A.U. after    9 cycles
 SCF Done:  E(RB3LYP) =  -624.402124831     A.U. after    6 cycles
 SCF Done:  E(RB3LYP) =  -624.402125261     A.U. after    7 cycles
 SCF Done:  E(RB3LYP) =  -624.402125786     A.U. after    7 cycles
 Optimization completed.
    -- Stationary point found.
 Normal termination of Gaussian 16 at Tue May 23 01:45:14 2023.

 ----------------------------------------------------------------------
 #N Geom=AllCheck Guess=TCheck SCRF=Check GenChk RB3LYP/6-31G(2df,p) Fr
 eq
 ----------------------------------------------------------------------

 Structure from the checkpoint file:  "CCC1dCCCCCqCCqCrCOrCC1.chk"
 -------------------
 Title Card Required
 -------------------
 Charge =  0 Multiplicity = 1

                         Standard orientation:
 ---------------------------------------------------------------------
 Center     Atomic      Atomic             Coordinates (Angstroms)
 Number     Number       Type             X           Y           Z
 ---------------------------------------------------------------------
      1          6           0       -4.717033   -1.470636    0.249805
      2          6           0       -3.240773   -1.643195   -0.148590
      3          6           0       -2.466577   -0.338967   -0.170869
      4          6           0       -2.128487    0.208277   -1.344905
      5          6           0       -1.382471    1.473798   -1.699885
      6          6           0       -0.856551    2.398415   -0.590225
      7          6           0        0.381013    1.895349    0.185530
      8          6           0        0.436978    0.411458    0.604814
      9          6           0        1.831675    0.076857    1.186025
     10          6           0        2.983323   -0.067893    0.170247
     11          6           0        4.351140    0.073408    0.850013
     12          6           0        2.895576   -1.407480   -0.577898
     13          8           0        3.883248   -1.554635   -1.589513
     14          6           0       -0.645996   -0.003025    1.616677
     15          6           0       -2.116744    0.225216    1.196215
     16          1           0       -5.228611   -2.437995    0.283151
     17          1           0       -5.238912   -0.833329   -0.471092
     18          1           0       -4.819795   -1.008001    1.236856
     19          1           0       -3.190645   -2.120561   -1.133206
     20          1           0       -2.762788   -2.336296    0.558359
     21          1           0       -2.440886   -0.339840   -2.235466
     22          1           0       -2.044950    2.065802   -2.349049
     23          1           0       -0.542871    1.195033   -2.356764
     24          1           0       -1.671363    2.654434    0.090574
     25          1           0       -0.576103    3.347773   -1.063071
     26          1           0        0.511698    2.520623    1.080092
     27          1           0        1.260439    2.093593   -0.439985
     28          1           0        0.286773   -0.198053   -0.293871
     29          1           0        1.768536   -0.858132    1.760321
     30          1           0        2.098876    0.851606    1.917373
     31          1           0        2.895208    0.729762   -0.583387
     32          1           0        4.449168   -0.643502    1.674480
     33          1           0        4.487658    1.077402    1.264446
     34          1           0        5.156742   -0.124286    0.138499
     35          1           0        1.887361   -1.551956   -0.994204
     36          1           0        3.074056   -2.229841    0.125857
     37          1           0        3.714348   -0.886190   -2.261221
     38          1           0       -0.474391    0.519063    2.568439
     39          1           0       -0.508736   -1.071075    1.830930
     40          1           0       -2.357098    1.287247    1.256204
     41          1           0       -2.750134   -0.255697    1.950114
 ---------------------------------------------------------------------

 SCF Done:  E(RB3LYP) =  -624.402125786     A.U. after    1 cycles

 The electronic state is 1-A.
 Alpha  occ. eigenvalues --  -19.13021 -10.21829 -10.18307 -10.18173 -10.17894
 Alpha  occ. eigenvalues --  -10.17846 -10.17773 -10.17748 -10.17662 -10.17632
 Alpha  occ. eigenvalues --  -10.17576 -10.17418 -10.17162 -10.17008 -10.16482
 Alpha  occ. eigenvalues --   -1.01021  -0.83168  -0.80576  -0.78086  -0.76619
 Alpha  occ. eigenvalues --   -0.73462  -0.69922  -0.67296  -0.66892  -0.63816
 Alpha  occ. eigenvalues --   -0.61098  -0.58114  -0.57063  -0.55420  -0.49841
 Alpha  occ. eigenvalues --   -0.49078  -0.46944  -0.46837  -0.45622  -0.45045
 Alpha  occ. eigenvalues --   -0.43269  -0.42607  -0.42007  -0.41492  -0.40040
 Alpha  occ. eigenvalues --   -0.39643  -0.38479  -0.37924  -0.37690  -0.36420
 Alpha  occ. eigenvalues --   -0.36099  -0.35724  -0.35215  -0.34598  -0.33265
 Alpha  occ. eigenvalues --   -0.33005  -0.32515  -0.31683  -0.31549  -0.29945
 Alpha  occ. eigenvalues --   -0.29644  -0.28952  -0.25886  -0.22574
 Alpha virt. eigenvalues --    0.02828   0.07220   0.07861   0.09716   0.10066
 Alpha virt. eigenvalues --    0.10712   0.11752   0.12169   0.13052   0.13788
 Alpha virt. eigenvalues --    0.14165   0.15236   0.15826   0.16245   0.16452

 Mulliken charges:
               1
     1  C   -0.367857
     2  C   -0.270965
     3  C    0.313395
     4  C   -0.128501
     5  C   -0.241355
     6  C   -0.228526
     7  C   -0.185255
     8  C    0.019645
     9  C   -0.205034
    10  C    0.002027
    11  C   -0.394350
    12  C   -0.057070
    13  O   -0.420685
    14  C   -0.196992
    15  C   -0.329673
    16  H    0.110240
    17  H    0.117481
    18  H    0.117141
    19  H    0.095671
    20  H    0.095642
    21  H    0.068084
    22  H    0.104248
    23  H    0.097823
    24  H    0.106502
    25  H    0.088261
    26  H    0.088866
    27  H    0.093882
    28  H    0.082719
    29  H    0.084713
    30  H    0.087427
    31  H    0.058471
    32  H    0.109863
    33  H    0.105425
    34  H    0.123944
    35  H    0.088119
    36  H    0.106342
    37  H    0.279036
    38  H    0.088648
    39  H    0.092875
    40  H    0.108584
    41  H    0.091188
 Sum of Mulliken charges =  -0.00000

 Dipole moment (field-independent basis, Debye):
    X=             -1.1328    Y=              1.2445    Z=              0.0024  Tot=              1.6828
 Quadrupole moment (field-independent basis, Debye-Ang):
   XX=           -105.2115   YY=            -97.7225   ZZ=            -92.9507
   XY=              6.0544   XZ=              0.2560   YZ=             -3.0740

  Exact polarizability: 170.548   9.740 143.912  -0.760  -7.336 147.162
 Approx polarizability: 208.157   8.429 213.273  -7.748 -13.697 233.076

                      1                      2                      3
                      A                      A                      A
 Frequencies --     20.2898                36.4496                53.0219
 Red. masses --      3.4675                 3.0862                 3.6829
 Frc consts  --      0.0008                 0.0024                 0.0061
 IR Inten    --      0.0874                 0.2474                 0.2359

                      4                      5                      6
                      A                      A                      A
 Frequencies --     84.4501                89.5311               117.7456
 Red. masses --      2.4289                 2.5955                 2.7815
 Frc consts  --      0.0102                 0.0123                 0.0227
 IR Inten    --      0.2942                 1.3122                 1.4135

                      7                      8                      9
                      A                      A                      A
 Frequencies --    148.1879               188.4644               191.3963
 Red. masses --      2.0029                 2.9051                 2.6794
 Frc consts  --      0.0259                 0.0608                 0.0578
 IR Inten    --      0.3285                 0.8676                 1.2773

                     10                     11                     12
                      A                      A                      A
 Frequencies --    220.3838               236.5460               239.6720
 Red. masses --      1.2745                 1.6265                 1.5991
 Frc consts  --      0.0365                 0.0536                 0.0541
 IR Inten    --      0.0102                 0.4156                 1.9593

                     13                     14                     15
                      A                      A                      A
 Frequencies --    259.9743               277.7796               289.8343
 Red. masses --      2.1954                 2.0559                 2.0514
 Frc consts  --      0.0874                 0.0935                 0.1015
 IR Inten    --      1.1159                 7.8164                17.2422

                     16                     17                     18
                      A                      A                      A
 Frequencies --    297.8848               315.4194               339.5096
 Red. masses --      1.7329                 2.0478                 2.1371
 Frc consts  --      0.0906                 0.1200                 0.1451
 IR Inten    --     54.9318                11.1254                 0.2166

                     19                     20                     21
                      A                      A                      A
 Frequencies --    369.2462               383.0288               414.8187
 Red. masses --      2.7664                 2.4109                 2.1382
 Frc consts  --      0.2222                 0.2084                 0.2168
 IR Inten    --      5.2302                 0.2568                 0.8467

                     22                     23                     24
                      A                      A                      A
 Frequencies --    419.3126               435.5693               530.8721
 Red. masses --      1.9256                 2.4572                 3.2018
 Frc consts  --      0.1995                 0.2747                 0.5316
 IR Inten    --      1.3974                 3.0796                 3.8497

                     25                     26                     27
                      A                      A                      A
 Frequencies --    576.8976               610.7326               664.5227
 Red. masses --      2.6926                 2.4026                 2.7392
 Frc consts  --      0.5280                 0.5280                 0.7127
 IR Inten    --      4.4326                 1.0398                 2.0566

                     28                     29                     30
                      A                      A                      A
 Frequencies --    731.5234               748.7277               789.2723
 Red. masses --      1.9379                 2.5354                 1.2495
 Frc consts  --      0.6110                 0.8374                 0.4586
 IR Inten    --      0.4408                 0.4891                 0.6868

                     31                     32                     33
                      A                      A                      A
 Frequencies --    815.6826               826.1242               841.8003
 Red. masses --      1.6572                 1.8198                 1.6183
 Frc consts  --      0.6496                 0.7318                 0.6756
 IR Inten    --      2.9653                 2.7677                 3.1744

                     34                     35                     36
                      A                      A                      A
 Frequencies --    853.9051               877.2767               905.1859
 Red. masses --      2.2167                 1.9205                 1.4029
 Frc consts  --      0.9523                 0.8708                 0.6772
 IR Inten    --      1.8198                 3.2245                 5.8700

                     37                     38                     39
                      A                      A                      A
 Frequencies --    918.2847               933.0216               934.3297
 Red. masses --      1.7768                 1.7998                 1.8639
 Frc consts  --      0.8828                 0.9231                 0.9587
 IR Inten    --      1.8651                 2.0653                 4.9703

                     40                     41                     42
                      A                      A                      A
 Frequencies --    979.3762               987.3705              1006.0865
 Red. masses --      1.8964                 2.0452                 1.7703
 Frc consts  --      1.0717                 1.1748                 1.0558
 IR Inten    --      0.3752                 2.8221                 1.2416

                     43                     44                     45
                      A                      A                      A
 Frequencies --   1015.2067              1038.9240              1061.4840
 Red. masses --      2.0505                 2.3366                 2.8068
 Frc consts  --      1.2451                 1.4859                 1.8633
 IR Inten    --      0.0743                16.6983                49.1307

                     46                     47                     48
                      A                      A                      A
 Frequencies --   1069.5679              1079.8661              1087.3607
 Red. masses --      3.1707                 1.9912                 1.6741
 Frc consts  --      2.1371                 1.3681                 1.1662
 IR Inten    --     68.5407                 4.5677                 0.8003

                     49                     50                     51
                      A                      A                      A
 Frequencies --   1105.1630              1115.4068              1127.8848
 Red. masses --      1.8436                 1.7774                 2.1898
 Frc consts  --      1.3267                 1.3029                 1.6413
 IR Inten    --      0.1429                 0.0267                 0.7616

                     52                     53                     54
                      A                      A                      A
 Frequencies --   1138.1135              1157.8251              1167.7150
 Red. masses --      1.6890                 2.1450                 1.4030
 Frc consts  --      1.2890                 1.6942                 1.1271
 IR Inten    --      4.4142                 1.3363                 1.6915

                     55                     56                     57
                      A                      A                      A
 Frequencies --   1179.5546              1189.9593              1238.8150
 Red. masses --      1.7688                 1.3379                 1.3088
 Frc consts  --      1.4500                 1.1162                 1.1835
 IR Inten    --      3.5628                 2.7720                 0.8560

                     58                     59                     60
                      A                      A                      A
 Frequencies --   1246.6556              1262.6503              1280.8804
 Red. masses --      1.3463                 1.3591                 1.2668
 Frc consts  --      1.2328                 1.2767                 1.2245
 IR Inten    --      1.4615                 6.1340                 1.8656

                     61                     62                     63
                      A                      A                      A
 Frequencies --   1285.0659              1299.1400              1319.0404
 Red. masses --      1.1732                 1.2472                 1.2714
 Frc consts  --      1.1415                 1.2402                 1.3033
 IR Inten    --      0.0806                 2.0130                 3.1088

                     64                     65                     66
                      A                      A                      A
 Frequencies --   1338.4068              1345.0396              1346.5972
 Red. masses --      1.1987                 1.2416                 1.2991
 Frc consts  --      1.2652                 1.3235                 1.3879
 IR Inten    --      1.0060                 4.9369                 5.3070

                     67                     68                     69
                      A                      A                      A
 Frequencies --   1350.5720              1364.7578              1379.5859
 Red. masses --      1.4790                 1.2616                 1.3821
 Frc consts  --      1.5895                 1.3844                 1.5499
 IR Inten    --      4.5080                 0.4412                12.1234

                     70                     71                     72
                      A                      A                      A
 Frequencies --   1381.9366              1386.8591              1394.6430
 Red. masses --      1.4202                 1.4024                 1.3975
 Frc consts  --      1.5980                 1.5893                 1.6015
 IR Inten    --      2.2201                 8.0294                 5.8144

                     73                     74                     75
                      A                      A                      A
 Frequencies --   1401.3171              1405.2947              1406.4945
 Red. masses --      1.2716                 1.3634                 1.2320
 Frc consts  --      1.4712                 1.5864                 1.4360
 IR Inten    --     10.6099                 9.4247                 4.0433

                     76                     77                     78
                      A                      A                      A
 Frequencies --   1409.4225              1415.5420              1420.5734
 Red. masses --      1.3759                 1.4231                 1.2614
 Frc consts  --      1.6103                 1.6801                 1.4998
 IR Inten    --      4.1571                 0.4655                27.0221

                     79                     80                     81
                      A                      A                      A
 Frequencies --   1470.9778              1474.0297              1479.9027
 Red. masses --      1.0869                 1.0821                 1.0739
 Frc consts  --      1.3856                 1.3852                 1.3858
 IR Inten    --      3.8141                 0.4058                 1.5905

                     82                     83                     84
                      A                      A                      A
 Frequencies --   1484.9274              1490.3717              1491.3152
 Red. masses --      1.0780                 1.0815                 1.0846
 Frc consts  --      1.4005                 1.4153                 1.4213
 IR Inten    --      1.1755                 2.8148                 1.2983

                     85                     86                     87
                      A                      A                      A
 Frequencies --   1493.7727              1497.3740              1505.4516
 Red. masses --      1.0787                 1.0414                 1.0791
 Frc consts  --      1.4181                 1.3757                 1.4410
 IR Inten    --      8.8888                 5.0959                 1.8074

                     88                     89                     90
                      A                      A                      A
 Frequencies --   1506.7085              1507.2817              1528.8456
 Red. masses --      1.0548                 1.0725                 1.0843
 Frc consts  --      1.4109                 1.4356                 1.4933
 IR Inten    --      4.8719                 2.2487                 5.0951

                     91                     92                     93
                      A                      A                      A
 Frequencies --   1731.7966              2979.3891              2981.3046
 Red. masses --      7.0552                 1.0653                 1.0792
 Frc consts  --     12.4668                 5.5715                 5.6518
 IR Inten    --      0.4291                27.8713                18.2772

                     94                     95                     96
                      A                      A                      A
 Frequencies --   2989.2905              2999.4013              3000.4566
 Red. masses --      1.0661                 1.0602                 1.0892
 Frc consts  --      5.6127                 5.6197                 5.7776
 IR Inten    --     61.1349                 2.3033                17.7113

                     97                     98                     99
                      A                      A                      A
 Frequencies --   3003.5650              3004.6727              3007.4265
 Red. masses --      1.0646                 1.0657                 1.0615
 Frc consts  --      5.6587                 5.6685                 5.6565
 IR Inten    --     18.0073                21.7784                66.1056

                    100                    101                    102
                      A                      A                      A
 Frequencies --   3027.0408              3027.8116              3032.5549
 Red. masses --      1.0717                 1.0527                 1.0363
 Frc consts  --      5.7858                 5.6862                 5.6153
 IR Inten    --     35.0782                15.4065                26.2120

                    103                    104                    105
                      A                      A                      A
 Frequencies --   3033.2423              3034.8009              3040.7824
 Red. masses --      1.0823                 1.0984                 1.0899
 Frc consts  --      5.8669                 5.9601                 5.9376
 IR Inten    --     21.3648                 7.3993                51.9103

                    106                    107                    108
                      A                      A                      A
 Frequencies --   3045.8880              3053.9182              3057.6805
 Red. masses --      1.0719                 1.0944                 1.0960
 Frc consts  --      5.8591                 6.0137                 6.0373
 IR Inten    --     33.4903                58.8168                51.4223

                    109                    110                    111
                      A                      A                      A
 Frequencies --   3059.9031              3088.0014              3091.3653
 Red. masses --      1.0953                 1.0935                 1.0991
 Frc consts  --      6.0420                 6.1435                 6.1885
 IR Inten    --     11.6081                34.0703                40.8757

                    112                    113                    114
                      A                      A                      A
 Frequencies --   3100.9832              3103.4473              3106.8227
 Red. masses --      1.0983                 1.0901                 1.1012
 Frc consts  --      6.2224                 6.1860                 6.2623
 IR Inten    --     12.3298                51.1395                47.4156

                    115                    116                    117
                      A                      A                      A
 Frequencies --   3118.5798              3120.4524              3813.2635
 Red. masses --      1.0875                 1.1002                 1.0661
 Frc consts  --      6.2313                 6.3116                 9.1332
 IR Inten    --     34.9103                20.5092                12.9700

 - Thermochemistry -
 -------------------
 Temperature   298.150 Kelvin.  Pressure   1.00000 Atm.
 Atom     1 has atomic number  6 and mass  12.00000

 Molecular mass:   210.19837 amu.
 Principal axes and moments of inertia in atomic units:
                           1         2         3
     Eigenvalues --  2043.757096456.384406780.98202
           X            0.99989   0.01414   0.00517
           Y           -0.01384   0.99844  -0.05416
           Z           -0.00593   0.05408   0.99852
 This molecule is an asymmetric top.
 Rotational symmetry number  1.
 Warning -- assumption of classical behavior for rotation
           may cause significant error
 Rotational temperatures (Kelvin)      0.04238     0.01342     0.01277
 Rotational constants (GHZ):           0.88305     0.27953     0.26615
 Zero-point vibrational energy     991450.8 (Joules/Mol)
                                  236.96243 (Kcal/Mol)
 Warning -- explicit consideration of  26 degrees of freedom as
           vibrations may cause significant error
 Vibrational temperatures:     29.19    52.44    76.29   121.50   128.82
          (Kelvin)            169.41   213.21   271.16   275.38   317.08
                              340.34   344.83   374.05   399.66   417.01
                              428.59   453.82   488.48   531.26   551.09
                              596.83   603.30   626.69   763.81   830.03
                              878.71   956.10  1052.50  1077.25  1135.59
                             1173.59  1188.61  1211.16  1228.58  1262.21
                             1302.36  1321.21  1342.41  1344.29  1409.10
                             1420.61  1447.53  1460.66  1494.78  1527.24
                             1538.87  1553.69  1564.47  1590.08  1604.82
                             1622.77  1637.49  1665.85  1680.08  1697.12
                             1712.09  1782.38  1793.66  1816.67  1842.90
                             1848.92  1869.17  1897.80  1925.67  1935.21
                             1937.45  1943.17  1963.58  1984.92  1988.30
                             1995.38  2006.58  2016.18  2021.91  2023.63
                             2027.84  2036.65  2043.89  2116.41  2120.80
                             2129.25  2136.48  2144.31  2145.67  2149.21
                             2154.39  2166.01  2167.82  2168.64  2199.67
                             2491.67  4286.68  4289.43  4300.92  4315.47
                             4316.99  4321.46  4323.05  4327.02  4355.24
                             4356.35  4363.17  4364.16  4366.40  4375.01
                             4382.35  4393.91  4399.32  4402.52  4442.95
                             4447.79  4461.62  4465.17  4470.02  4486.94
                             4489.64  5486.44

 Zero-point correction=                           0.377624 (Hartree/Particle)
 Thermal correction to Energy=                    0.394880
 Thermal correction to Enthalpy=                  0.395824
 Thermal correction to Gibbs Free Energy=         0.332117
 Sum of electronic and zero-point Energies=           -624.024502
 Sum of electronic and thermal Energies=              -624.007246
 Sum of electronic and thermal Enthalpies=            -624.006302
 Sum of electronic and thermal Free Energies=         -624.070009

                     E (Thermal)             CV                S
                      KCal/Mol        Cal/Mol-Kelvin    Cal/Mol-Kelvin
 Total                  247.791             66.038            134.083
 Electronic               0.000              0.000              0.000
 Translational            0.889              2.981             41.932
 Rotational               0.889              2.981             32.859
 Vibrational            246.013             60.076             59.292
 Vibration     1          0.593              1.986              6.606
 Vibration     2          0.594              1.982              5.443
 Vibration     3          0.596              1.976              4.701
 Vibration     4          0.601              1.960              3.785
 Vibration     5          0.602              1.957              3.670
 Vibration     6          0.608              1.935              3.137
 Vibration     7          0.618              1.905              2.695
 Vibration     8          0.633              1.856              2.243
 Vibration     9          0.634              1.852              2.214
 Vibration    10          0.647              1.810              1.956
 Vibration    11          0.655              1.785              1.829
 Vibration    12          0.657              1.780              1.805
 Vibration    13          0.668              1.746              1.662
 Vibration    14          0.679              1.715              1.547
 Vibration    15          0.686              1.693              1.475
 Vibration    16          0.691              1.678              1.429
 Vibration    17          0.703              1.644              1.334
 Vibration    18          0.719              1.597              1.214
 Vibration    19          0.742              1.535              1.083
 Vibration    20          0.752              1.506              1.027
 Vibration    21          0.778              1.438              0.910
 Vibration    22          0.782              1.428              0.894
 Vibration    23          0.796              1.393              0.841
 Vibration    24          0.886              1.182              0.585
 Vibration    25          0.933              1.081              0.491
 Vibration    26          0.970              1.009              0.432

 Optimization completed.
    -- Stationary point found.
 Normal termination of Gaussian 16 at Tue May 23 05:49:19 2023.
