 Gaussian 16, Revision A.03,
 Gaussian 16:  ES64L-G16RevA.03 25-Dec-2016

 -----------------------------
 # opt freq b3lyp/6-31g(2df,p)
 -----------------------------

 -------------------
 Title Card Required
 -------------------
 Symbolic Z-matrix:
 Charge =  0 Multiplicity = 1

 SCF Done:  E(RB3LYP) =  -543.576874015     A.U. after   12 cycles
 SCF Done:  E(RB3LYP) =  -543.582306527     A.U. after   11 cycles
 SCF Done:  E(RB3LYP) =  -543.586021009     A.U. after   11 cycles
 SCF Done:  E(RB3LYP) =  -543.588500058     A.U. after   10 cycles
 SCF Done:  E(RB3LYP) =  -543.590502988     A.U. after   11 cycles
 SCF Done:  E(RB3LYP) =  -543.591407937     A.U. after   11 cycles
 SCF Done:  E(RB3LYP) =  -543.592197233     A.U. after   10 cycles
 SCF Done:  E(RB3LYP) =  -543.592986951     A.U. after   10 cycles
 SCF Done:  E(RB3LYP) =  -543.593284988     A.U. after   10 cycles
 SCF Done:  E(RB3LYP) =  -543.593201747     A.U. after   10 cycles
 SCF Done:  E(RB3LYP) =  -543.593554920     A.U. after   10 cycles
 SCF Done:  E(RB3LYP) =  -543.593565402     A.U. after    9 cycles
 SCF Done:  E(RB3LYP) =  -543.593533729     A.U. after    9 cycles
 SCF Done:  E(RB3LYP) =  -543.593570984     A.U. after    9 cycles
 SCF Done:  E(RB3LYP) =  -543.593567901     A.U. after    8 cycles
 SCF Done:  E(RB3LYP) =  -543.593571073     A.U. after    8 cycles
 SCF Done:  E(RB3LYP) =  -543.593570979     A.U. after    6 cycles
 SCF Done:  E(RB3LYP) =  -543.593570957     A.U. after    6 cycles
 Optimization completed.
    -- Stationary point found.
 Normal termination of Gaussian 16 at Mon May 22 13:34:43 2023.

 ----------------------------------------------------------------------
 #N Geom=AllCheck Guess=TCheck SCRF=Check GenChk RB3LYP/6-31G(2df,p) Fr
 eq
 ----------------------------------------------------------------------

 Structure from the checkpoint file:  "CCC1CCqOrCCC1CCO.chk"
 -------------------
 Title Card Required
 -------------------
 Charge =  0 Multiplicity = 1

                         Standard orientation:
 ---------------------------------------------------------------------
 Center     Atomic      Atomic             Coordinates (Angstroms)
 Number     Number       Type             X           Y           Z
 ---------------------------------------------------------------------
      1          6           0        0.204060    3.455245    0.037369
      2          6           0       -0.546648    2.121606    0.128880
      3          6           0        0.331566    0.917773    0.515103
      4          6           0        1.403787    0.588027   -0.541362
      5          6           0        2.329222   -0.549898   -0.093124
      6          8           0        3.334650   -0.830060   -1.060075
      7          6           0        1.524572   -1.795898    0.286360
      8          6           0        0.458522   -1.465786    1.340920
      9          6           0       -0.496714   -0.344555    0.880471
     10          6           0       -1.458303   -0.830560   -0.238054
     11          6           0       -2.928992   -0.516730    0.053273
     12          8           0       -3.810539   -1.038544   -0.928145
     13          1           0       -0.488642    4.277907   -0.165757
     14          1           0        0.951710    3.453701   -0.761320
     15          1           0        0.721886    3.681931    0.976162
     16          1           0       -1.048230    1.925004   -0.827870
     17          1           0       -1.344583    2.220209    0.876180
     18          1           0        0.867642    1.201496    1.434521
     19          1           0        2.016328    1.466498   -0.765074
     20          1           0        0.920316    0.297710   -1.486872
     21          1           0        2.890131   -0.214131    0.789527
     22          1           0        2.892477   -1.148506   -1.854825
     23          1           0        2.204598   -2.573693    0.648706
     24          1           0        1.043999   -2.194612   -0.619547
     25          1           0        0.960121   -1.149547    2.265474
     26          1           0       -0.116272   -2.364239    1.593116
     27          1           0       -1.115678   -0.074469    1.747633
     28          1           0       -1.376018   -1.915350   -0.369918
     29          1           0       -1.192069   -0.390378   -1.207817
     30          1           0       -3.070625    0.567756    0.181416
     31          1           0       -3.226079   -0.990051    0.996126
     32          1           0       -3.610326   -0.603742   -1.763105
 ---------------------------------------------------------------------

 SCF Done:  E(RB3LYP) =  -543.593570957     A.U. after    1 cycles

 The electronic state is 1-A.
 Alpha  occ. eigenvalues --  -19.13194 -19.12885 -10.22481 -10.22408 -10.18755
 Alpha  occ. eigenvalues --  -10.18696 -10.18222 -10.18060 -10.17903 -10.17679
 Alpha  occ. eigenvalues --  -10.17575 -10.17536  -1.01288  -1.01134  -0.84008
 Alpha  occ. eigenvalues --   -0.77757  -0.76357  -0.72411  -0.70320  -0.63670
 Alpha  occ. eigenvalues --   -0.62251  -0.60305  -0.57994  -0.54255  -0.50261
 Alpha  occ. eigenvalues --   -0.49293  -0.47554  -0.45525  -0.44948  -0.43574
 Alpha  occ. eigenvalues --   -0.42429  -0.42025  -0.40499  -0.39777  -0.39254
 Alpha  occ. eigenvalues --   -0.37150  -0.36439  -0.36032  -0.35612  -0.34210
 Alpha  occ. eigenvalues --   -0.33911  -0.33097  -0.31672  -0.30945  -0.30181
 Alpha  occ. eigenvalues --   -0.29514  -0.26320  -0.25636
 Alpha virt. eigenvalues --    0.06920   0.07553   0.07860   0.09674   0.10383
 Alpha virt. eigenvalues --    0.10919   0.12784   0.13684   0.14179   0.14597
 Alpha virt. eigenvalues --    0.15792   0.16517   0.16757   0.17144   0.17915

 Mulliken charges:
               1
     1  C   -0.394124
     2  C   -0.190543
     3  C    0.022196
     4  C   -0.220807
     5  C    0.131553
     6  O   -0.437698
     7  C   -0.209986
     8  C   -0.245902
     9  C    0.005749
    10  C   -0.210251
    11  C   -0.067680
    12  O   -0.419667
    13  H    0.112309
    14  H    0.121502
    15  H    0.115021
    16  H    0.088358
    17  H    0.093861
    18  H    0.067194
    19  H    0.102913
    20  H    0.078012
    21  H    0.084781
    22  H    0.272374
    23  H    0.100056
    24  H    0.083109
    25  H    0.092372
    26  H    0.094179
    27  H    0.064930
    28  H    0.103769
    29  H    0.082423
    30  H    0.089989
    31  H    0.110870
    32  H    0.279136
 Sum of Mulliken charges =  -0.00000

 Dipole moment (field-independent basis, Debye):
    X=             -0.3601    Y=              0.9015    Z=             -0.3580  Tot=              1.0346
 Quadrupole moment (field-independent basis, Debye-Ang):
   XX=            -93.7562   YY=            -77.0099   ZZ=            -70.0702
   XY=             -3.8621   XZ=              1.7014   YZ=             -0.0079

  Exact polarizability: 120.616  -1.106 117.966   0.102  -0.891 102.913
 Approx polarizability: 160.378   1.784 156.797   1.717   2.228 164.065

                      1                      2                      3
                      A                      A                      A
 Frequencies --     45.4444                69.8270                85.8589
 Red. masses --      2.8262                 4.1064                 2.1152
 Frc consts  --      0.0034                 0.0118                 0.0092
 IR Inten    --      1.2242                 0.2491                 1.9685

                      4                      5                      6
                      A                      A                      A
 Frequencies --     97.9756               134.4390               179.8928
 Red. masses --      2.2246                 2.3712                 2.3017
 Frc consts  --      0.0126                 0.0253                 0.0439
 IR Inten    --      2.6415                 1.4260                 0.8755

                      7                      8                      9
                      A                      A                      A
 Frequencies --    190.5876               225.8223               252.4346
 Red. masses --      3.3208                 1.4601                 3.3987
 Frc consts  --      0.0711                 0.0439                 0.1276
 IR Inten    --      1.1209                 1.7857                 3.9633

                     10                     11                     12
                      A                      A                      A
 Frequencies --    266.9873               276.2790               295.9226
 Red. masses --      1.4992                 1.4265                 1.1642
 Frc consts  --      0.0630                 0.0642                 0.0601
 IR Inten    --     20.8219                54.7330                89.6408

                     13                     14                     15
                      A                      A                      A
 Frequencies --    330.5604               353.8450               403.6852
 Red. masses --      2.9925                 2.4581                 2.9954
 Frc consts  --      0.1927                 0.1813                 0.2876
 IR Inten    --      2.6155                26.7302                 2.0799

                     16                     17                     18
                      A                      A                      A
 Frequencies --    414.1253               451.0874               485.0689
 Red. masses --      2.9351                 2.6213                 2.5777
 Frc consts  --      0.2966                 0.3143                 0.3574
 IR Inten    --      5.2554                 4.3889                 3.6888

                     19                     20                     21
                      A                      A                      A
 Frequencies --    488.9939               529.5998               653.0091
 Red. masses --      3.0395                 2.6202                 2.4331
 Frc consts  --      0.4282                 0.4330                 0.6113
 IR Inten    --      2.0487                 0.3395                 2.1927

                     22                     23                     24
                      A                      A                      A
 Frequencies --    768.3419               785.3784               801.0076
 Red. masses --      1.2689                 1.2332                 1.5684
 Frc consts  --      0.4413                 0.4482                 0.5929
 IR Inten    --      0.9674                 3.0384                 0.5823

                     25                     26                     27
                      A                      A                      A
 Frequencies --    845.9397               877.0983               909.8842
 Red. masses --      2.5253                 3.3143                 1.5368
 Frc consts  --      1.0647                 1.5022                 0.7496
 IR Inten    --      5.9016                 0.7988                 0.6602

                     28                     29                     30
                      A                      A                      A
 Frequencies --    928.2851               971.7002               978.5656
 Red. masses --      2.0610                 2.0958                 1.9045
 Frc consts  --      1.0464                 1.1659                 1.0745
 IR Inten    --      2.8653                 6.9777                 5.2201

                     31                     32                     33
                      A                      A                      A
 Frequencies --    993.6938              1029.7549              1039.5553
 Red. masses --      1.9336                 2.4029                 1.7202
 Frc consts  --      1.1249                 1.5013                 1.0953
 IR Inten    --     16.2098                 3.0981                25.8160

                     34                     35                     36
                      A                      A                      A
 Frequencies --   1049.8579              1063.7082              1078.4626
 Red. masses --      2.2254                 3.1728                 3.5066
 Frc consts  --      1.4452                 2.1151                 2.4029
 IR Inten    --      2.8550                82.9226                92.3832

                     37                     38                     39
                      A                      A                      A
 Frequencies --   1089.1336              1099.9224              1120.4667
 Red. masses --      1.7997                 1.5372                 1.7161
 Frc consts  --      1.2578                 1.0958                 1.2694
 IR Inten    --     22.2403                 3.2723                28.6324

                     40                     41                     42
                      A                      A                      A
 Frequencies --   1129.8479              1143.9175              1165.1279
 Red. masses --      1.8880                 1.6697                 1.8120
 Frc consts  --      1.4200                 1.2873                 1.4493
 IR Inten    --      4.4951                14.9916                10.2707

                     43                     44                     45
                      A                      A                      A
 Frequencies --   1198.9597              1213.9479              1241.2825
 Red. masses --      1.5785                 1.4832                 1.3565
 Frc consts  --      1.3369                 1.2878                 1.2314
 IR Inten    --      4.2726                 3.2545                 0.6251

                     46                     47                     48
                      A                      A                      A
 Frequencies --   1275.6743              1288.3204              1303.9215
 Red. masses --      1.2608                 1.2599                 1.3048
 Frc consts  --      1.2088                 1.2321                 1.3071
 IR Inten    --      1.3483                 1.9721                11.1425

                     49                     50                     51
                      A                      A                      A
 Frequencies --   1312.0240              1319.0558              1322.2971
 Red. masses --      1.2396                 1.2323                 1.2600
 Frc consts  --      1.2572                 1.2632                 1.2980
 IR Inten    --      7.8847                 0.4682                 1.9790

                     52                     53                     54
                      A                      A                      A
 Frequencies --   1344.4939              1362.3058              1370.9529
 Red. masses --      1.3989                 1.3698                 1.3993
 Frc consts  --      1.4899                 1.4978                 1.5495
 IR Inten    --      1.3073                 3.1309                 4.2731

                     55                     56                     57
                      A                      A                      A
 Frequencies --   1377.4683              1380.7480              1390.5915
 Red. masses --      1.3999                 1.4819                 1.3257
 Frc consts  --      1.5650                 1.6645                 1.5104
 IR Inten    --      2.1830                 3.9866                 8.2831

                     58                     59                     60
                      A                      A                      A
 Frequencies --   1397.1145              1412.3566              1413.4099
 Red. masses --      1.4399                 1.3609                 1.2626
 Frc consts  --      1.6559                 1.5995                 1.4861
 IR Inten    --      3.6020                15.5243                 7.8918

                     61                     62                     63
                      A                      A                      A
 Frequencies --   1418.7867              1428.9982              1479.9792
 Red. masses --      1.2526                 1.2509                 1.0846
 Frc consts  --      1.4855                 1.5050                 1.3997
 IR Inten    --     48.9308                49.3261                 2.1301

                     64                     65                     66
                      A                      A                      A
 Frequencies --   1485.9084              1487.0782              1496.8601
 Red. masses --      1.0693                 1.0832                 1.0800
 Frc consts  --      1.3910                 1.4113                 1.4257
 IR Inten    --      4.1003                 3.4969                 2.6332

                     67                     68                     69
                      A                      A                      A
 Frequencies --   1499.5795              1501.1746              1507.9777
 Red. masses --      1.0939                 1.0546                 1.0616
 Frc consts  --      1.4494                 1.4002                 1.4224
 IR Inten    --      2.5584                 2.7531                 5.0557

                     70                     71                     72
                      A                      A                      A
 Frequencies --   1514.0404              2973.3164              2983.4934
 Red. masses --      1.0917                 1.0804                 1.0686
 Frc consts  --      1.4745                 5.6274                 5.6045
 IR Inten    --      0.2076                11.2002                30.8427

                     73                     74                     75
                      A                      A                      A
 Frequencies --   2994.0900              2995.5068              3000.0189
 Red. masses --      1.0722                 1.0772                 1.0704
 Frc consts  --      5.6632                 5.6947                 5.6759
 IR Inten    --      8.9114                33.4151                 3.2666

                     76                     77                     78
                      A                      A                      A
 Frequencies --   3012.8343              3017.3756              3020.3365
 Red. masses --      1.0601                 1.0689                 1.0645
 Frc consts  --      5.6694                 5.7340                 5.7215
 IR Inten    --     39.1292                29.9702                 2.5523

                     79                     80                     81
                      A                      A                      A
 Frequencies --   3026.2251              3033.3953              3046.5660
 Red. masses --      1.0768                 1.0375                 1.0992
 Frc consts  --      5.8101                 5.6247                 6.0111
 IR Inten    --     78.9565                22.8164                36.0824

                     82                     83                     84
                      A                      A                      A
 Frequencies --   3052.1480              3059.9428              3073.5632
 Red. masses --      1.0922                 1.0979                 1.1001
 Frc consts  --      5.9949                 6.0567                 6.1231
 IR Inten    --      6.0390                39.5798                86.3755

                     85                     86                     87
                      A                      A                      A
 Frequencies --   3074.0720              3081.1257              3098.6764
 Red. masses --      1.0955                 1.0931                 1.1008
 Frc consts  --      6.0995                 6.1139                 6.2274
 IR Inten    --     24.1363                40.2218                36.2650

                     88                     89                     90
                      A                      A                      A
 Frequencies --   3108.5352              3797.8892              3814.9934
 Red. masses --      1.1004                 1.0658                 1.0661
 Frc consts  --      6.2646                 9.0573                 9.1417
 IR Inten    --     36.5831                10.5831                13.6302

 - Thermochemistry -
 -------------------
 Temperature   298.150 Kelvin.  Pressure   1.00000 Atm.
 Atom     1 has atomic number  6 and mass  12.00000

 Molecular mass:   172.14633 amu.
 Principal axes and moments of inertia in atomic units:
                           1         2         3
     Eigenvalues --  1797.450192995.005314073.02605
           X            0.99996  -0.00835   0.00059
           Y            0.00835   0.99993  -0.00875
           Z           -0.00052   0.00875   0.99996
 This molecule is an asymmetric top.
 Rotational symmetry number  1.
 Warning -- assumption of classical behavior for rotation
           may cause significant error
 Rotational temperatures (Kelvin)      0.04819     0.02892     0.02127
 Rotational constants (GHZ):           1.00406     0.60258     0.44310
 Zero-point vibrational energy     766271.0 (Joules/Mol)
                                  183.14316 (Kcal/Mol)
 Warning -- explicit consideration of  20 degrees of freedom as
           vibrations may cause significant error
 Vibrational temperatures:     65.38   100.47   123.53   140.97   193.43
          (Kelvin)            258.83   274.21   324.91   363.20   384.14
                              397.50   425.77   475.60   509.10   580.81
                              595.83   649.01   697.91   703.55   761.98
                              939.53  1105.47  1129.98  1152.47  1217.12
                             1261.95  1309.12  1335.60  1398.06  1407.94
                             1429.70  1481.59  1495.69  1510.51  1530.44
                             1551.67  1567.02  1582.54  1612.10  1625.60
                             1645.84  1676.36  1725.04  1746.60  1785.93
                             1835.41  1853.61  1876.05  1887.71  1897.83
                             1902.49  1934.43  1960.05  1972.50  1981.87
                             1986.59  2000.75  2010.14  2032.07  2033.58
                             2041.32  2056.01  2129.36  2137.89  2139.57
                             2153.65  2157.56  2159.86  2169.64  2178.37
                             4277.94  4292.58  4307.83  4309.87  4316.36
                             4334.80  4341.33  4345.59  4354.06  4364.38
                             4383.33  4391.36  4402.58  4422.17  4422.90
                             4433.05  4458.30  4472.49  5464.32  5488.92

 Zero-point correction=                           0.291857 (Hartree/Particle)
 Thermal correction to Energy=                    0.305539
 Thermal correction to Enthalpy=                  0.306484
 Thermal correction to Gibbs Free Energy=         0.251784
 Sum of electronic and zero-point Energies=           -543.301714
 Sum of electronic and thermal Energies=              -543.288032
 Sum of electronic and thermal Enthalpies=            -543.287087
 Sum of electronic and thermal Free Energies=         -543.341787

                     E (Thermal)             CV                S
                      KCal/Mol        Cal/Mol-Kelvin    Cal/Mol-Kelvin
 Total                  191.729             51.995            115.126
 Electronic               0.000              0.000              0.000
 Translational            0.889              2.981             41.337
 Rotational               0.889              2.981             31.462
 Vibrational            189.951             46.033             42.327
 Vibration     1          0.595              1.979              5.006
 Vibration     2          0.598              1.969              4.158
 Vibration     3          0.601              1.959              3.752
 Vibration     4          0.603              1.951              3.494
 Vibration     5          0.613              1.919              2.882
 Vibration     6          0.629              1.867              2.330
 Vibration     7          0.634              1.853              2.222
 Vibration     8          0.650              1.802              1.912
 Vibration     9          0.664              1.759              1.714
 Vibration    10          0.672              1.734              1.616
 Vibration    11          0.678              1.717              1.557
 Vibration    12          0.690              1.681              1.440
 Vibration    13          0.713              1.614              1.257
 Vibration    14          0.730              1.567              1.149
 Vibration    15          0.769              1.462              0.949
 Vibration    16          0.778              1.440              0.912
 Vibration    17          0.810              1.358              0.792
 Vibration    18          0.841              1.283              0.697
 Vibration    19          0.845              1.274              0.686
 Vibration    20          0.885              1.185              0.588

                           ! Non-Optimized Parameters !
 Normal termination of Gaussian 16 at Mon May 22 15:09:05 2023.
