 Gaussian 16, Revision A.03,
 Gaussian 16:  ES64L-G16RevA.03 25-Dec-2016

 -----------------------------
 # opt freq b3lyp/6-31g(2df,p)
 -----------------------------

 -------------------
 Title Card Required
 -------------------
 Symbolic Z-matrix:
 Charge =  0 Multiplicity = 1

 SCF Done:  E(RB3LYP) =  -352.585313066     A.U. after   12 cycles
 SCF Done:  E(RB3LYP) =  -352.593398423     A.U. after   10 cycles
 SCF Done:  E(RB3LYP) =  -352.594167423     A.U. after   10 cycles
 SCF Done:  E(RB3LYP) =  -352.594281552     A.U. after    8 cycles
 SCF Done:  E(RB3LYP) =  -352.594309310     A.U. after    8 cycles
 SCF Done:  E(RB3LYP) =  -352.594316890     A.U. after    8 cycles
 SCF Done:  E(RB3LYP) =  -352.594319338     A.U. after    7 cycles
 SCF Done:  E(RB3LYP) =  -352.594319684     A.U. after    6 cycles
 Optimization completed.
    -- Stationary point found.
 Normal termination of Gaussian 16 at Sun May 28 17:04:27 2023.

 ----------------------------------------------------------------------
 #N Geom=AllCheck Guess=TCheck SCRF=Check GenChk RB3LYP/6-31G(2df,p) Fr
 eq
 ----------------------------------------------------------------------

 Structure from the checkpoint file:  "CCC1CC2qCrCC1C2.chk"
 -------------------
 Title Card Required
 -------------------
 Charge =  0 Multiplicity = 1

                         Standard orientation:
 ---------------------------------------------------------------------
 Center     Atomic      Atomic             Coordinates (Angstroms)
 Number     Number       Type             X           Y           Z
 ---------------------------------------------------------------------
      1          6           0        3.179634    0.716985   -0.052410
      2          6           0        2.135221   -0.301833    0.416274
      3          6           0        0.871884   -0.314297   -0.448613
      4          6           0       -0.032074    0.962993   -0.349196
      5          6           0       -1.384135    0.313355    0.026791
      6          6           0       -2.576841    1.225527    0.198392
      7          6           0       -1.402560   -0.923864   -0.926807
      8          6           0       -0.191936   -1.367439   -0.059601
      9          6           0       -0.936660   -0.696217    1.129383
     10          1           0        4.071548    0.693529    0.581577
     11          1           0        2.782710    1.737547   -0.028575
     12          1           0        3.496714    0.511410   -1.081108
     13          1           0        1.870275   -0.097243    1.461318
     14          1           0        2.581336   -1.305360    0.406758
     15          1           0        1.178797   -0.479167   -1.489677
     16          1           0       -0.090511    1.521280   -1.289070
     17          1           0        0.311462    1.656539    0.427089
     18          1           0       -2.787863    1.779505   -0.724071
     19          1           0       -2.400786    1.962583    0.991001
     20          1           0       -3.477908    0.661301    0.462054
     21          1           0       -1.236990   -0.754873   -1.996362
     22          1           0       -2.286186   -1.550299   -0.777303
     23          1           0        0.135529   -2.407631   -0.019320
     24          1           0       -0.354627   -0.316828    1.974636
     25          1           0       -1.768691   -1.303554    1.495773
 ---------------------------------------------------------------------

 SCF Done:  E(RB3LYP) =  -352.594319684     A.U. after    1 cycles

 The electronic state is 1-A.
 Alpha  occ. eigenvalues --  -10.18831 -10.18039 -10.17672 -10.17275 -10.17215
 Alpha  occ. eigenvalues --  -10.17193 -10.16996 -10.16850 -10.16842  -0.88252
 Alpha  occ. eigenvalues --   -0.77341  -0.72598  -0.70020  -0.65218  -0.64954
 Alpha  occ. eigenvalues --   -0.59098  -0.53039  -0.52765  -0.47252  -0.46175
 Alpha  occ. eigenvalues --   -0.44659  -0.42359  -0.40980  -0.40244  -0.38531
 Alpha  occ. eigenvalues --   -0.36770  -0.35814  -0.35556  -0.33649  -0.33053
 Alpha  occ. eigenvalues --   -0.31410  -0.29771  -0.29229  -0.28747  -0.28459
 Alpha virt. eigenvalues --    0.08628   0.10313   0.11826   0.12133   0.13057
 Alpha virt. eigenvalues --    0.13991   0.15020   0.15986   0.16772   0.16910
 Alpha virt. eigenvalues --    0.17447   0.17786   0.17954   0.19057   0.20222

 Mulliken charges:
               1
     1  C   -0.381030
     2  C   -0.200754
     3  C    0.062433
     4  C   -0.262267
     5  C    0.356698
     6  C   -0.497201
     7  C   -0.265159
     8  C   -0.036674
     9  C   -0.259932
    10  H    0.109113
    11  H    0.117050
    12  H    0.111750
    13  H    0.092828
    14  H    0.089553
    15  H    0.058911
    16  H    0.088444
    17  H    0.088672
    18  H    0.112194
    19  H    0.112183
    20  H    0.109635
    21  H    0.080723
    22  H    0.087989
    23  H    0.051206
    24  H    0.084676
    25  H    0.088958
 Sum of Mulliken charges =   0.00000

 Dipole moment (field-independent basis, Debye):
    X=             -0.0573    Y=             -0.0027    Z=              0.0006  Tot=              0.0574
 Quadrupole moment (field-independent basis, Debye-Ang):
   XX=            -58.4528   YY=            -58.2853   ZZ=            -57.8832
   XY=              0.0659   XZ=             -0.0332   YZ=              0.0865

  Exact polarizability: 105.943   0.204  88.246   0.102  -0.353  84.032
 Approx polarizability: 132.488   0.523 129.830   0.142   0.209 131.393

                      1                      2                      3
                      A                      A                      A
 Frequencies --    100.0747               144.0637               170.2090
 Red. masses --      2.2228                 2.2036                 1.9716
 Frc consts  --      0.0131                 0.0269                 0.0337
 IR Inten    --      0.0006                 0.0267                 0.0204

                      4                      5                      6
                      A                      A                      A
 Frequencies --    220.0958               246.3398               291.5747
 Red. masses --      1.0502                 1.2550                 2.4193
 Frc consts  --      0.0300                 0.0449                 0.1212
 IR Inten    --      0.0269                 0.0216                 0.0013

                      7                      8                      9
                      A                      A                      A
 Frequencies --    320.1209               378.2651               432.9800
 Red. masses --      2.3986                 2.6127                 1.7618
 Frc consts  --      0.1448                 0.2203                 0.1946
 IR Inten    --      0.0361                 0.0487                 0.1112

                     10                     11                     12
                      A                      A                      A
 Frequencies --    458.1776               520.5336               586.7743
 Red. masses --      2.5059                 1.7862                 3.0058
 Frc consts  --      0.3099                 0.2852                 0.6097
 IR Inten    --      0.1844                 0.0150                 0.8605

                     13                     14                     15
                      A                      A                      A
 Frequencies --    674.5563               775.5214               819.1794
 Red. masses --      3.0637                 1.4399                 2.2060
 Frc consts  --      0.8214                 0.5102                 0.8722
 IR Inten    --      0.0490                 1.4616                 0.5443

                     16                     17                     18
                      A                      A                      A
 Frequencies --    824.1642               836.5310               869.4118
 Red. masses --      2.4518                 2.4809                 2.0462
 Frc consts  --      0.9812                 1.0229                 0.9113
 IR Inten    --      0.4997                 0.9710                 0.1693

                     19                     20                     21
                      A                      A                      A
 Frequencies --    924.9365               927.3297               941.7266
 Red. masses --      2.1399                 1.9188                 1.4629
 Frc consts  --      1.0786                 0.9722                 0.7644
 IR Inten    --      0.1333                 0.8183                 0.2889

                     22                     23                     24
                      A                      A                      A
 Frequencies --    960.2014               985.1513               996.1797
 Red. masses --      1.9224                 1.4768                 2.2620
 Frc consts  --      1.0443                 0.8444                 1.3226
 IR Inten    --      2.5079                 0.0675                 0.1869

                     25                     26                     27
                      A                      A                      A
 Frequencies --   1033.7472              1040.1033              1062.7912
 Red. masses --      1.1665                 1.5113                 1.5097
 Frc consts  --      0.7345                 0.9633                 1.0047
 IR Inten    --      0.5290                 2.0320                 0.4849

                     28                     29                     30
                      A                      A                      A
 Frequencies --   1064.6633              1089.4529              1132.6804
 Red. masses --      1.2679                 1.6492                 1.4632
 Frc consts  --      0.8468                 1.1533                 1.1061
 IR Inten    --      0.9589                 2.3792                 0.6431

                     31                     32                     33
                      A                      A                      A
 Frequencies --   1161.9857              1174.7083              1196.9249
 Red. masses --      1.6967                 2.0471                 1.8330
 Frc consts  --      1.3498                 1.6644                 1.5472
 IR Inten    --      0.4141                 0.1429                 0.1206

                     34                     35                     36
                      A                      A                      A
 Frequencies --   1223.0594              1242.7891              1256.4040
 Red. masses --      1.4569                 1.5344                 1.7232
 Frc consts  --      1.2840                 1.3964                 1.6026
 IR Inten    --      0.4069                 2.0837                 0.3982

                     37                     38                     39
                      A                      A                      A
 Frequencies --   1257.6900              1283.9478              1292.9454
 Red. masses --      1.9019                 1.8545                 1.2993
 Frc consts  --      1.7725                 1.8012                 1.2797
 IR Inten    --      2.2636                 3.4549                 1.0340

                     40                     41                     42
                      A                      A                      A
 Frequencies --   1312.2521              1345.9926              1358.8798
 Red. masses --      1.4309                 1.7733                 1.5802
 Frc consts  --      1.4517                 1.8928                 1.7192
 IR Inten    --      4.2797                 6.2676                 9.6001

                     43                     44                     45
                      A                      A                      A
 Frequencies --   1396.8181              1411.5008              1413.4704
 Red. masses --      1.4785                 1.2346                 1.3381
 Frc consts  --      1.6996                 1.4492                 1.5751
 IR Inten    --      1.2795                 1.8319                 2.0701

                     46                     47                     48
                      A                      A                      A
 Frequencies --   1483.3402              1488.1218              1491.4540
 Red. masses --      1.0760                 1.0861                 1.0649
 Frc consts  --      1.3949                 1.4171                 1.3956
 IR Inten    --      0.0388                 1.1720                 2.3116

                     49                     50                     51
                      A                      A                      A
 Frequencies --   1493.8305              1496.8913              1500.1330
 Red. masses --      1.0492                 1.0717                 1.0427
 Frc consts  --      1.3794                 1.4148                 1.3825
 IR Inten    --      4.0041                 3.2295                 4.1250

                     52                     53                     54
                      A                      A                      A
 Frequencies --   1507.4981              1527.1585              3009.1993
 Red. masses --      1.0721                 1.1414                 1.0808
 Frc consts  --      1.4354                 1.5683                 5.7665
 IR Inten    --      2.7649                 1.0154                14.8091

                     55                     56                     57
                      A                      A                      A
 Frequencies --   3014.2290              3018.6318              3028.9016
 Red. masses --      1.0631                 1.0360                 1.0378
 Frc consts  --      5.6909                 5.5622                 5.6095
 IR Inten    --     25.9796                32.7594                15.1684

                     58                     59                     60
                      A                      A                      A
 Frequencies --   3032.5577              3037.4958              3046.6882
 Red. masses --      1.0574                 1.0584                 1.0795
 Frc consts  --      5.7293                 5.7534                 5.9038
 IR Inten    --     58.2997                56.9351                 1.8745

                     61                     62                     63
                      A                      A                      A
 Frequencies --   3052.4418              3076.0197              3081.1159
 Red. masses --      1.0761                 1.1040                 1.1004
 Frc consts  --      5.9077                 6.1545                 6.1547
 IR Inten    --     41.4454                15.4424                37.8695

                     64                     65                     66
                      A                      A                      A
 Frequencies --   3089.0162              3095.4519              3097.3293
 Red. masses --      1.1010                 1.1013                 1.0943
 Frc consts  --      6.1900                 6.2173                 6.1854
 IR Inten    --     17.4508                26.9347                52.1098

                     67                     68                     69
                      A                      A                      A
 Frequencies --   3100.3020              3101.0070              3106.8430
 Red. masses --      1.1046                 1.1022                 1.1040
 Frc consts  --      6.2557                 6.2447                 6.2788
 IR Inten    --     20.3025                59.3154                73.3143

 - Thermochemistry -
 -------------------
 Temperature   298.150 Kelvin.  Pressure   1.00000 Atm.
 Atom     1 has atomic number  6 and mass  12.00000

 Molecular mass:   124.12520 amu.
 Principal axes and moments of inertia in atomic units:
                           1         2         3
     Eigenvalues --   567.261491640.921351832.48773
           X            1.00000   0.00113  -0.00078
           Y           -0.00113   0.99999  -0.00481
           Z            0.00078   0.00481   0.99999
 This molecule is an asymmetric top.
 Rotational symmetry number  1.
 Warning -- assumption of classical behavior for rotation
           may cause significant error
 Rotational temperatures (Kelvin)      0.15269     0.05278     0.04727
 Rotational constants (GHZ):           3.18150     1.09983     0.98486
 Zero-point vibrational energy     604907.1 (Joules/Mol)
                                  144.57626 (Kcal/Mol)
 Warning -- explicit consideration of  12 degrees of freedom as
           vibrations may cause significant error
 Vibrational temperatures:    143.99   207.28   244.89   316.67   354.43
          (Kelvin)            419.51   460.58   544.24   622.96   659.22
                              748.93   844.24   970.54  1115.80  1178.62
                             1185.79  1203.58  1250.89  1330.78  1334.22
                             1354.93  1381.52  1417.41  1433.28  1487.33
                             1496.48  1529.12  1531.81  1567.48  1629.67
                             1671.84  1690.14  1722.11  1759.71  1788.10
                             1807.69  1809.54  1847.31  1860.26  1888.04
                             1936.58  1955.12  2009.71  2030.83  2033.67
                             2134.20  2141.08  2145.87  2149.29  2153.69
                             2158.36  2168.95  2197.24  4329.57  4336.80
                             4343.14  4357.91  4363.17  4370.28  4383.50
                             4391.78  4425.71  4433.04  4444.41  4453.66
                             4456.37  4460.64  4461.66  4470.05

 Zero-point correction=                           0.230397 (Hartree/Particle)
 Thermal correction to Energy=                    0.239458
 Thermal correction to Enthalpy=                  0.240402
 Thermal correction to Gibbs Free Energy=         0.197122
 Sum of electronic and zero-point Energies=           -352.363923
 Sum of electronic and thermal Energies=              -352.354862
 Sum of electronic and thermal Enthalpies=            -352.353918
 Sum of electronic and thermal Free Energies=         -352.397198

                     E (Thermal)             CV                S
                      KCal/Mol        Cal/Mol-Kelvin    Cal/Mol-Kelvin
 Total                  150.262             36.464             91.090
 Electronic               0.000              0.000              0.000
 Translational            0.889              2.981             40.362
 Rotational               0.889              2.981             28.924
 Vibrational            148.485             30.503             21.804
 Vibration     1          0.604              1.949              3.453
 Vibration     2          0.616              1.909              2.749
 Vibration     3          0.625              1.879              2.433
 Vibration     4          0.647              1.810              1.958
 Vibration     5          0.661              1.769              1.757
 Vibration     6          0.687              1.689              1.465
 Vibration     7          0.706              1.635              1.309
 Vibration     8          0.749              1.516              1.046
 Vibration     9          0.794              1.398              0.849
 Vibration    10          0.816              1.343              0.771
 Vibration    11          0.876              1.205              0.609
 Vibration    12          0.944              1.060              0.473

 Optimization completed.
    -- Stationary point found.
 Normal termination of Gaussian 16 at Sun May 28 17:49:52 2023.
