 Gaussian 16, Revision A.03,
 Gaussian 16:  ES64L-G16RevA.03 25-Dec-2016

 -----------------------------
 # opt freq b3lyp/6-31g(2df,p)
 -----------------------------

 -------------------
 Title Card Required
 -------------------
 Symbolic Z-matrix:
 Charge =  0 Multiplicity = 1

 SCF Done:  E(RB3LYP) =  -737.076672010     A.U. after   21 cycles
 SCF Done:  E(RB3LYP) =  -737.155410638     A.U. after   15 cycles
 SCF Done:  E(RB3LYP) =  -737.238597885     A.U. after   15 cycles
 SCF Done:  E(RB3LYP) =  -737.308669054     A.U. after   14 cycles
 SCF Done:  E(RB3LYP) =  -737.393404814     A.U. after   13 cycles
 SCF Done:  E(RB3LYP) =  -737.432470359     A.U. after   14 cycles
 SCF Done:  E(RB3LYP) =  -737.443494007     A.U. after   12 cycles
 SCF Done:  E(RB3LYP) =  -737.451359061     A.U. after   13 cycles
 SCF Done:  E(RB3LYP) =  -737.460594489     A.U. after   13 cycles
 SCF Done:  E(RB3LYP) =  -737.466436667     A.U. after   15 cycles
 SCF Done:  E(RB3LYP) =  -737.470773858     A.U. after   12 cycles
 SCF Done:  E(RB3LYP) =  -737.471220439     A.U. after   12 cycles
 SCF Done:  E(RB3LYP) =  -737.471933947     A.U. after   15 cycles
 SCF Done:  E(RB3LYP) =  -737.471959856     A.U. after   13 cycles
 SCF Done:  E(RB3LYP) =  -737.472131101     A.U. after   13 cycles
 SCF Done:  E(RB3LYP) =  -737.472063678     A.U. after   12 cycles
 SCF Done:  E(RB3LYP) =  -737.472154578     A.U. after   12 cycles
 SCF Done:  E(RB3LYP) =  -737.472155243     A.U. after    8 cycles
 SCF Done:  E(RB3LYP) =  -737.472155504     A.U. after    8 cycles
 Optimization completed.
    -- Stationary point found.
 Normal termination of Gaussian 16 at Sun May 28 00:12:01 2023.

 ----------------------------------------------------------------------
 #N Geom=AllCheck Guess=TCheck SCRF=Check GenChk RB3LYP/6-31G(2df,p) Fr
 eq
 ----------------------------------------------------------------------

 Structure from the checkpoint file:  "CCC1dCCCCqCrC2CC1dCCdCC2CCdO.chk"
 -------------------
 Title Card Required
 -------------------
 Charge =  0 Multiplicity = 1

                         Standard orientation:
 ---------------------------------------------------------------------
 Center     Atomic      Atomic             Coordinates (Angstroms)
 Number     Number       Type             X           Y           Z
 ---------------------------------------------------------------------
      1          6           0       -4.206904   -2.139077   -0.054324
      2          6           0       -3.583246   -1.079274    0.869891
      3          6           0       -2.572865   -0.181889    0.169624
      4          6           0       -2.918349    1.108696   -0.031750
      5          6           0       -2.189676    2.251360   -0.707544
      6          6           0       -0.860980    2.750672   -0.079312
      7          6           0        0.204127    1.758014    0.442791
      8          6           0        1.329907    2.599828    1.072265
      9          6           0        0.734571    0.740433   -0.603305
     10          6           0       -0.399483   -0.084784   -1.238688
     11          6           0       -1.274951   -0.770639   -0.213348
     12          6           0       -0.802386   -1.915864    0.337270
     13          6           0        0.524590   -2.444972    0.067721
     14          6           0        1.635505   -1.721259   -0.157173
     15          6           0        1.819956   -0.222050    0.022064
     16          6           0        3.241078    0.177158   -0.451380
     17          6           0        4.324088   -0.457859    0.388237
     18          8           0        5.183915   -1.195000   -0.022430
     19          1           0       -4.925083   -2.757658    0.493334
     20          1           0       -3.446378   -2.799155   -0.479930
     21          1           0       -4.735742   -1.661713   -0.885469
     22          1           0       -3.121141   -1.574508    1.732196
     23          1           0       -4.380673   -0.452333    1.280514
     24          1           0       -3.899088    1.387585    0.349144
     25          1           0       -2.867097    3.112413   -0.703250
     26          1           0       -2.038921    2.033724   -1.769178
     27          1           0       -1.125752    3.382008    0.777674
     28          1           0       -0.388543    3.426708   -0.805760
     29          1           0       -0.259798    1.170734    1.246144
     30          1           0        1.844931    3.200964    0.312840
     31          1           0        2.080275    1.992475    1.584458
     32          1           0        0.920374    3.293966    1.813141
     33          1           0        1.217487    1.308954   -1.411528
     34          1           0        0.063760   -0.854633   -1.864584
     35          1           0       -0.992905    0.531836   -1.906821
     36          1           0       -1.425365   -2.502066    1.005198
     37          1           0        0.622741   -3.529712    0.065108
     38          1           0        2.549704   -2.270033   -0.373148
     39          1           0        1.783462   -0.063340    1.109714
     40          1           0        3.356611    1.264284   -0.361152
     41          1           0        3.395045   -0.098259   -1.499368
     42          1           0        4.270882   -0.193214    1.471936
 ---------------------------------------------------------------------

 SCF Done:  E(RB3LYP) =  -737.472155504     A.U. after    1 cycles

 The electronic state is 1-A.
 Alpha  occ. eigenvalues --  -19.13820 -10.26980 -10.20366 -10.19376 -10.19282
 Alpha  occ. eigenvalues --  -10.19123 -10.18942 -10.18941 -10.18688 -10.18573
 Alpha  occ. eigenvalues --  -10.18467 -10.18314 -10.18215 -10.18109 -10.17929
 Alpha  occ. eigenvalues --  -10.17809 -10.17545 -10.17225  -1.04453  -0.85705
 Alpha  occ. eigenvalues --   -0.82072  -0.80809  -0.77989  -0.76002  -0.74855
 Alpha  occ. eigenvalues --   -0.71957  -0.70353  -0.65277  -0.64501  -0.63769
 Alpha  occ. eigenvalues --   -0.60743  -0.57917  -0.56703  -0.55377  -0.52938
 Alpha  occ. eigenvalues --   -0.51038  -0.47766  -0.47372  -0.46277  -0.45846
 Alpha  occ. eigenvalues --   -0.45430  -0.44649  -0.43213  -0.42126  -0.41908
 Alpha  occ. eigenvalues --   -0.41614  -0.41138  -0.40530  -0.39343  -0.38943
 Alpha  occ. eigenvalues --   -0.38296  -0.37077  -0.36608  -0.36059  -0.35848
 Alpha  occ. eigenvalues --   -0.34676  -0.34499  -0.33613  -0.33345  -0.32932
 Alpha  occ. eigenvalues --   -0.32369  -0.30494  -0.29899  -0.28568  -0.25771
 Alpha  occ. eigenvalues --   -0.24746  -0.20459
 Alpha virt. eigenvalues --   -0.04165  -0.02017   0.03035   0.06657   0.08889
 Alpha virt. eigenvalues --    0.09724   0.09806   0.10318   0.11161   0.11830
 Alpha virt. eigenvalues --    0.12569   0.13100   0.13900   0.14438   0.14670

 Mulliken charges:
               1
     1  C   -0.368803
     2  C   -0.290280
     3  C    0.251871
     4  C   -0.145794
     5  C   -0.315366
     6  C   -0.187960
     7  C    0.020622
     8  C   -0.404477
     9  C   -0.008182
    10  C   -0.349161
    11  C    0.198313
    12  C   -0.189167
    13  C   -0.108232
    14  C   -0.089676
    15  C   -0.062101
    16  C   -0.290232
    17  C    0.157893
    18  O   -0.244964
    19  H    0.110398
    20  H    0.122483
    21  H    0.116628
    22  H    0.104139
    23  H    0.095018
    24  H    0.081817
    25  H    0.095443
    26  H    0.122773
    27  H    0.099551
    28  H    0.091776
    29  H    0.087085
    30  H    0.112821
    31  H    0.110417
    32  H    0.112700
    33  H    0.061328
    34  H    0.108622
    35  H    0.097026
    36  H    0.087349
    37  H    0.092049
    38  H    0.106769
    39  H    0.100235
    40  H    0.118122
    41  H    0.119721
    42  H    0.071426
 Sum of Mulliken charges =  -0.00000

 Dipole moment (field-independent basis, Debye):
    X=             -2.4893    Y=              1.9799    Z=              0.4236  Tot=              3.2087
 Quadrupole moment (field-independent basis, Debye-Ang):
   XX=           -126.7124   YY=           -108.5244   ZZ=           -109.5047
   XY=              7.5156   XZ=              0.5764   YZ=             -1.6173

  Exact polarizability: 228.311 -15.097 201.745  -3.394  -5.994 130.537
 Approx polarizability: 317.968 -45.905 323.401  -7.575 -19.165 221.335

                      1                      2                      3
                      A                      A                      A
 Frequencies --     30.2911                49.3602                69.1149
 Red. masses --      4.7272                 7.0296                 3.3810
 Frc consts  --      0.0026                 0.0101                 0.0095
 IR Inten    --      0.3113                 5.9931                 1.8685

                      4                      5                      6
                      A                      A                      A
 Frequencies --     88.1427                90.4129               135.4851
 Red. masses --      2.8878                 2.6631                 2.8426
 Frc consts  --      0.0132                 0.0128                 0.0307
 IR Inten    --      0.9058                 0.7548                 0.4497

                      7                      8                      9
                      A                      A                      A
 Frequencies --    151.5312               167.0391               199.5721
 Red. masses --      2.7366                 3.4220                 1.8228
 Frc consts  --      0.0370                 0.0563                 0.0428
 IR Inten    --      0.9158                 0.9164                 0.1488

                     10                     11                     12
                      A                      A                      A
 Frequencies --    210.2267               212.1024               236.5855
 Red. masses --      1.8180                 2.3241                 3.3061
 Frc consts  --      0.0473                 0.0616                 0.1090
 IR Inten    --      0.1931                 0.3528                 2.2356

                     13                     14                     15
                      A                      A                      A
 Frequencies --    253.2576               289.0935               311.4103
 Red. masses --      1.1148                 2.5793                 3.4929
 Frc consts  --      0.0421                 0.1270                 0.1996
 IR Inten    --      0.0585                 0.0795                 0.2138

                     16                     17                     18
                      A                      A                      A
 Frequencies --    316.5404               338.2618               353.8617
 Red. masses --      2.7547                 2.8126                 2.4478
 Frc consts  --      0.1626                 0.1896                 0.1806
 IR Inten    --      0.7216                 0.1382                 0.4101

                     19                     20                     21
                      A                      A                      A
 Frequencies --    384.9197               424.6088               433.7919
 Red. masses --      3.0802                 2.6394                 3.1433
 Frc consts  --      0.2689                 0.2804                 0.3485
 IR Inten    --      2.3878                 0.1673                 2.4969

                     22                     23                     24
                      A                      A                      A
 Frequencies --    443.7910               463.3662               500.0721
 Red. masses --      3.4449                 3.0429                 2.7865
 Frc consts  --      0.3997                 0.3849                 0.4106
 IR Inten    --      0.3530                 0.4061                 7.4305

                     25                     26                     27
                      A                      A                      A
 Frequencies --    514.5079               544.4063               557.6008
 Red. masses --      2.1336                 3.3702                 3.0414
 Frc consts  --      0.3328                 0.5885                 0.5571
 IR Inten    --      4.3320                 3.0413                 5.6036

                     28                     29                     30
                      A                      A                      A
 Frequencies --    604.7481               647.8821               672.1897
 Red. masses --      3.4521                 3.4213                 2.2493
 Frc consts  --      0.7439                 0.8461                 0.5988
 IR Inten    --      0.3883                 0.6172                 4.2887

                     31                     32                     33
                      A                      A                      A
 Frequencies --    726.5241               746.2700               779.7855
 Red. masses --      1.7022                 2.0363                 2.1981
 Frc consts  --      0.5294                 0.6682                 0.7875
 IR Inten    --     27.1466                 0.4229                 4.4101

                     34                     35                     36
                      A                      A                      A
 Frequencies --    788.4542               812.9225               836.5579
 Red. masses --      1.2930                 2.0309                 2.3126
 Frc consts  --      0.4736                 0.7907                 0.9536
 IR Inten    --      0.4867                 0.4389                 7.3044

                     37                     38                     39
                      A                      A                      A
 Frequencies --    855.9767               862.4450               873.3665
 Red. masses --      1.9225                 2.1744                 1.5859
 Frc consts  --      0.8299                 0.9529                 0.7127
 IR Inten    --      1.2393                 1.1141                 7.2262

                     40                     41                     42
                      A                      A                      A
 Frequencies --    892.7703               914.3933               927.6246
 Red. masses --      2.1441                 1.7047                 2.0182
 Frc consts  --      1.0069                 0.8398                 1.0232
 IR Inten    --      0.6571                10.4669                 1.5331

                     43                     44                     45
                      A                      A                      A
 Frequencies --    946.0486               952.5990               981.5940
 Red. masses --      1.9660                 2.1202                 1.8594
 Frc consts  --      1.0367                 1.1335                 1.0556
 IR Inten    --      4.5336                 0.7082                 0.7359

                     46                     47                     48
                      A                      A                      A
 Frequencies --    989.6006               999.4869              1016.0075
 Red. masses --      1.5556                 1.7793                 2.6991
 Frc consts  --      0.8975                 1.0473                 1.6416
 IR Inten    --      3.9887                 5.3002                13.0978

                     49                     50                     51
                      A                      A                      A
 Frequencies --   1037.6042              1049.6665              1057.8497
 Red. masses --      2.0775                 2.3588                 2.2029
 Frc consts  --      1.3178                 1.5313                 1.4524
 IR Inten    --      8.6634                 2.6019                 5.6655

                     52                     53                     54
                      A                      A                      A
 Frequencies --   1073.7394              1077.8577              1085.2697
 Red. masses --      2.4111                 2.2906                 1.8786
 Frc consts  --      1.6378                 1.5679                 1.3036
 IR Inten    --      1.6777                 1.9661                 4.1931

                     55                     56                     57
                      A                      A                      A
 Frequencies --   1113.1502              1119.0683              1131.9409
 Red. masses --      2.0151                 2.4021                 2.0419
 Frc consts  --      1.4711                 1.7724                 1.5415
 IR Inten    --      1.1325                 6.5281                 1.7887

                     58                     59                     60
                      A                      A                      A
 Frequencies --   1141.5736              1151.1939              1191.2022
 Red. masses --      2.7121                 1.9409                 1.3006
 Frc consts  --      2.0824                 1.5155                 1.0873
 IR Inten    --      2.5300                 0.7712                14.3354

                     61                     62                     63
                      A                      A                      A
 Frequencies --   1207.1415              1220.1033              1259.1358
 Red. masses --      1.3235                 1.4384                 1.3082
 Frc consts  --      1.1363                 1.2616                 1.2220
 IR Inten    --     14.7589                 0.7080                 3.9869

                     64                     65                     66
                      A                      A                      A
 Frequencies --   1262.4001              1264.6845              1283.7757
 Red. masses --      1.3510                 1.3042                 1.1984
 Frc consts  --      1.2686                 1.2290                 1.1637
 IR Inten    --     16.7778                 0.7470                 0.8413

                     67                     68                     69
                      A                      A                      A
 Frequencies --   1286.9663              1289.8584              1318.1849
 Red. masses --      1.2815                 1.2898                 1.4447
 Frc consts  --      1.2506                 1.2644                 1.4790
 IR Inten    --      1.8109                 0.9133                 0.3125

                     70                     71                     72
                      A                      A                      A
 Frequencies --   1330.2074              1337.3042              1338.6396
 Red. masses --      1.3038                 1.2811                 1.3146
 Frc consts  --      1.3592                 1.3499                 1.3879
 IR Inten    --      6.9549                 2.1319                 2.2162

                     73                     74                     75
                      A                      A                      A
 Frequencies --   1347.2342              1353.2358              1358.9710
 Red. masses --      1.3523                 1.4583                 1.2488
 Frc consts  --      1.4461                 1.5735                 1.3588
 IR Inten    --      0.3362                 4.5388                 6.3279

                     76                     77                     78
                      A                      A                      A
 Frequencies --   1385.3688              1395.3182              1398.3943
 Red. masses --      1.4733                 1.3565                 1.3540
 Frc consts  --      1.6660                 1.5561                 1.5600
 IR Inten    --      1.2528                 2.9941                 0.1927

                     79                     80                     81
                      A                      A                      A
 Frequencies --   1404.2108              1415.9833              1428.3556
 Red. masses --      1.2167                 1.2424                 1.4258
 Frc consts  --      1.4135                 1.4676                 1.7139
 IR Inten    --      2.2985                 5.4174                 4.0979

                     82                     83                     84
                      A                      A                      A
 Frequencies --   1428.5077              1443.6005              1465.8023
 Red. masses --      1.2900                 1.4919                 1.1016
 Frc consts  --      1.5510                 1.8318                 1.3945
 IR Inten    --      1.3327                 1.8602                 6.1282

                     85                     86                     87
                      A                      A                      A
 Frequencies --   1478.0367              1489.3155              1494.5704
 Red. masses --      1.0835                 1.0998                 1.0532
 Frc consts  --      1.3946                 1.4373                 1.3861
 IR Inten    --      0.8006                 4.3125                 2.2045

                     88                     89                     90
                      A                      A                      A
 Frequencies --   1495.5466              1501.9690              1506.9709
 Red. masses --      1.0473                 1.0639                 1.0446
 Frc consts  --      1.3801                 1.4140                 1.3976
 IR Inten    --      4.6423                 3.0418                 6.6540

                     91                     92                     93
                      A                      A                      A
 Frequencies --   1512.0046              1531.6376              1628.3099
 Red. masses --      1.0756                 1.0896                 7.0733
 Frc consts  --      1.4488                 1.5060                11.0496
 IR Inten    --      4.7217                 9.7300                 8.6572

                     94                     95                     96
                      A                      A                      A
 Frequencies --   1659.4617              1681.5370              1829.6277
 Red. masses --      6.6369                 6.2810                10.1130
 Frc consts  --     10.7684                10.4639                19.9459
 IR Inten    --      0.3047                 0.1395               196.2842

                     97                     98                     99
                      A                      A                      A
 Frequencies --   2841.7814              2986.8185              2991.8754
 Red. masses --      1.0812                 1.0806                 1.0819
 Frc consts  --      5.1442                 5.6797                 5.7061
 IR Inten    --     98.5919                 9.1454                21.9215

                    100                    101                    102
                      A                      A                      A
 Frequencies --   3005.0695              3020.3241              3028.9096
 Red. masses --      1.0628                 1.0736                 1.0480
 Frc consts  --      5.6547                 5.7704                 5.6648
 IR Inten    --     25.7185                 6.5081                37.9382

                    103                    104                    105
                      A                      A                      A
 Frequencies --   3032.0466              3036.8013              3037.9970
 Red. masses --      1.0636                 1.0598                 1.0361
 Frc consts  --      5.7609                 5.7583                 5.6341
 IR Inten    --     20.3504                19.7932                32.3649

                    106                    107                    108
                      A                      A                      A
 Frequencies --   3039.8148              3043.6146              3050.5907
 Red. masses --      1.0646                 1.0946                 1.0746
 Frc consts  --      5.7962                 5.9742                 5.8918
 IR Inten    --     24.9140                42.1576                12.4516

                    109                    110                    111
                      A                      A                      A
 Frequencies --   3067.2985              3069.8758              3090.9289
 Red. masses --      1.0999                 1.0974                 1.0985
 Frc consts  --      6.0969                 6.0935                 6.1833
 IR Inten    --     37.0595                 8.9839                40.3925

                    112                    113                    114
                      A                      A                      A
 Frequencies --   3096.7412              3104.8029              3109.7430
 Red. masses --      1.1023                 1.1019                 1.0987
 Frc consts  --      6.2279                 6.2584                 6.2603
 IR Inten    --     10.3382                30.8497                28.3167

                    115                    116                    117
                      A                      A                      A
 Frequencies --   3118.7239              3125.4180              3133.4538
 Red. masses --      1.1009                 1.0836                 1.0872
 Frc consts  --      6.3091                 6.2363                 6.2896
 IR Inten    --     29.5435                13.8049                34.8785

                    118                    119                    120
                      A                      A                      A
 Frequencies --   3153.1770              3166.8396              3175.1718
 Red. masses --      1.0920                 1.0856                 1.0878
 Frc consts  --      6.3966                 6.4147                 6.4615
 IR Inten    --     19.0327                14.6020                20.8207

 - Thermochemistry -
 -------------------
 Temperature   298.150 Kelvin.  Pressure   1.00000 Atm.
 Atom     1 has atomic number  6 and mass  12.00000

 Molecular mass:   244.18272 amu.
 Principal axes and moments of inertia in atomic units:
                           1         2         3
     Eigenvalues --  2697.891506446.537058461.20321
           X            0.99969   0.02490   0.00059
           Y           -0.02491   0.99969   0.00092
           Z           -0.00057  -0.00094   1.00000
 This molecule is an asymmetric top.
 Rotational symmetry number  1.
 Warning -- assumption of classical behavior for rotation
           may cause significant error
 Rotational temperatures (Kelvin)      0.03210     0.01344     0.01024
 Rotational constants (GHZ):           0.66895     0.27996     0.21330
 Zero-point vibrational energy     977270.7 (Joules/Mol)
                                  233.57331 (Kcal/Mol)
 Warning -- explicit consideration of  28 degrees of freedom as
           vibrations may cause significant error
 Vibrational temperatures:     43.58    71.02    99.44   126.82   130.08
          (Kelvin)            194.93   218.02   240.33   287.14   302.47
                              305.17   340.39   364.38   415.94   448.05
                              455.43   486.68   509.13   553.81   610.92
                              624.13   638.52   666.68   719.49   740.26
                              783.28   802.26   870.10   932.16   967.13
                             1045.31  1073.72  1121.94  1134.41  1169.61
                             1203.62  1231.56  1240.87  1256.58  1284.50
                             1315.61  1334.64  1361.15  1370.58  1412.29
                             1423.81  1438.04  1461.81  1492.88  1510.24
                             1522.01  1544.87  1550.80  1561.46  1601.57
                             1610.09  1628.61  1642.47  1656.31  1713.87
                             1736.81  1755.46  1811.62  1816.31  1819.60
                             1847.07  1851.66  1855.82  1896.57  1913.87
                             1924.08  1926.00  1938.37  1947.00  1955.26
                             1993.24  2007.55  2011.98  2020.35  2037.28
                             2055.09  2055.30  2077.02  2108.96  2126.57
                             2142.79  2150.35  2151.76  2161.00  2168.20
                             2175.44  2203.68  2342.77  2387.60  2419.36
                             2632.43  4088.69  4297.37  4304.64  4323.62
                             4345.57  4357.93  4362.44  4369.28  4371.00
                             4373.62  4379.08  4389.12  4413.16  4416.87
                             4447.16  4455.52  4467.12  4474.23  4487.15
                             4496.78  4508.34  4536.72  4556.38  4568.36

 Zero-point correction=                           0.372223 (Hartree/Particle)
 Thermal correction to Energy=                    0.389920
 Thermal correction to Enthalpy=                  0.390864
 Thermal correction to Gibbs Free Energy=         0.327056
 Sum of electronic and zero-point Energies=           -737.099933
 Sum of electronic and thermal Energies=              -737.082236
 Sum of electronic and thermal Enthalpies=            -737.081292
 Sum of electronic and thermal Free Energies=         -737.145099

                     E (Thermal)             CV                S
                      KCal/Mol        Cal/Mol-Kelvin    Cal/Mol-Kelvin
 Total                  244.678             70.173            134.294
 Electronic               0.000              0.000              0.000
 Translational            0.889              2.981             42.379
 Rotational               0.889              2.981             33.353
 Vibrational            242.901             64.211             58.562
 Vibration     1          0.594              1.984              5.810
 Vibration     2          0.595              1.978              4.843
 Vibration     3          0.598              1.969              4.178
 Vibration     4          0.601              1.958              3.701
 Vibration     5          0.602              1.956              3.651
 Vibration     6          0.613              1.918              2.867
 Vibration     7          0.619              1.901              2.653
 Vibration     8          0.624              1.883              2.469
 Vibration     9          0.638              1.840              2.137
 Vibration    10          0.642              1.825              2.042
 Vibration    11          0.643              1.822              2.026
 Vibration    12          0.655              1.785              1.828
 Vibration    13          0.664              1.757              1.708
 Vibration    14          0.686              1.694              1.479
 Vibration    15          0.700              1.652              1.355
 Vibration    16          0.703              1.642              1.328
 Vibration    17          0.719              1.599              1.220
 Vibration    18          0.730              1.567              1.149
 Vibration    19          0.754              1.502              1.020
 Vibration    20          0.787              1.417              0.876
 Vibration    21          0.795              1.397              0.846
 Vibration    22          0.803              1.375              0.815
 Vibration    23          0.821              1.331              0.756
 Vibration    24          0.855              1.250              0.658
 Vibration    25          0.870              1.218              0.623
 Vibration    26          0.900              1.152              0.556
 Vibration    27          0.913              1.123              0.529
 Vibration    28          0.963              1.022              0.442

 Optimization completed.
    -- Stationary point found.
 Normal termination of Gaussian 16 at Sun May 28 06:14:14 2023.
