 Gaussian 16, Revision A.03,
 Gaussian 16:  ES64L-G16RevA.03 25-Dec-2016

 -----------------------------
 # opt freq b3lyp/6-31g(2df,p)
 -----------------------------

 -------------------
 Title Card Required
 -------------------
 Symbolic Z-matrix:
 Charge =  0 Multiplicity = 1

 SCF Done:  E(RB3LYP) =  -313.127377373     A.U. after   12 cycles
 SCF Done:  E(RB3LYP) =  -313.163604371     A.U. after   11 cycles
 SCF Done:  E(RB3LYP) =  -313.198978407     A.U. after   11 cycles
 SCF Done:  E(RB3LYP) =  -313.212271386     A.U. after   11 cycles
 SCF Done:  E(RB3LYP) =  -313.216565458     A.U. after   10 cycles
 SCF Done:  E(RB3LYP) =  -313.217158862     A.U. after   10 cycles
 SCF Done:  E(RB3LYP) =  -313.217294118     A.U. after    9 cycles
 SCF Done:  E(RB3LYP) =  -313.217410519     A.U. after    8 cycles
 SCF Done:  E(RB3LYP) =  -313.217467960     A.U. after    8 cycles
 SCF Done:  E(RB3LYP) =  -313.217489641     A.U. after    8 cycles
 SCF Done:  E(RB3LYP) =  -313.217509559     A.U. after    8 cycles
 SCF Done:  E(RB3LYP) =  -313.217527824     A.U. after    9 cycles
 SCF Done:  E(RB3LYP) =  -313.217535532     A.U. after    8 cycles
 SCF Done:  E(RB3LYP) =  -313.217537082     A.U. after    8 cycles
 SCF Done:  E(RB3LYP) =  -313.217537194     A.U. after    5 cycles
 SCF Done:  E(RB3LYP) =  -313.217537305     A.U. after    5 cycles
 Optimization completed.
    -- Stationary point found.
 Normal termination of Gaussian 16 at Sun May 28 03:13:18 2023.

 ----------------------------------------------------------------------
 #N Geom=AllCheck Guess=TCheck SCRF=Check GenChk RB3LYP/6-31G(2df,p) Fr
 eq
 ----------------------------------------------------------------------

 Structure from the checkpoint file:  "CCC1C2CC1C2C.chk"
 -------------------
 Title Card Required
 -------------------
 Charge =  0 Multiplicity = 1

                         Standard orientation:
 ---------------------------------------------------------------------
 Center     Atomic      Atomic             Coordinates (Angstroms)
 Number     Number       Type             X           Y           Z
 ---------------------------------------------------------------------
      1          6           0        2.671125   -0.137350    0.454862
      2          6           0        1.620388   -0.080897   -0.660703
      3          6           0        0.320482   -0.790073   -0.281944
      4          6           0       -0.619751   -0.440375    0.931676
      5          6           0       -1.680670   -1.332396    0.219823
      6          6           0       -1.070286   -0.430932   -0.894940
      7          6           0       -1.232812    0.751316    0.127316
      8          6           0       -0.571623    2.126449    0.025453
      9          1           0        3.624931    0.288226    0.127521
     10          1           0        2.857327   -1.170345    0.769793
     11          1           0        2.341675    0.419433    1.338891
     12          1           0        2.016429   -0.590347   -1.549446
     13          1           0        1.459801    0.952980   -0.968655
     14          1           0        0.520925   -1.869392   -0.314074
     15          1           0       -0.364755   -0.455484    1.993781
     16          1           0       -2.725647   -1.149333    0.482474
     17          1           0       -1.461787   -2.401112    0.156881
     18          1           0       -1.342026   -0.425790   -1.953441
     19          1           0       -2.291146    0.907569    0.368235
     20          1           0        0.491842    2.129118    0.263519
     21          1           0       -1.053833    2.812519    0.730159
     22          1           0       -0.694867    2.557505   -0.974903
 ---------------------------------------------------------------------

 SCF Done:  E(RB3LYP) =  -313.217537305     A.U. after    1 cycles

 The electronic state is 1-A.
 Alpha  occ. eigenvalues --  -10.19179 -10.19134 -10.18622 -10.18369 -10.17948
 Alpha  occ. eigenvalues --  -10.17305 -10.17029 -10.16912  -0.90169  -0.76410
 Alpha  occ. eigenvalues --   -0.72863  -0.65954  -0.61641  -0.61475  -0.58682
 Alpha  occ. eigenvalues --   -0.51281  -0.48738  -0.45258  -0.43401  -0.41544
 Alpha  occ. eigenvalues --   -0.40509  -0.39257  -0.38018  -0.36629  -0.34332
 Alpha  occ. eigenvalues --   -0.32395  -0.30827  -0.30272  -0.29425  -0.28951
 Alpha  occ. eigenvalues --   -0.28121
 Alpha virt. eigenvalues --    0.08930   0.11353   0.11532   0.12446   0.13486
 Alpha virt. eigenvalues --    0.14415   0.14911   0.16361   0.16821   0.17006
 Alpha virt. eigenvalues --    0.17156   0.17731   0.19158   0.19882   0.20285

 Mulliken charges:
               1
     1  C   -0.372170
     2  C   -0.245572
     3  C    0.089668
     4  C   -0.082128
     5  C   -0.222205
     6  C   -0.094527
     7  C    0.082580
     8  C   -0.451074
     9  H    0.109508
    10  H    0.113081
    11  H    0.116450
    12  H    0.091357
    13  H    0.100676
    14  H    0.058811
    15  H    0.061770
    16  H    0.085264
    17  H    0.085632
    18  H    0.060244
    19  H    0.061184
    20  H    0.125302
    21  H    0.110811
    22  H    0.115337
 Sum of Mulliken charges =   0.00000

 Dipole moment (field-independent basis, Debye):
    X=              0.0795    Y=              0.1288    Z=             -0.0527  Tot=              0.1602
 Quadrupole moment (field-independent basis, Debye-Ang):
   XX=            -51.6593   YY=            -51.3880   ZZ=            -51.4919
   XY=             -0.4255   XZ=             -0.2825   YZ=              0.1143

  Exact polarizability:  90.349   0.286  84.241  -1.104   0.115  73.622
 Approx polarizability: 119.289  -1.012 118.830  -1.440   0.423 114.852

                      1                      2                      3
                      A                      A                      A
 Frequencies --     48.6347                74.8623               157.5174
 Red. masses --      1.7886                 1.3564                 2.6003
 Frc consts  --      0.0025                 0.0045                 0.0380
 IR Inten    --      0.0709                 0.0237                 0.0165

                      4                      5                      6
                      A                      A                      A
 Frequencies --    222.1441               283.7906               331.6682
 Red. masses --      1.0676                 2.3775                 2.4526
 Frc consts  --      0.0310                 0.1128                 0.1590
 IR Inten    --      0.0238                 0.1510                 0.3779

                      7                      8                      9
                      A                      A                      A
 Frequencies --    353.2730               412.2999               537.7938
 Red. masses --      2.2315                 2.7798                 2.4141
 Frc consts  --      0.1641                 0.2784                 0.4114
 IR Inten    --      0.4601                 0.3832                 0.0767

                     10                     11                     12
                      A                      A                      A
 Frequencies --    621.1500               738.4749               757.3861
 Red. masses --      3.4319                 2.0872                 1.9027
 Frc consts  --      0.7802                 0.6706                 0.6431
 IR Inten    --      0.0308                 0.5918                 1.1000

                     13                     14                     15
                      A                      A                      A
 Frequencies --    794.7053               809.2170               846.8496
 Red. masses --      2.1003                 2.3016                 1.5707
 Frc consts  --      0.7815                 0.8880                 0.6637
 IR Inten    --      0.4644                 0.4657                 2.1036

                     16                     17                     18
                      A                      A                      A
 Frequencies --    883.7415               890.3622               958.4730
 Red. masses --      2.1034                 2.2170                 2.0344
 Frc consts  --      0.9679                 1.0355                 1.1011
 IR Inten    --      1.1428                 0.0166                 2.3018

                     19                     20                     21
                      A                      A                      A
 Frequencies --   1010.4565              1030.0171              1034.9285
 Red. masses --      1.1315                 1.0609                 1.4403
 Frc consts  --      0.6807                 0.6632                 0.9089
 IR Inten    --      1.9842                 0.3492                 0.5179

                     22                     23                     24
                      A                      A                      A
 Frequencies --   1051.9432              1055.9092              1071.6915
 Red. masses --      1.6054                 2.2920                 1.5214
 Frc consts  --      1.0467                 1.5056                 1.0295
 IR Inten    --      1.9924                 1.4921                 2.5271

                     25                     26                     27
                      A                      A                      A
 Frequencies --   1108.4189              1124.3843              1142.1310
 Red. masses --      1.5269                 1.7388                 2.0113
 Frc consts  --      1.1053                 1.2952                 1.5458
 IR Inten    --      0.1947                 0.1769                 1.2876

                     28                     29                     30
                      A                      A                      A
 Frequencies --   1163.2090              1176.0849              1185.7894
 Red. masses --      2.2694                 1.4069                 2.7584
 Frc consts  --      1.8092                 1.1465                 2.2852
 IR Inten    --      0.1554                 0.5879                 1.1829

                     31                     32                     33
                      A                      A                      A
 Frequencies --   1224.0604              1233.9029              1249.9475
 Red. masses --      1.4407                 1.7794                 1.6425
 Frc consts  --      1.2719                 1.5962                 1.5119
 IR Inten    --      0.2358                 2.0642                 8.6860

                     34                     35                     36
                      A                      A                      A
 Frequencies --   1280.1510              1298.8239              1353.3423
 Red. masses --      1.5665                 1.4339                 1.4418
 Frc consts  --      1.5126                 1.4252                 1.5559
 IR Inten    --      0.9627                 0.6978                 6.8729

                     37                     38                     39
                      A                      A                      A
 Frequencies --   1408.1336              1410.5950              1429.1663
 Red. masses --      1.2284                 1.2176                 1.2336
 Frc consts  --      1.4351                 1.4274                 1.4845
 IR Inten    --      1.4336                 0.8979                 5.0746

                     40                     41                     42
                      A                      A                      A
 Frequencies --   1459.3946              1489.8767              1494.2243
 Red. masses --      1.2100                 1.0545                 1.0480
 Frc consts  --      1.5183                 1.3792                 1.3786
 IR Inten    --      6.3930                 3.6428                 4.5026

                     43                     44                     45
                      A                      A                      A
 Frequencies --   1499.6963              1504.0819              1526.8548
 Red. masses --      1.0419                 1.0541                 1.1291
 Frc consts  --      1.3806                 1.4050                 1.5508
 IR Inten    --      3.4632                 2.8204                 2.8629

                     46                     47                     48
                      A                      A                      A
 Frequencies --   1529.5018              3000.5068              3017.7006
 Red. masses --      1.0819                 1.0822                 1.0801
 Frc consts  --      1.4912                 5.7405                 5.7949
 IR Inten    --      0.3667                35.7988                41.0849

                     49                     50                     51
                      A                      A                      A
 Frequencies --   3023.1554              3028.2161              3035.5309
 Red. masses --      1.0746                 1.0353                 1.0451
 Frc consts  --      5.7864                 5.5936                 5.6736
 IR Inten    --     33.3968                24.6491                35.4045

                     52                     53                     54
                      A                      A                      A
 Frequencies --   3051.5776              3077.0414              3084.8434
 Red. masses --      1.0546                 1.0893                 1.0970
 Frc consts  --      5.7861                 6.0766                 6.1506
 IR Inten    --     51.1629               120.5611                10.5769

                     55                     56                     57
                      A                      A                      A
 Frequencies --   3086.2285              3088.1287              3100.2071
 Red. masses --      1.0949                 1.0969                 1.1016
 Frc consts  --      6.1441                 6.1634                 6.2384
 IR Inten    --     18.9723                22.8049                42.3045

                     58                     59                     60
                      A                      A                      A
 Frequencies --   3115.7434              3118.8270              3145.1335
 Red. masses --      1.0965                 1.1063                 1.0924
 Frc consts  --      6.2717                 6.3404                 6.3669
 IR Inten    --     17.5707                81.8658                21.5892

 - Thermochemistry -
 -------------------
 Temperature   298.150 Kelvin.  Pressure   1.00000 Atm.
 Atom     1 has atomic number  6 and mass  12.00000

 Molecular mass:   110.10955 amu.
 Principal axes and moments of inertia in atomic units:
                           1         2         3
     Eigenvalues --   620.497521035.948461333.78121
           X            0.99999  -0.00358   0.00325
           Y            0.00359   0.99999  -0.00320
           Z           -0.00324   0.00321   0.99999
 This molecule is an asymmetric top.
 Rotational symmetry number  1.
 Warning -- assumption of classical behavior for rotation
           may cause significant error
 Rotational temperatures (Kelvin)      0.13959     0.08361     0.06494
 Rotational constants (GHZ):           2.90854     1.74211     1.35310
 Zero-point vibrational energy     527803.8 (Joules/Mol)
                                  126.14813 (Kcal/Mol)
 Warning -- explicit consideration of   9 degrees of freedom as
           vibrations may cause significant error
 Vibrational temperatures:     69.97   107.71   226.63   319.62   408.31
          (Kelvin)            477.20   508.28   593.21   773.77   893.70
                             1062.50  1089.71  1143.40  1164.28  1218.43
                             1271.51  1281.03  1379.03  1453.82  1481.96
                             1489.03  1513.51  1519.22  1541.93  1594.77
                             1617.74  1643.27  1673.60  1692.12  1706.09
                             1761.15  1775.31  1798.40  1841.85  1868.72
                             1947.16  2025.99  2029.53  2056.25  2099.74
                             2143.60  2149.86  2157.73  2164.04  2196.80
                             2200.61  4317.06  4341.80  4349.65  4356.93
                             4367.45  4390.54  4427.18  4438.40  4440.39
                             4443.13  4460.51  4482.86  4487.30  4525.15

 Zero-point correction=                           0.201030 (Hartree/Particle)
 Thermal correction to Energy=                    0.209476
 Thermal correction to Enthalpy=                  0.210421
 Thermal correction to Gibbs Free Energy=         0.167623
 Sum of electronic and zero-point Energies=           -313.016507
 Sum of electronic and thermal Energies=              -313.008061
 Sum of electronic and thermal Enthalpies=            -313.007117
 Sum of electronic and thermal Free Energies=         -313.049914

                     E (Thermal)             CV                S
                      KCal/Mol        Cal/Mol-Kelvin    Cal/Mol-Kelvin
 Total                  131.448             32.153             90.075
 Electronic               0.000              0.000              0.000
 Translational            0.889              2.981             40.005
 Rotational               0.889              2.981             28.241
 Vibrational            129.671             26.192             21.829
 Vibration     1          0.595              1.978              4.872
 Vibration     2          0.599              1.966              4.021
 Vibration     3          0.621              1.894              2.579
 Vibration     4          0.648              1.807              1.942
 Vibration     5          0.682              1.704              1.511
 Vibration     6          0.714              1.612              1.252
 Vibration     7          0.729              1.569              1.152
 Vibration     8          0.776              1.444              0.919
 Vibration     9          0.893              1.166              0.570

                           ! Non-Optimized Parameters !
 Normal termination of Gaussian 16 at Sun May 28 03:43:27 2023.
