 Gaussian 16, Revision A.03,
 Gaussian 16:  ES64L-G16RevA.03 25-Dec-2016

 -----------------------------
 # opt freq b3lyp/6-31g(2df,p)
 -----------------------------

 -------------------
 Title Card Required
 -------------------
 Symbolic Z-matrix:
 Charge =  0 Multiplicity = 1

 SCF Done:  E(RB3LYP) =  -845.827317733     A.U. after   14 cycles
 SCF Done:  E(RB3LYP) =  -845.539806023     A.U. after   15 cycles
 SCF Done:  E(RB3LYP) =  -845.899848801     A.U. after   12 cycles
 SCF Done:  E(RB3LYP) =  -845.921535352     A.U. after   12 cycles
 SCF Done:  E(RB3LYP) =  -845.944160215     A.U. after   12 cycles
 SCF Done:  E(RB3LYP) =  -845.937247485     A.U. after   12 cycles
 SCF Done:  E(RB3LYP) =  -845.940270613     A.U. after   13 cycles
 SCF Done:  E(RB3LYP) =  -845.954005437     A.U. after   10 cycles
 SCF Done:  E(RB3LYP) =  -845.964538861     A.U. after   12 cycles
 SCF Done:  E(RB3LYP) =  -845.975448036     A.U. after   13 cycles
 SCF Done:  E(RB3LYP) =  -846.017224713     A.U. after    9 cycles
 SCF Done:  E(RB3LYP) =  -846.017349445     A.U. after   11 cycles
 SCF Done:  E(RB3LYP) =  -846.017371618     A.U. after    9 cycles
 SCF Done:  E(RB3LYP) =  -846.017387792     A.U. after    9 cycles
 SCF Done:  E(RB3LYP) =  -846.017393071     A.U. after    9 cycles
 SCF Done:  E(RB3LYP) =  -846.017395091     A.U. after    8 cycles
 SCF Done:  E(RB3LYP) =  -846.017395882     A.U. after    7 cycles
 SCF Done:  E(RB3LYP) =  -846.017396234     A.U. after    7 cycles
 SCF Done:  E(RB3LYP) =  -846.017396300     A.U. after    7 cycles
 Optimization completed.
    -- Stationary point found.
 Normal termination of Gaussian 16 at Wed May 24 22:31:16 2023.

 ----------------------------------------------------------------------
 #N Geom=AllCheck Guess=TCheck SCRF=Check GenChk RB3LYP/6-31G(2df,p) Fr
 eq
 ----------------------------------------------------------------------

 Structure from the checkpoint file:  "CCC1C2NdCqCrNdCCdC2OCqCCCOrC1C.chk"
 -------------------
 Title Card Required
 -------------------
 Charge =  0 Multiplicity = 1

                         Standard orientation:
 ---------------------------------------------------------------------
 Center     Atomic      Atomic             Coordinates (Angstroms)
 Number     Number       Type             X           Y           Z
 ---------------------------------------------------------------------
      1          6           0       -0.990266    3.688412   -1.446799
      2          6           0       -1.556986    2.498109   -0.663760
      3          6           0       -0.546015    1.358663   -0.401897
      4          6           0       -1.255788   -0.009228   -0.446836
      5          7           0       -2.481264    0.010083    0.349083
      6          6           0       -3.324925   -0.936223    0.129402
      7          6           0       -4.646137   -0.904588    0.858214
      8          7           0       -3.211014   -2.023139   -0.731164
      9          6           0       -2.102588   -2.701451   -0.809503
     10          6           0       -0.845076   -2.434745   -0.178327
     11          6           0       -0.442553   -1.162791    0.101719
     12          8           0        0.634322   -0.985511    0.872658
     13          6           0        1.260185    0.314970    1.012306
     14          6           0        2.449748    0.391891    0.046590
     15          6           0        3.493796   -0.704536    0.291182
     16          6           0        4.683887   -0.606411   -0.664217
     17          8           0        5.623373   -1.653283   -0.486930
     18          6           0        0.225044    1.451015    0.928895
     19          6           0        0.877167    2.806197    1.229006
     20          1           0       -1.768451    4.436748   -1.628478
     21          1           0       -0.607203    3.369017   -2.422833
     22          1           0       -0.171663    4.187243   -0.920822
     23          1           0       -2.401513    2.085533   -1.226733
     24          1           0       -1.987685    2.832616    0.285834
     25          1           0        0.180906    1.369515   -1.225289
     26          1           0       -1.493473   -0.247902   -1.493767
     27          1           0       -4.705294   -0.022972    1.496570
     28          1           0       -4.769346   -1.807406    1.465906
     29          1           0       -5.466036   -0.896563    0.133233
     30          1           0       -2.168309   -3.627368   -1.387724
     31          1           0       -0.193623   -3.265648    0.071393
     32          1           0        1.654859    0.286556    2.034810
     33          1           0        2.921360    1.375260    0.155980
     34          1           0        2.090937    0.330748   -0.987799
     35          1           0        3.035977   -1.692705    0.186621
     36          1           0        3.858897   -0.635100    1.326744
     37          1           0        5.163078    0.382560   -0.569017
     38          1           0        4.339430   -0.693850   -1.701014
     39          1           0        5.973967   -1.585924    0.406910
     40          1           0       -0.505852    1.253793    1.724931
     41          1           0        1.543118    3.136293    0.426024
     42          1           0        1.465710    2.756812    2.152324
     43          1           0        0.117624    3.578791    1.369096
 ---------------------------------------------------------------------

 SCF Done:  E(RB3LYP) =  -846.017396300     A.U. after    1 cycles

 The electronic state is 1-A.
 Alpha  occ. eigenvalues --  -19.18580 -19.13569 -14.31136 -14.30632 -10.26191
 Alpha  occ. eigenvalues --  -10.25199 -10.23814 -10.22963 -10.22842 -10.21630
 Alpha  occ. eigenvalues --  -10.19642 -10.19607 -10.19020 -10.18709 -10.18569
 Alpha  occ. eigenvalues --  -10.17773 -10.17352 -10.17351 -10.16983  -1.08213
 Alpha  occ. eigenvalues --   -1.01698  -0.95107  -0.87420  -0.83536  -0.81525
 Alpha  occ. eigenvalues --   -0.78519  -0.75923  -0.73141  -0.71440  -0.70456
 Alpha  occ. eigenvalues --   -0.66736  -0.64452  -0.63242  -0.60865  -0.60569
 Alpha  occ. eigenvalues --   -0.57830  -0.53188  -0.52391  -0.51337  -0.50670
 Alpha  occ. eigenvalues --   -0.48650  -0.47658  -0.46624  -0.46445  -0.44859
 Alpha  occ. eigenvalues --   -0.43857  -0.43147  -0.42487  -0.42024  -0.41817
 Alpha  occ. eigenvalues --   -0.40666  -0.39982  -0.39830  -0.39168  -0.38310
 Alpha  occ. eigenvalues --   -0.37643  -0.37037  -0.36271  -0.35679  -0.35038
 Alpha  occ. eigenvalues --   -0.34787  -0.34394  -0.33394  -0.32834  -0.31689
 Alpha  occ. eigenvalues --   -0.31401  -0.30201  -0.28058  -0.26825  -0.26797
 Alpha  occ. eigenvalues --   -0.23370  -0.21213
 Alpha virt. eigenvalues --   -0.03742   0.01846   0.07224   0.07539   0.08031
 Alpha virt. eigenvalues --    0.08717   0.09631   0.10244   0.11271   0.12274
 Alpha virt. eigenvalues --    0.12652   0.13241   0.13306   0.13935   0.14663

 Mulliken charges:
               1
     1  C   -0.398429
     2  C   -0.192028
     3  C   -0.024373
     4  C   -0.135410
     5  N   -0.257287
     6  C    0.331745
     7  C   -0.438961
     8  N   -0.286409
     9  C   -0.014396
    10  C   -0.233708
    11  C    0.398786
    12  O   -0.279268
    13  C    0.093047
    14  C   -0.210940
    15  C   -0.202154
    16  C   -0.060850
    17  O   -0.416588
    18  C   -0.016393
    19  C   -0.432894
    20  H    0.113505
    21  H    0.111999
    22  H    0.114601
    23  H    0.104726
    24  H    0.108955
    25  H    0.067905
    26  H    0.094503
    27  H    0.127949
    28  H    0.130326
    29  H    0.137393
    30  H    0.103661
    31  H    0.100702
    32  H    0.089750
    33  H    0.107183
    34  H    0.109266
    35  H    0.124855
    36  H    0.084251
    37  H    0.083281
    38  H    0.112459
    39  H    0.280448
    40  H    0.104305
    41  H    0.123056
    42  H    0.111515
    43  H    0.129915
 Sum of Mulliken charges =  -0.00000

 Dipole moment (field-independent basis, Debye):
    X=              2.1492    Y=              2.0403    Z=              1.2367  Tot=              3.2111
 Quadrupole moment (field-independent basis, Debye-Ang):
   XX=           -122.7463   YY=           -116.1234   ZZ=           -114.4750
   XY=              3.5812   XZ=              6.5855   YZ=             -1.8578

  Exact polarizability: 219.046   9.917 191.219   7.239   8.312 138.275
 Approx polarizability: 303.211  14.560 277.341  18.229  22.423 227.800

                      1                      2                      3
                      A                      A                      A
 Frequencies --     30.2274                49.2447                51.2970
 Red. masses --      5.3424                 2.1580                 3.5218
 Frc consts  --      0.0029                 0.0031                 0.0055
 IR Inten    --      0.3889                 1.5230                 1.3980

                      4                      5                      6
                      A                      A                      A
 Frequencies --     68.5188                83.9972               102.5795
 Red. masses --      2.7523                 2.6006                 2.9729
 Frc consts  --      0.0076                 0.0108                 0.0184
 IR Inten    --      0.6881                 0.1681                 1.3155

                      7                      8                      9
                      A                      A                      A
 Frequencies --    124.1975               139.4301               142.7197
 Red. masses --      3.0371                 3.2070                 1.3328
 Frc consts  --      0.0276                 0.0367                 0.0160
 IR Inten    --      0.8175                 1.1616                 1.1966

                     10                     11                     12
                      A                      A                      A
 Frequencies --    149.8852               165.3158               184.2860
 Red. masses --      2.2894                 2.3011                 2.4586
 Frc consts  --      0.0303                 0.0371                 0.0492
 IR Inten    --      1.4041                 0.9631                 1.7889

                     13                     14                     15
                      A                      A                      A
 Frequencies --    205.2130               216.9791               262.0439
 Red. masses --      3.6891                 1.5444                 2.8213
 Frc consts  --      0.0915                 0.0428                 0.1141
 IR Inten    --      2.7401                 0.3322                 0.2094

                     16                     17                     18
                      A                      A                      A
 Frequencies --    280.3088               290.4638               301.7990
 Red. masses --      2.9645                 1.0912                 1.3817
 Frc consts  --      0.1372                 0.0542                 0.0742
 IR Inten    --      0.4277                 3.7275                87.4469

                     19                     20                     21
                      A                      A                      A
 Frequencies --    313.4378               327.0876               343.7768
 Red. masses --      2.3202                 5.7877                 2.7204
 Frc consts  --      0.1343                 0.3648                 0.1894
 IR Inten    --     33.1696                 5.2837                 5.3823

                     22                     23                     24
                      A                      A                      A
 Frequencies --    354.6279               372.1749               426.3533
 Red. masses --      3.5379                 3.1835                 4.4467
 Frc consts  --      0.2621                 0.2598                 0.4762
 IR Inten    --      0.1043                 0.6137                 1.1657

                     25                     26                     27
                      A                      A                      A
 Frequencies --    448.2139               452.0535               461.5167
 Red. masses --      3.9798                 3.5986                 3.4588
 Frc consts  --      0.4711                 0.4333                 0.4341
 IR Inten    --     19.0687                 1.9747                 4.8089

                     28                     29                     30
                      A                      A                      A
 Frequencies --    482.1518               540.7857               581.4296
 Red. masses --      2.8881                 5.1931                 3.5218
 Frc consts  --      0.3956                 0.8948                 0.7015
 IR Inten    --      4.8852                 6.0554                13.3616

                     31                     32                     33
                      A                      A                      A
 Frequencies --    643.9772               669.7879               682.7591
 Red. masses --      3.3789                 3.7139                 3.5952
 Frc consts  --      0.8256                 0.9816                 0.9874
 IR Inten    --     17.9160                 8.4022                 7.0909

                     34                     35                     36
                      A                      A                      A
 Frequencies --    703.1693               744.8308               759.5214
 Red. masses --      3.2070                 1.8594                 1.2403
 Frc consts  --      0.9343                 0.6078                 0.4216
 IR Inten    --      2.8617                 0.2197                 2.1740

                     37                     38                     39
                      A                      A                      A
 Frequencies --    786.6146               809.2066               838.5652
 Red. masses --      1.9031                 2.0052                 1.8872
 Frc consts  --      0.6938                 0.7736                 0.7819
 IR Inten    --      6.9153                40.6830                 4.5278

                     40                     41                     42
                      A                      A                      A
 Frequencies --    854.9024               880.0436               896.2556
 Red. masses --      1.9450                 2.6023                 3.5705
 Frc consts  --      0.8376                 1.1875                 1.6898
 IR Inten    --      7.3217                 3.2317                 6.9219

                     43                     44                     45
                      A                      A                      A
 Frequencies --    921.7775               941.5504               956.2490
 Red. masses --      2.1120                 1.9153                 1.6195
 Frc consts  --      1.0573                 1.0004                 0.8725
 IR Inten    --     22.8261                24.2358                27.0398

                     46                     47                     48
                      A                      A                      A
 Frequencies --    974.9754               982.0293              1001.5340
 Red. masses --      2.1411                 1.7647                 2.6985
 Frc consts  --      1.1991                 1.0027                 1.5948
 IR Inten    --     13.9491                 0.7315                74.7180

                     49                     50                     51
                      A                      A                      A
 Frequencies --   1026.9439              1035.1706              1048.3467
 Red. masses --      2.2510                 2.0118                 2.3458
 Frc consts  --      1.3987                 1.2701                 1.5190
 IR Inten    --     21.5146                 8.9054                35.5897

                     52                     53                     54
                      A                      A                      A
 Frequencies --   1053.8014              1066.2523              1070.5277
 Red. masses --      2.5368                 1.7371                 2.2218
 Frc consts  --      1.6598                 1.1636                 1.5002
 IR Inten    --      4.0179                 4.5224                 3.7547

                     55                     56                     57
                      A                      A                      A
 Frequencies --   1082.2921              1084.4082              1098.0371
 Red. masses --      2.5213                 2.3216                 2.4717
 Frc consts  --      1.7401                 1.6085                 1.7558
 IR Inten    --     50.9809                55.4795                 2.7896

                     58                     59                     60
                      A                      A                      A
 Frequencies --   1114.5548              1128.2469              1135.0393
 Red. masses --      2.1201                 1.8157                 2.4721
 Frc consts  --      1.5517                 1.3618                 1.8765
 IR Inten    --      8.2619                12.9821                27.9510

                     61                     62                     63
                      A                      A                      A
 Frequencies --   1152.9227              1187.7828              1196.3261
 Red. masses --      1.5915                 2.2584                 1.8531
 Frc consts  --      1.2464                 1.8772                 1.5626
 IR Inten    --     19.9596                 5.7841                 2.5628

                     64                     65                     66
                      A                      A                      A
 Frequencies --   1242.6167              1254.4864              1274.0049
 Red. masses --      2.2526                 1.5327                 1.8855
 Frc consts  --      2.0494                 1.4212                 1.8031
 IR Inten    --     34.5589                28.1356               140.1647

                     67                     68                     69
                      A                      A                      A
 Frequencies --   1276.2868              1293.3474              1307.5885
 Red. masses --      1.3826                 1.3049                 1.4382
 Frc consts  --      1.3269                 1.2861                 1.4488
 IR Inten    --      6.1385                20.2822                51.7889

                     70                     71                     72
                      A                      A                      A
 Frequencies --   1310.6854              1323.1321              1331.7903
 Red. masses --      1.5684                 1.1278                 1.1929
 Frc consts  --      1.5874                 1.1633                 1.2466
 IR Inten    --      5.4715                30.6919                 0.7417

                     73                     74                     75
                      A                      A                      A
 Frequencies --   1344.8045              1348.1917              1363.1887
 Red. masses --      1.3619                 1.4465                 1.3678
 Frc consts  --      1.4512                 1.5491                 1.4976
 IR Inten    --      9.6287                 4.2932                41.5354

                     76                     77                     78
                      A                      A                      A
 Frequencies --   1368.4128              1386.2930              1395.2881
 Red. masses --      1.4777                 1.4943                 1.3354
 Frc consts  --      1.6303                 1.6920                 1.5317
 IR Inten    --      7.6402                21.2544                14.9606

                     79                     80                     81
                      A                      A                      A
 Frequencies --   1396.7211              1404.4158              1406.4254
 Red. masses --      1.3217                 1.3406                 1.4411
 Frc consts  --      1.5191                 1.5579                 1.6795
 IR Inten    --      8.5384                10.5400                12.3044

                     82                     83                     84
                      A                      A                      A
 Frequencies --   1414.7931              1418.8378              1423.3127
 Red. masses --      1.2377                 1.3206                 1.5059
 Frc consts  --      1.4597                 1.5663                 1.7974
 IR Inten    --      1.1086                15.0829                88.4822

                     85                     86                     87
                      A                      A                      A
 Frequencies --   1425.9624              1431.3448              1470.1151
 Red. masses --      1.3580                 1.6231                 1.0716
 Frc consts  --      1.6269                 1.9593                 1.3645
 IR Inten    --     12.5457                30.0066                17.2109

                     88                     89                     90
                      A                      A                      A
 Frequencies --   1476.0613              1478.0308              1482.1764
 Red. masses --      1.0870                 1.0559                 1.0633
 Frc consts  --      1.3953                 1.3590                 1.3763
 IR Inten    --      0.8890                 3.5671                 1.2618

                     91                     92                     93
                      A                      A                      A
 Frequencies --   1494.4182              1496.8815              1502.0849
 Red. masses --      1.0868                 1.0464                 1.0559
 Frc consts  --      1.4300                 1.3814                 1.4036
 IR Inten    --      1.5268                 3.0632                 7.6584

                     94                     95                     96
                      A                      A                      A
 Frequencies --   1509.2578              1512.2978              1516.2675
 Red. masses --      1.0572                 1.0568                 1.0952
 Frc consts  --      1.4188                 1.4241                 1.4835
 IR Inten    --      0.5207                13.6333                 0.4136

                     97                     98                     99
                      A                      A                      A
 Frequencies --   1536.1833              1648.2696              1658.0457
 Red. masses --      6.6828                 6.8630                 8.4458
 Frc consts  --      9.2916                10.9855                13.6800
 IR Inten    --    176.3008                47.3995               358.0639

                    100                    101                    102
                      A                      A                      A
 Frequencies --   2962.6964              2982.5560              3001.1443
 Red. masses --      1.0712                 1.0825                 1.0693
 Frc consts  --      5.5396                 5.6735                 5.6747
 IR Inten    --     56.9883                10.8307                18.6846

                    103                    104                    105
                      A                      A                      A
 Frequencies --   3006.4013              3021.5743              3030.4480
 Red. masses --      1.0802                 1.0828                 1.0600
 Frc consts  --      5.7525                 5.8245                 5.7354
 IR Inten    --      7.4591                17.5382                 0.8080

                    106                    107                    108
                      A                      A                      A
 Frequencies --   3032.9426              3035.8205              3039.4064
 Red. masses --      1.0390                 1.0486                 1.0747
 Frc consts  --      5.6311                 5.6941                 5.8497
 IR Inten    --     20.9158                47.2962                31.9359

                    109                    110                    111
                      A                      A                      A
 Frequencies --   3042.6847              3043.1435              3061.6127
 Red. masses --      1.0630                 1.0373                 1.0881
 Frc consts  --      5.7982                 5.6597                 6.0093
 IR Inten    --     22.4233                12.9938                28.0310

                    112                    113                    114
                      A                      A                      A
 Frequencies --   3071.3246              3073.0709              3082.6264
 Red. masses --      1.0990                 1.0974                 1.0868
 Frc consts  --      6.1082                 6.1061                 6.0845
 IR Inten    --      1.8186                22.6736                52.8694

                    115                    116                    117
                      A                      A                      A
 Frequencies --   3095.9895              3096.6718              3097.4304
 Red. masses --      1.0987                 1.1000                 1.0980
 Frc consts  --      6.2048                 6.2149                 6.2064
 IR Inten    --     52.3469                34.5042                37.7090

                    118                    119                    120
                      A                      A                      A
 Frequencies --   3101.5602              3115.0497              3121.2056
 Red. masses --      1.0984                 1.0995                 1.0997
 Frc consts  --      6.2252                 6.2860                 6.3119
 IR Inten    --     10.5144                32.8093                20.0228

                    121                    122                    123
                      A                      A                      A
 Frequencies --   3153.9506              3182.2725              3814.8299
 Red. masses --      1.1017                 1.0897                 1.0661
 Frc consts  --      6.4571                 6.5015                 9.1412
 IR Inten    --      9.4388                 5.9778                17.7990

 - Thermochemistry -
 -------------------
 Temperature   298.150 Kelvin.  Pressure   1.00000 Atm.
 Atom     1 has atomic number  6 and mass  12.00000

 Molecular mass:   264.18378 amu.
 Principal axes and moments of inertia in atomic units:
                           1         2         3
     Eigenvalues --  3578.553127715.43198**********
           X            1.00000  -0.00209  -0.00012
           Y            0.00209   0.99995  -0.00942
           Z            0.00014   0.00942   0.99996
 This molecule is an asymmetric top.
 Rotational symmetry number  1.
 Warning -- assumption of classical behavior for rotation
           may cause significant error
 Rotational temperatures (Kelvin)      0.02420     0.01123     0.00857
 Rotational constants (GHZ):           0.50432     0.23391     0.17850
 Zero-point vibrational energy     984939.1 (Joules/Mol)
                                  235.40608 (Kcal/Mol)
 Warning -- explicit consideration of  30 degrees of freedom as
           vibrations may cause significant error
 Vibrational temperatures:     43.49    70.85    73.80    98.58   120.85
          (Kelvin)            147.59   178.69   200.61   205.34   215.65
                              237.85   265.15   295.26   312.18   377.02
                              403.30   417.91   434.22   450.97   470.61
                              494.62   510.23   535.48   613.43   644.88
                              650.40   664.02   693.71   778.07   836.55
                              926.54   963.68   982.34  1011.70  1071.65
                             1092.78  1131.76  1164.27  1206.51  1230.01
                             1266.19  1289.51  1326.23  1354.68  1375.83
                             1402.77  1412.92  1440.98  1477.54  1489.38
                             1508.34  1516.19  1534.10  1540.25  1557.18
                             1560.22  1579.83  1603.60  1623.30  1633.07
                             1658.80  1708.95  1721.25  1787.85  1804.93
                             1833.01  1836.29  1860.84  1881.33  1885.78
                             1903.69  1916.15  1934.87  1939.75  1961.32
                             1968.84  1994.57  2007.51  2009.57  2020.64
                             2023.53  2035.57  2041.39  2047.83  2051.64
                             2059.39  2115.17  2123.72  2126.56  2132.52
                             2150.13  2153.68  2161.17  2171.49  2175.86
                             2181.57  2210.23  2371.49  2385.56  4262.66
                             4291.23  4317.98  4325.54  4347.37  4360.14
                             4363.73  4367.87  4373.03  4377.74  4378.40
                             4404.98  4418.95  4421.46  4435.21  4454.44
                             4455.42  4456.51  4462.45  4481.86  4490.72
                             4537.83  4578.58  5488.69

 Zero-point correction=                           0.375143 (Hartree/Particle)
 Thermal correction to Energy=                    0.395038
 Thermal correction to Enthalpy=                  0.395982
 Thermal correction to Gibbs Free Energy=         0.326707
 Sum of electronic and zero-point Energies=           -845.642253
 Sum of electronic and thermal Energies=              -845.622358
 Sum of electronic and thermal Enthalpies=            -845.621414
 Sum of electronic and thermal Free Energies=         -845.690689

                     E (Thermal)             CV                S
                      KCal/Mol        Cal/Mol-Kelvin    Cal/Mol-Kelvin
 Total                  247.890             75.658            145.802
 Electronic               0.000              0.000              0.000
 Translational            0.889              2.981             42.614
 Rotational               0.889              2.981             33.989
 Vibrational            246.113             69.697             69.198
 Vibration     1          0.594              1.984              5.814
 Vibration     2          0.595              1.978              4.847
 Vibration     3          0.596              1.977              4.767
 Vibration     4          0.598              1.969              4.195
 Vibration     5          0.601              1.960              3.795
 Vibration     6          0.605              1.947              3.405
 Vibration     7          0.610              1.929              3.034
 Vibration     8          0.615              1.914              2.812
 Vibration     9          0.616              1.910              2.767
 Vibration    10          0.618              1.903              2.674
 Vibration    11          0.624              1.885              2.488
 Vibration    12          0.631              1.861              2.285
 Vibration    13          0.640              1.832              2.086
 Vibration    14          0.646              1.815              1.984
 Vibration    15          0.669              1.742              1.648
 Vibration    16          0.680              1.710              1.532
 Vibration    17          0.686              1.691              1.471
 Vibration    18          0.694              1.670              1.407
 Vibration    19          0.701              1.648              1.344
 Vibration    20          0.711              1.621              1.274
 Vibration    21          0.723              1.588              1.195
 Vibration    22          0.730              1.566              1.146
 Vibration    23          0.744              1.529              1.071
 Vibration    24          0.788              1.413              0.871
 Vibration    25          0.807              1.365              0.801
 Vibration    26          0.811              1.356              0.790
 Vibration    27          0.819              1.335              0.762
 Vibration    28          0.838              1.290              0.704
 Vibration    29          0.896              1.160              0.564
 Vibration    30          0.938              1.071              0.483

 Optimization completed.
    -- Stationary point found.
 Normal termination of Gaussian 16 at Thu May 25 06:16:13 2023.
