 Gaussian 16, Revision A.03,
 Gaussian 16:  ES64L-G16RevA.03 25-Dec-2016

 -----------------------------
 # opt freq b3lyp/6-31g(2df,p)
 -----------------------------

 -------------------
 Title Card Required
 -------------------
 Symbolic Z-matrix:
 Charge =  0 Multiplicity = 1

 SCF Done:  E(RB3LYP) =  -313.216942587     A.U. after   12 cycles
 SCF Done:  E(RB3LYP) =  -313.236602502     A.U. after   10 cycles
 SCF Done:  E(RB3LYP) =  -313.239044384     A.U. after   10 cycles
 SCF Done:  E(RB3LYP) =  -313.239531089     A.U. after    9 cycles
 SCF Done:  E(RB3LYP) =  -313.239792497     A.U. after    9 cycles
 SCF Done:  E(RB3LYP) =  -313.239861075     A.U. after    9 cycles
 SCF Done:  E(RB3LYP) =  -313.239958289     A.U. after    9 cycles
 SCF Done:  E(RB3LYP) =  -313.239971814     A.U. after    8 cycles
 SCF Done:  E(RB3LYP) =  -313.239973400     A.U. after    7 cycles
 SCF Done:  E(RB3LYP) =  -313.239973455     A.U. after    5 cycles
 Optimization completed.
    -- Stationary point found.
 Normal termination of Gaussian 16 at Sun May 28 08:11:52 2023.

 ----------------------------------------------------------------------
 #N Geom=AllCheck Guess=TCheck SCRF=Check GenChk RB3LYP/6-31G(2df,p) Fr
 eq
 ----------------------------------------------------------------------

 Structure from the checkpoint file:  "CCC12CCqCrqC1rC2.chk"
 -------------------
 Title Card Required
 -------------------
 Charge =  0 Multiplicity = 1

                         Standard orientation:
 ---------------------------------------------------------------------
 Center     Atomic      Atomic             Coordinates (Angstroms)
 Number     Number       Type             X           Y           Z
 ---------------------------------------------------------------------
      1          6           0        2.858555   -0.621736   -0.000008
      2          6           0        1.963920    0.623022    0.000034
      3          6           0        0.488928    0.304787   -0.000052
      4          6           0       -0.315856   -0.494682   -1.073443
      5          6           0       -1.367550   -0.078948    0.000029
      6          6           0       -2.841858   -0.384062    0.000048
      7          6           0       -0.315658   -0.495244    1.073051
      8          6           0       -0.689255    1.324823    0.000314
      9          1           0        3.917732   -0.346874    0.000659
     10          1           0        2.674690   -1.241099   -0.884202
     11          1           0        2.673771   -1.241839    0.883478
     12          1           0        2.193310    1.242119   -0.877629
     13          1           0        2.193180    1.242002    0.877818
     14          1           0       -0.101642   -1.564829   -1.158004
     15          1           0       -0.412345   -0.029330   -2.060004
     16          1           0       -3.021240   -1.465078   -0.000395
     17          1           0       -3.332184    0.036744   -0.884953
     18          1           0       -3.331996    0.035985    0.885510
     19          1           0       -0.101431   -1.565439    1.157035
     20          1           0       -0.411949   -0.030444    2.059898
     21          1           0       -0.813537    1.929942    0.904498
     22          1           0       -0.813718    1.930386   -0.903549
 ---------------------------------------------------------------------

 SCF Done:  E(RB3LYP) =  -313.239973455     A.U. after    1 cycles

 The electronic state is 1-A.
 Alpha  occ. eigenvalues --  -10.19800 -10.19556 -10.17524 -10.17506 -10.17506
 Alpha  occ. eigenvalues --  -10.17462 -10.17032 -10.16991  -0.90403  -0.76256
 Alpha  occ. eigenvalues --   -0.71588  -0.65835  -0.65742  -0.63242  -0.53594
 Alpha  occ. eigenvalues --   -0.52639  -0.44813  -0.44695  -0.44079  -0.43719
 Alpha  occ. eigenvalues --   -0.40655  -0.40108  -0.38361  -0.36325  -0.34839
 Alpha  occ. eigenvalues --   -0.34221  -0.30026  -0.30005  -0.29296  -0.29154
 Alpha  occ. eigenvalues --   -0.28384
 Alpha virt. eigenvalues --    0.09153   0.10260   0.13180   0.14141   0.14223
 Alpha virt. eigenvalues --    0.14885   0.15264   0.15395   0.16331   0.17020
 Alpha virt. eigenvalues --    0.17796   0.17978   0.18785   0.18787   0.19146

 Mulliken charges:
               1
     1  C   -0.379389
     2  C   -0.307299
     3  C    0.365517
     4  C   -0.287214
     5  C    0.338631
     6  C   -0.508330
     7  C   -0.287196
     8  C   -0.301513
     9  H    0.110235
    10  H    0.117624
    11  H    0.117627
    12  H    0.094925
    13  H    0.094928
    14  H    0.081975
    15  H    0.080182
    16  H    0.115540
    17  H    0.115686
    18  H    0.115685
    19  H    0.081973
    20  H    0.080178
    21  H    0.080116
    22  H    0.080117
 Sum of Mulliken charges =  -0.00000

 Dipole moment (field-independent basis, Debye):
    X=              0.0100    Y=              0.0148    Z=             -0.0000  Tot=              0.0179
 Quadrupole moment (field-independent basis, Debye-Ang):
   XX=            -51.7018   YY=            -51.5247   ZZ=            -51.1355
   XY=              0.1940   XZ=              0.0001   YZ=             -0.0000

  Exact polarizability:  93.937  -0.524  78.589   0.001   0.000  77.155
 Approx polarizability: 115.935  -0.632 117.969   0.001   0.000 118.449

                      1                      2                      3
                      A                      A                      A
 Frequencies --     84.0353               149.6764               187.2188
 Red. masses --      2.1894                 2.8287                 1.3882
 Frc consts  --      0.0091                 0.0373                 0.0287
 IR Inten    --      0.0009                 0.0499                 0.0352

                      4                      5                      6
                      A                      A                      A
 Frequencies --    208.3537               261.6154               289.4878
 Red. masses --      1.0321                 1.5482                 2.5888
 Frc consts  --      0.0264                 0.0624                 0.1278
 IR Inten    --      0.0000                 0.0585                 0.0455

                      7                      8                      9
                      A                      A                      A
 Frequencies --    368.4571               413.0186               544.0265
 Red. masses --      2.0698                 2.7387                 1.7612
 Frc consts  --      0.1656                 0.2753                 0.3071
 IR Inten    --      0.0012                 0.1197                 0.2163

                     10                     11                     12
                      A                      A                      A
 Frequencies --    544.4873               591.7517               639.2277
 Red. masses --      1.8996                 3.0676                 2.7344
 Frc consts  --      0.3318                 0.6329                 0.6583
 IR Inten    --      0.2351                 0.1707                 0.0207

                     13                     14                     15
                      A                      A                      A
 Frequencies --    747.1887               784.7302               803.8583
 Red. masses --      1.9162                 2.6032                 1.4505
 Frc consts  --      0.6303                 0.9445                 0.5522
 IR Inten    --      0.4346                 0.1735                 1.6492

                     16                     17                     18
                      A                      A                      A
 Frequencies --    923.5635               936.6518               947.1084
 Red. masses --      4.3079                 1.8744                 1.7771
 Frc consts  --      2.1650                 0.9689                 0.9392
 IR Inten    --      0.3893                 0.0000                 1.0490

                     19                     20                     21
                      A                      A                      A
 Frequencies --    960.7158               974.5289               992.6580
 Red. masses --      1.2607                 2.1335                 1.0081
 Frc consts  --      0.6856                 1.1938                 0.5852
 IR Inten    --      0.0040                 1.6968                 0.0001

                     22                     23                     24
                      A                      A                      A
 Frequencies --   1042.2731              1055.2780              1091.9336
 Red. masses --      1.2083                 1.5815                 1.8737
 Frc consts  --      0.7734                 1.0377                 1.3163
 IR Inten    --      0.5749                 1.1167                 2.2612

                     25                     26                     27
                      A                      A                      A
 Frequencies --   1095.6648              1108.5578              1144.3023
 Red. masses --      1.6552                 1.6507                 1.3561
 Frc consts  --      1.1707                 1.1952                 1.0462
 IR Inten    --      1.8946                 0.1638                 0.0001

                     28                     29                     30
                      A                      A                      A
 Frequencies --   1144.9478              1172.7665              1187.8990
 Red. masses --      1.3753                 1.6821                 1.6576
 Frc consts  --      1.0622                 1.3631                 1.3781
 IR Inten    --      0.0754                 2.0068                 0.1560

                     31                     32                     33
                      A                      A                      A
 Frequencies --   1212.2992              1215.7736              1306.1272
 Red. masses --      2.3372                 2.3129                 2.2239
 Frc consts  --      2.0238                 2.0142                 2.2353
 IR Inten    --      0.5432                 0.0070                59.4153

                     34                     35                     36
                      A                      A                      A
 Frequencies --   1306.8279              1336.6377              1380.4887
 Red. masses --      1.2416                 2.1895                 2.1907
 Frc consts  --      1.2493                 2.3047                 2.4598
 IR Inten    --      0.0127                 2.8029                 0.9607

                     37                     38                     39
                      A                      A                      A
 Frequencies --   1409.7423              1411.6725              1480.2564
 Red. masses --      1.2628                 1.3844                 1.0691
 Frc consts  --      1.4786                 1.6255                 1.3801
 IR Inten    --      2.4791                 1.3488                 0.9338

                     40                     41                     42
                      A                      A                      A
 Frequencies --   1490.0654              1490.1887              1495.9425
 Red. masses --      1.0500                 1.0503                 1.0930
 Frc consts  --      1.3736                 1.3741                 1.4411
 IR Inten    --      3.4195                 3.4688                 0.5756

                     43                     44                     45
                      A                      A                      A
 Frequencies --   1496.1154              1499.2692              1507.0316
 Red. masses --      1.0928                 1.0398                 1.0696
 Frc consts  --      1.4412                 1.3770                 1.4313
 IR Inten    --      0.0513                 5.7723                 2.7916

                     46                     47                     48
                      A                      A                      A
 Frequencies --   1560.1291              3010.8430              3022.6303
 Red. masses --      1.2675                 1.0592                 1.0355
 Frc consts  --      1.8177                 5.6575                 5.5741
 IR Inten    --      0.0358                29.8085                34.4233

                     49                     50                     51
                      A                      A                      A
 Frequencies --   3027.5176              3028.7134              3033.4360
 Red. masses --      1.0531                 1.0533                 1.0357
 Frc consts  --      5.6869                 5.6927                 5.6148
 IR Inten    --     60.4822                70.1261                32.3370

                     52                     53                     54
                      A                      A                      A
 Frequencies --   3040.7776              3041.7762              3089.3437
 Red. masses --      1.0541                 1.1016                 1.1115
 Frc consts  --      5.7426                 6.0052                 6.2502
 IR Inten    --      0.2525                12.9080                 0.0343

                     55                     56                     57
                      A                      A                      A
 Frequencies --   3089.8141              3089.9934              3096.1580
 Red. masses --      1.1012                 1.1021                 1.1088
 Frc consts  --      6.1943                 6.2000                 6.2625
 IR Inten    --     10.2133                 8.3461                79.6057

                     58                     59                     60
                      A                      A                      A
 Frequencies --   3097.0560              3101.8271              3104.5782
 Red. masses --      1.1085                 1.1019                 1.1016
 Frc consts  --      6.2646                 6.2463                 6.2559
 IR Inten    --     68.1951                32.7720                43.0775

 - Thermochemistry -
 -------------------
 Temperature   298.150 Kelvin.  Pressure   1.00000 Atm.
 Atom     1 has atomic number  6 and mass  12.00000

 Molecular mass:   110.10955 amu.
 Principal axes and moments of inertia in atomic units:
                           1         2         3
     Eigenvalues --   376.346281402.558051455.70325
           X            0.99999  -0.00407   0.00000
           Y            0.00407   0.99999   0.00000
           Z           -0.00000  -0.00000   1.00000
 This molecule is an asymmetric top.
 Rotational symmetry number  1.
 Rotational temperatures (Kelvin)      0.23014     0.06175     0.05950
 Rotational constants (GHZ):           4.79543     1.28675     1.23977
 Zero-point vibrational energy     525573.4 (Joules/Mol)
                                  125.61506 (Kcal/Mol)
 Warning -- explicit consideration of  11 degrees of freedom as
           vibrations may cause significant error
 Vibrational temperatures:    120.91   215.35   269.37   299.77   376.41
          (Kelvin)            416.51   530.13   594.24   782.73   783.40
                              851.40   919.71  1075.04  1129.05  1156.57
                             1328.80  1347.63  1362.68  1382.26  1402.13
                             1428.21  1499.60  1518.31  1571.05  1576.42
                             1594.97  1646.40  1647.32  1687.35  1709.12
                             1744.23  1749.23  1879.23  1880.23  1923.12
                             1986.22  2028.30  2031.08  2129.76  2143.87
                             2144.05  2152.33  2152.58  2157.11  2168.28
                             2244.68  4331.93  4348.89  4355.92  4357.64
                             4364.44  4375.00  4376.44  4444.88  4445.55
                             4445.81  4454.68  4455.97  4462.84  4466.80

 Zero-point correction=                           0.200180 (Hartree/Particle)
 Thermal correction to Energy=                    0.208641
 Thermal correction to Enthalpy=                  0.209585
 Thermal correction to Gibbs Free Energy=         0.167677
 Sum of electronic and zero-point Energies=           -313.039793
 Sum of electronic and thermal Energies=              -313.031332
 Sum of electronic and thermal Enthalpies=            -313.030388
 Sum of electronic and thermal Free Energies=         -313.072297

                     E (Thermal)             CV                S
                      KCal/Mol        Cal/Mol-Kelvin    Cal/Mol-Kelvin
 Total                  130.924             33.014             88.204
 Electronic               0.000              0.000              0.000
 Translational            0.889              2.981             40.005
 Rotational               0.889              2.981             28.132
 Vibrational            129.147             27.052             20.067
 Vibration     1          0.601              1.960              3.794
 Vibration     2          0.618              1.903              2.676
 Vibration     3          0.632              1.857              2.255
 Vibration     4          0.642              1.828              2.058
 Vibration     5          0.669              1.743              1.651
 Vibration     6          0.686              1.693              1.477
 Vibration     7          0.741              1.537              1.086
 Vibration     8          0.777              1.442              0.916
 Vibration     9          0.899              1.153              0.557
 Vibration    10          0.900              1.152              0.556
 Vibration    11          0.949              1.049              0.464

 Optimization completed.
    -- Stationary point found.
 Normal termination of Gaussian 16 at Sun May 28 08:41:42 2023.
