 Gaussian 16, Revision A.03,
 Gaussian 16:  ES64L-G16RevA.03 25-Dec-2016

 -----------------------------
 # opt freq b3lyp/6-31g(2df,p)
 -----------------------------

 -------------------
 Title Card Required
 -------------------
 Symbolic Z-matrix:
 Charge =  0 Multiplicity = 1

 SCF Done:  E(RB3LYP) =  -549.036066330     A.U. after   12 cycles
 SCF Done:  E(RB3LYP) =  -549.070507107     A.U. after   11 cycles
 SCF Done:  E(RB3LYP) =  -549.095352163     A.U. after   10 cycles
 SCF Done:  E(RB3LYP) =  -549.107774611     A.U. after   10 cycles
 SCF Done:  E(RB3LYP) =  -549.118744500     A.U. after   10 cycles
 SCF Done:  E(RB3LYP) =  -549.127455042     A.U. after   10 cycles
 SCF Done:  E(RB3LYP) =  -549.132722522     A.U. after   10 cycles
 SCF Done:  E(RB3LYP) =  -549.135771916     A.U. after   10 cycles
 SCF Done:  E(RB3LYP) =  -549.137798551     A.U. after   10 cycles
 SCF Done:  E(RB3LYP) =  -549.140668455     A.U. after   10 cycles
 SCF Done:  E(RB3LYP) =  -549.152792282     A.U. after    9 cycles
 SCF Done:  E(RB3LYP) =  -549.153108646     A.U. after    9 cycles
 SCF Done:  E(RB3LYP) =  -549.153256005     A.U. after    9 cycles
 SCF Done:  E(RB3LYP) =  -549.153331522     A.U. after    8 cycles
 SCF Done:  E(RB3LYP) =  -549.153362426     A.U. after    8 cycles
 SCF Done:  E(RB3LYP) =  -549.153375833     A.U. after    8 cycles
 SCF Done:  E(RB3LYP) =  -549.153385281     A.U. after    8 cycles
 SCF Done:  E(RB3LYP) =  -549.153387040     A.U. after    7 cycles
 SCF Done:  E(RB3LYP) =  -549.153387515     A.U. after    6 cycles
 Optimization completed.
    -- Stationary point found.
 Normal termination of Gaussian 16 at Tue May 23 04:47:11 2023.

 ----------------------------------------------------------------------
 #N Geom=AllCheck Guess=TCheck SCRF=Check GenChk RB3LYP/6-31G(2df,p) Fr
 eq
 ----------------------------------------------------------------------

 Structure from the checkpoint file:  "CCC1CC2CCCCCqCCC2rC1.chk"
 -------------------
 Title Card Required
 -------------------
 Charge =  0 Multiplicity = 1

                         Standard orientation:
 ---------------------------------------------------------------------
 Center     Atomic      Atomic             Coordinates (Angstroms)
 Number     Number       Type             X           Y           Z
 ---------------------------------------------------------------------
      1          6           0        3.710050    0.458078   -0.128412
      2          6           0        2.527935   -0.247290   -0.800069
      3          6           0        1.555277   -0.990891    0.160844
      4          6           0        1.125152   -0.223813    1.447835
      5          6           0       -0.003640    0.842150    1.479530
      6          6           0        0.132049    1.888110    0.328007
      7          6           0       -1.100668    2.326995   -0.470048
      8          6           0       -1.815729    1.252197   -1.320866
      9          6           0       -0.961867    0.096151   -1.898245
     10          6           0       -0.893184   -1.280667   -1.137252
     11          6           0       -2.010745   -1.537690   -0.096707
     12          6           0       -1.760035   -1.184315    1.375357
     13          6           0       -1.423935    0.260507    1.777252
     14          6           0        0.493829   -1.798772   -0.643985
     15          1           0        4.434000    0.793040   -0.878295
     16          1           0        4.235321   -0.213017    0.561386
     17          1           0        3.398966    1.340079    0.439594
     18          1           0        2.926890   -1.010779   -1.480673
     19          1           0        2.009648    0.463472   -1.449860
     20          1           0        2.197449   -1.782751    0.576787
     21          1           0        2.034261    0.261373    1.820338
     22          1           0        0.891008   -0.975518    2.211444
     23          1           0        0.214775    1.412904    2.389354
     24          1           0        0.869051    1.537307   -0.390828
     25          1           0        0.573700    2.797161    0.754027
     26          1           0       -0.755541    3.124122   -1.141130
     27          1           0       -1.836317    2.805368    0.189036
     28          1           0       -2.282600    1.772154   -2.165427
     29          1           0       -2.653399    0.835759   -0.758652
     30          1           0        0.048079    0.455050   -2.113872
     31          1           0       -1.387203   -0.129914   -2.881789
     32          1           0       -1.126734   -2.007373   -1.924814
     33          1           0       -2.211583   -2.617174   -0.114795
     34          1           0       -2.944398   -1.075020   -0.435925
     35          1           0       -0.981529   -1.849001    1.766823
     36          1           0       -2.668316   -1.464586    1.924907
     37          1           0       -1.540040    0.288295    2.867808
     38          1           0       -2.193173    0.941213    1.399668
     39          1           0        1.029076   -2.157268   -1.532725
     40          1           0        0.271675   -2.709382   -0.071829
 ---------------------------------------------------------------------

 SCF Done:  E(RB3LYP) =  -549.153387515     A.U. after    1 cycles

 The electronic state is 1-A.
 Alpha  occ. eigenvalues --  -10.18100 -10.17870 -10.17603 -10.17282 -10.17062
 Alpha  occ. eigenvalues --  -10.17050 -10.16992 -10.16899 -10.16878 -10.16872
 Alpha  occ. eigenvalues --  -10.16835 -10.16813 -10.16801 -10.16478  -0.82405
 Alpha  occ. eigenvalues --   -0.78755  -0.78201  -0.76950  -0.72963  -0.69615
 Alpha  occ. eigenvalues --   -0.68552  -0.66857  -0.62479  -0.59973  -0.58083
 Alpha  occ. eigenvalues --   -0.55681  -0.52060  -0.49333  -0.47996  -0.46393
 Alpha  occ. eigenvalues --   -0.45698  -0.43648  -0.43531  -0.42549  -0.41944
 Alpha  occ. eigenvalues --   -0.40989  -0.40007  -0.39030  -0.37944  -0.37458
 Alpha  occ. eigenvalues --   -0.36136  -0.35839  -0.34556  -0.34107  -0.33863
 Alpha  occ. eigenvalues --   -0.33102  -0.32440  -0.31781  -0.31145  -0.29931
 Alpha  occ. eigenvalues --   -0.29440  -0.29003  -0.28459  -0.27084  -0.26834
 Alpha virt. eigenvalues --    0.06018   0.09108   0.09609   0.10046   0.10993
 Alpha virt. eigenvalues --    0.12042   0.12259   0.13464   0.13743   0.15051
 Alpha virt. eigenvalues --    0.15280   0.15383   0.16018   0.16851   0.17329

 Mulliken charges:
               1
     1  C   -0.395004
     2  C   -0.170781
     3  C    0.041350
     4  C   -0.258370
     5  C    0.037234
     6  C   -0.201222
     7  C   -0.206242
     8  C   -0.181285
     9  C   -0.233029
    10  C    0.042463
    11  C   -0.221577
    12  C   -0.177922
    13  C   -0.222987
    14  C   -0.252734
    15  H    0.108273
    16  H    0.111889
    17  H    0.120100
    18  H    0.085542
    19  H    0.108984
    20  H    0.076499
    21  H    0.093132
    22  H    0.091449
    23  H    0.071277
    24  H    0.099717
    25  H    0.085753
    26  H    0.088055
    27  H    0.091830
    28  H    0.087469
    29  H    0.097050
    30  H    0.097178
    31  H    0.092241
    32  H    0.075623
    33  H    0.086534
    34  H    0.094105
    35  H    0.093633
    36  H    0.085421
    37  H    0.088650
    38  H    0.094416
    39  H    0.086378
    40  H    0.088908
 Sum of Mulliken charges =  -0.00000

 Dipole moment (field-independent basis, Debye):
    X=              0.0822    Y=             -0.1356    Z=             -0.0425  Tot=              0.1642
 Quadrupole moment (field-independent basis, Debye-Ang):
   XX=            -91.3325   YY=            -91.0409   ZZ=            -90.6310
   XY=             -0.1707   XZ=             -0.0259   YZ=              0.0902

  Exact polarizability: 152.459   1.530 141.525  -0.017   0.223 137.595
 Approx polarizability: 207.636   0.118 206.534  -0.577  -0.697 205.581

                      1                      2                      3
                      A                      A                      A
 Frequencies --     71.4675                86.4493               151.3542
 Red. masses --      2.5227                 2.6097                 2.2815
 Frc consts  --      0.0076                 0.0115                 0.0308
 IR Inten    --      0.0301                 0.0587                 0.0448

                      4                      5                      6
                      A                      A                      A
 Frequencies --    156.0731               172.2441               199.9647
 Red. masses --      2.4685                 2.2869                 2.3079
 Frc consts  --      0.0354                 0.0400                 0.0544
 IR Inten    --      0.0677                 0.1350                 0.0161

                      7                      8                      9
                      A                      A                      A
 Frequencies --    228.1482               242.4628               249.2556
 Red. masses --      2.3634                 1.4681                 2.1375
 Frc consts  --      0.0725                 0.0509                 0.0782
 IR Inten    --      0.1656                 0.0441                 0.0818

                     10                     11                     12
                      A                      A                      A
 Frequencies --    261.3775               286.3069               321.6225
 Red. masses --      2.3730                 2.3704                 2.6691
 Frc consts  --      0.0955                 0.1145                 0.1627
 IR Inten    --      0.3026                 0.2962                 0.4085

                     13                     14                     15
                      A                      A                      A
 Frequencies --    345.8731               355.2570               381.9764
 Red. masses --      2.2259                 2.0309                 2.1018
 Frc consts  --      0.1569                 0.1510                 0.1807
 IR Inten    --      0.1899                 0.0987                 0.0900

                     16                     17                     18
                      A                      A                      A
 Frequencies --    410.8633               439.8647               448.9119
 Red. masses --      1.8652                 2.4595                 2.1413
 Frc consts  --      0.1855                 0.2804                 0.2542
 IR Inten    --      0.2169                 1.2857                 0.0822

                     19                     20                     21
                      A                      A                      A
 Frequencies --    529.4594               533.8531               613.5186
 Red. masses --      1.8115                 2.3608                 3.1794
 Frc consts  --      0.2992                 0.3964                 0.7051
 IR Inten    --      0.5228                 0.7711                 0.4041

                     22                     23                     24
                      A                      A                      A
 Frequencies --    647.0987               685.7335               706.3167
 Red. masses --      2.9604                 3.0521                 2.0622
 Frc consts  --      0.7304                 0.8456                 0.6061
 IR Inten    --      2.3400                 0.5784                 1.9700

                     25                     26                     27
                      A                      A                      A
 Frequencies --    714.9048               758.9113               782.1806
 Red. masses --      2.4300                 2.0178                 1.6859
 Frc consts  --      0.7317                 0.6847                 0.6077
 IR Inten    --      2.0178                 0.8630                 2.2904

                     28                     29                     30
                      A                      A                      A
 Frequencies --    816.2803               827.2882               834.3242
 Red. masses --      1.4842                 2.2013                 1.5955
 Frc consts  --      0.5827                 0.8877                 0.6544
 IR Inten    --      0.4721                 1.2572                 0.1829

                     31                     32                     33
                      A                      A                      A
 Frequencies --    855.7145               892.5359               924.5881
 Red. masses --      2.1668                 1.9320                 1.9975
 Frc consts  --      0.9348                 0.9068                 1.0061
 IR Inten    --      0.2795                 0.9848                 0.5996

                     34                     35                     36
                      A                      A                      A
 Frequencies --    933.2764               947.1366               962.5580
 Red. masses --      2.0720                 2.4622                 1.9077
 Frc consts  --      1.0633                 1.3014                 1.0414
 IR Inten    --      2.4965                 1.5114                 1.3937

                     37                     38                     39
                      A                      A                      A
 Frequencies --    985.9636               993.5497              1007.7929
 Red. masses --      2.1583                 2.2297                 2.1234
 Frc consts  --      1.2362                 1.2968                 1.2706
 IR Inten    --      1.8042                 3.3867                 3.6809

                     40                     41                     42
                      A                      A                      A
 Frequencies --   1050.9158              1055.8515              1071.7183
 Red. masses --      2.1714                 2.5773                 2.2908
 Frc consts  --      1.4129                 1.6929                 1.5502
 IR Inten    --      0.3360                 0.2865                 0.0866

                     43                     44                     45
                      A                      A                      A
 Frequencies --   1085.7306              1096.3476              1115.6484
 Red. masses --      1.7457                 2.0619                 2.3089
 Frc consts  --      1.2124                 1.4602                 1.6932
 IR Inten    --      0.6571                 0.5723                 0.6950

                     46                     47                     48
                      A                      A                      A
 Frequencies --   1126.7127              1145.9620              1151.7245
 Red. masses --      1.9456                 2.0061                 2.0072
 Frc consts  --      1.4552                 1.5522                 1.5687
 IR Inten    --      0.9169                 0.4794                 0.2270

                     49                     50                     51
                      A                      A                      A
 Frequencies --   1173.2708              1206.4762              1224.9624
 Red. masses --      2.5706                 1.2957                 1.2747
 Frc consts  --      2.0849                 1.1112                 1.1269
 IR Inten    --      5.8106                 0.8381                 0.9506

                     52                     53                     54
                      A                      A                      A
 Frequencies --   1241.1246              1258.2020              1276.7672
 Red. masses --      1.3125                 1.1389                 1.1717
 Frc consts  --      1.1912                 1.0623                 1.1254
 IR Inten    --      0.0639                 0.9346                 0.1216

                     55                     56                     57
                      A                      A                      A
 Frequencies --   1284.2796              1289.3159              1301.0908
 Red. masses --      1.2341                 1.2065                 1.1996
 Frc consts  --      1.1993                 1.1817                 1.1965
 IR Inten    --      0.4013                 0.0528                 0.4193

                     58                     59                     60
                      A                      A                      A
 Frequencies --   1308.0241              1323.8201              1329.1745
 Red. masses --      1.2321                 1.1129                 1.2155
 Frc consts  --      1.2420                 1.1492                 1.2652
 IR Inten    --      0.8414                 0.5168                 0.2763

                     61                     62                     63
                      A                      A                      A
 Frequencies --   1343.1844              1353.5485              1358.7547
 Red. masses --      1.1389                 1.2898                 1.1986
 Frc consts  --      1.2107                 1.3922                 1.3038
 IR Inten    --      2.1592                 0.8836                 0.1524

                     64                     65                     66
                      A                      A                      A
 Frequencies --   1372.9962              1377.9283              1383.1816
 Red. masses --      1.2517                 1.3470                 1.2924
 Frc consts  --      1.3902                 1.5068                 1.4569
 IR Inten    --      0.7832                 3.0846                 1.0903

                     67                     68                     69
                      A                      A                      A
 Frequencies --   1386.5932              1391.7648              1393.1004
 Red. masses --      1.2782                 1.3433                 1.2997
 Frc consts  --      1.4479                 1.5331                 1.4862
 IR Inten    --      0.7244                 0.2330                 4.5892

                     70                     71                     72
                      A                      A                      A
 Frequencies --   1399.2787              1404.4383              1408.1501
 Red. masses --      1.3406                 1.3305                 1.2442
 Frc consts  --      1.5465                 1.5462                 1.4536
 IR Inten    --      3.8995                 2.4526                 4.4476

                     73                     74                     75
                      A                      A                      A
 Frequencies --   1409.8619              1419.0580              1420.5921
 Red. masses --      1.3359                 1.3306                 1.3088
 Frc consts  --      1.5646                 1.5787                 1.5562
 IR Inten    --      5.5931                 5.0768                 5.1756

                     76                     77                     78
                      A                      A                      A
 Frequencies --   1423.1002              1477.2732              1483.7633
 Red. masses --      1.3402                 1.0814                 1.0831
 Frc consts  --      1.5992                 1.3904                 1.4050
 IR Inten    --      3.3785                 2.1321                 0.8861

                     79                     80                     81
                      A                      A                      A
 Frequencies --   1483.9026              1485.2010              1490.0884
 Red. masses --      1.0813                 1.0785                 1.0865
 Frc consts  --      1.4029                 1.4017                 1.4214
 IR Inten    --      1.8060                 5.7746                 3.9695

                     82                     83                     84
                      A                      A                      A
 Frequencies --   1494.1065              1496.3861              1499.0342
 Red. masses --      1.0641                 1.0628                 1.0685
 Frc consts  --      1.3995                 1.4022                 1.4146
 IR Inten    --      2.0856                 2.0144                12.3412

                     85                     86                     87
                      A                      A                      A
 Frequencies --   1501.8893              1511.4121              1516.6757
 Red. masses --      1.0776                 1.0729                 1.0805
 Frc consts  --      1.4321                 1.4440                 1.4644
 IR Inten    --      5.3827                 5.2454                 9.4956

                     88                     89                     90
                      A                      A                      A
 Frequencies --   1517.2930              2963.9534              2987.5439
 Red. masses --      1.0785                 1.0815                 1.0793
 Frc consts  --      1.4629                 5.5980                 5.6759
 IR Inten    --      0.2242                16.3405                 2.1048

                     91                     92                     93
                      A                      A                      A
 Frequencies --   2993.5340              3006.5494              3009.4461
 Red. masses --      1.0807                 1.0654                 1.0650
 Frc consts  --      5.7058                 5.6741                 5.6828
 IR Inten    --      1.1196                13.6103                 9.3784

                     94                     95                     96
                      A                      A                      A
 Frequencies --   3011.9539              3019.3039              3021.8065
 Red. masses --      1.0694                 1.0718                 1.0703
 Frc consts  --      5.7157                 5.7567                 5.7585
 IR Inten    --      5.3660                 9.2493                47.1866

                     97                     98                     99
                      A                      A                      A
 Frequencies --   3027.0527              3028.1585              3029.5521
 Red. masses --      1.0537                 1.0739                 1.0504
 Frc consts  --      5.6889                 5.8021                 5.6800
 IR Inten    --      5.6006                40.8334                25.0536

                    100                    101                    102
                      A                      A                      A
 Frequencies --   3033.0200              3036.5838              3040.0805
 Red. masses --      1.0767                 1.0950                 1.0955
 Frc consts  --      5.8359                 5.9490                 5.9654
 IR Inten    --    118.3288                53.2874                19.6845

                    103                    104                    105
                      A                      A                      A
 Frequencies --   3041.6158              3044.0866              3052.8472
 Red. masses --      1.0876                 1.0822                 1.0716
 Frc consts  --      5.9282                 5.9082                 5.8841
 IR Inten    --     69.8397                47.5934                56.2622

                    106                    107                    108
                      A                      A                      A
 Frequencies --   3057.3448              3062.7292              3070.7060
 Red. masses --      1.0933                 1.0951                 1.0912
 Frc consts  --      6.0212                 6.0521                 6.0622
 IR Inten    --     49.7657                24.0484                38.1689

                    109                    110                    111
                      A                      A                      A
 Frequencies --   3078.4520              3086.9218              3096.1726
 Red. masses --      1.0916                 1.0928                 1.0976
 Frc consts  --      6.0953                 6.1354                 6.1991
 IR Inten    --     63.4447                 5.1285                40.6128

                    112                    113                    114
                      A                      A                      A
 Frequencies --   3103.9384              3105.6165              3157.9871
 Red. masses --      1.0997                 1.0882                 1.0820
 Frc consts  --      6.2425                 6.1839                 6.3577
 IR Inten    --     62.2670                36.4017                17.2705

 - Thermochemistry -
 -------------------
 Temperature   298.150 Kelvin.  Pressure   1.00000 Atm.
 Atom     1 has atomic number  6 and mass  12.00000

 Molecular mass:   194.20345 amu.
 Principal axes and moments of inertia in atomic units:
                           1         2         3
     Eigenvalues --  2145.764413105.206683304.00975
           X            0.99997   0.00750  -0.00199
           Y           -0.00754   0.99977  -0.02024
           Z            0.00184   0.02025   0.99979
 This molecule is an asymmetric top.
 Rotational symmetry number  1.
 Warning -- assumption of classical behavior for rotation
           may cause significant error
 Rotational temperatures (Kelvin)      0.04037     0.02789     0.02621
 Rotational constants (GHZ):           0.84107     0.58120     0.54623
 Zero-point vibrational energy     994390.4 (Joules/Mol)
                                  237.66501 (Kcal/Mol)
 Warning -- explicit consideration of  21 degrees of freedom as
           vibrations may cause significant error
 Vibrational temperatures:    102.83   124.38   217.76   224.55   247.82
          (Kelvin)            287.70   328.25   348.85   358.62   376.06
                              411.93   462.74   497.63   511.14   549.58
                              591.14   632.87   645.88   761.77   768.10
                              882.72   931.03   986.62  1016.23  1028.59
                             1091.90  1125.38  1174.45  1190.28  1200.41
                             1231.18  1284.16  1330.28  1342.78  1362.72
                             1384.91  1418.58  1429.50  1449.99  1512.03
                             1519.13  1541.96  1562.12  1577.40  1605.17
                             1621.09  1648.78  1657.07  1688.08  1735.85
                             1762.45  1785.70  1810.27  1836.98  1847.79
                             1855.04  1871.98  1881.95  1904.68  1912.39
                             1932.54  1947.45  1954.95  1975.44  1982.53
                             1990.09  1995.00  2002.44  2004.36  2013.25
                             2020.67  2026.01  2028.48  2041.71  2043.92
                             2047.52  2125.47  2134.80  2135.00  2136.87
                             2143.90  2149.69  2152.97  2156.78  2160.88
                             2174.58  2182.16  2183.05  4264.47  4298.41
                             4307.03  4325.75  4329.92  4333.53  4344.10
                             4347.71  4355.25  4356.84  4358.85  4363.84
                             4368.97  4374.00  4376.21  4379.76  4392.37
                             4398.84  4406.58  4418.06  4429.21  4441.39
                             4454.70  4465.88  4468.29  4543.64

 Zero-point correction=                           0.378743 (Hartree/Particle)
 Thermal correction to Energy=                    0.392656
 Thermal correction to Enthalpy=                  0.393600
 Thermal correction to Gibbs Free Energy=         0.339933
 Sum of electronic and zero-point Energies=           -548.774644
 Sum of electronic and thermal Energies=              -548.760732
 Sum of electronic and thermal Enthalpies=            -548.759788
 Sum of electronic and thermal Free Energies=         -548.813455

                     E (Thermal)             CV                S
                      KCal/Mol        Cal/Mol-Kelvin    Cal/Mol-Kelvin
 Total                  246.395             57.862            112.952
 Electronic               0.000              0.000              0.000
 Translational            0.889              2.981             41.696
 Rotational               0.889              2.981             31.466
 Vibrational            244.618             51.900             39.790
 Vibration     1          0.598              1.968              4.113
 Vibration     2          0.601              1.959              3.739
 Vibration     3          0.619              1.901              2.655
 Vibration     4          0.620              1.896              2.597
 Vibration     5          0.626              1.877              2.411
 Vibration     6          0.638              1.840              2.133
 Vibration     7          0.651              1.798              1.893
 Vibration     8          0.659              1.775              1.785
 Vibration     9          0.662              1.764              1.736
 Vibration    10          0.669              1.743              1.653
 Vibration    11          0.684              1.699              1.496
 Vibration    12          0.707              1.632              1.302
 Vibration    13          0.724              1.584              1.185
 Vibration    14          0.731              1.564              1.143
 Vibration    15          0.751              1.509              1.031
 Vibration    16          0.775              1.447              0.924
 Vibration    17          0.800              1.383              0.827
 Vibration    18          0.808              1.363              0.799
 Vibration    19          0.884              1.185              0.588
 Vibration    20          0.889              1.175              0.579
 Vibration    21          0.973              1.003              0.427

                           ! Non-Optimized Parameters !
 Normal termination of Gaussian 16 at Tue May 23 09:07:30 2023.
