 Gaussian 16, Revision A.03,
 Gaussian 16:  ES64L-G16RevA.03 25-Dec-2016

 -----------------------------
 # opt freq b3lyp/6-31g(2df,p)
 -----------------------------

 -------------------
 Title Card Required
 -------------------
 Symbolic Z-matrix:
 Charge =  0 Multiplicity = 1

 SCF Done:  E(RB3LYP) =  -605.715354491     A.U. after   12 cycles
 SCF Done:  E(RB3LYP) =  -605.725710294     A.U. after   10 cycles
 SCF Done:  E(RB3LYP) =  -605.731011718     A.U. after   10 cycles
 SCF Done:  E(RB3LYP) =  -605.735377945     A.U. after   10 cycles
 SCF Done:  E(RB3LYP) =  -605.737893788     A.U. after   10 cycles
 SCF Done:  E(RB3LYP) =  -605.739777488     A.U. after   10 cycles
 SCF Done:  E(RB3LYP) =  -605.739091267     A.U. after   10 cycles
 SCF Done:  E(RB3LYP) =  -605.741193917     A.U. after   10 cycles
 SCF Done:  E(RB3LYP) =  -605.741741271     A.U. after   10 cycles
 SCF Done:  E(RB3LYP) =  -605.742198827     A.U. after   10 cycles
 SCF Done:  E(RB3LYP) =  -605.742295380     A.U. after    9 cycles
 SCF Done:  E(RB3LYP) =  -605.742301153     A.U. after   10 cycles
 SCF Done:  E(RB3LYP) =  -605.742401481     A.U. after    8 cycles
 SCF Done:  E(RB3LYP) =  -605.742439962     A.U. after    8 cycles
 SCF Done:  E(RB3LYP) =  -605.742469517     A.U. after    8 cycles
 SCF Done:  E(RB3LYP) =  -605.742491453     A.U. after    8 cycles
 SCF Done:  E(RB3LYP) =  -605.742498654     A.U. after    8 cycles
 SCF Done:  E(RB3LYP) =  -605.742499017     A.U. after    6 cycles
 SCF Done:  E(RB3LYP) =  -605.742499105     A.U. after    5 cycles
 Optimization completed.
    -- Stationary point found.
 Normal termination of Gaussian 16 at Sun May 28 07:29:05 2023.

 ----------------------------------------------------------------------
 #N Geom=AllCheck Guess=TCheck SCRF=Check GenChk RB3LYP/6-31G(2df,p) Fr
 eq
 ----------------------------------------------------------------------

 Structure from the checkpoint file:  "CCC1CNCCCCCqCrCCC1C.chk"
 -------------------
 Title Card Required
 -------------------
 Charge =  0 Multiplicity = 1

                         Standard orientation:
 ---------------------------------------------------------------------
 Center     Atomic      Atomic             Coordinates (Angstroms)
 Number     Number       Type             X           Y           Z
 ---------------------------------------------------------------------
      1          6           0        4.196977   -0.697061    0.043386
      2          6           0        2.986696   -0.830404    0.982139
      3          6           0        1.690483   -0.062443    0.615135
      4          6           0        1.961261    1.400284    0.184884
      5          7           0        0.809596    2.274243    0.434684
      6          6           0       -0.116549    2.591484   -0.653233
      7          6           0       -1.576010    2.609213   -0.159400
      8          6           0       -2.062145    1.261414    0.403622
      9          6           0       -2.557160    0.271826   -0.669153
     10          6           0       -2.740296   -1.208934   -0.232349
     11          6           0       -3.355430   -1.336660    1.170398
     12          6           0       -1.503916   -2.131523   -0.412450
     13          6           0       -0.199640   -1.803793    0.348856
     14          6           0        0.721981   -0.786583   -0.365734
     15          6           0        1.409775   -1.421407   -1.584757
     16          1           0        5.050500   -1.247310    0.453457
     17          1           0        4.509702    0.346078   -0.067282
     18          1           0        4.004383   -1.090194   -0.956760
     19          1           0        3.301987   -0.481636    1.974256
     20          1           0        2.745710   -1.893132    1.111523
     21          1           0        1.135146    0.041957    1.554818
     22          1           0        2.290215    1.443219   -0.866290
     23          1           0        2.798843    1.782836    0.780153
     24          1           0        1.107553    3.123225    0.892719
     25          1           0        0.002566    1.849033   -1.448596
     26          1           0        0.112558    3.563116   -1.121202
     27          1           0       -2.228573    2.942175   -0.978194
     28          1           0       -1.652590    3.374658    0.623250
     29          1           0       -2.879990    1.443920    1.109402
     30          1           0       -1.245976    0.839189    0.996676
     31          1           0       -1.898561    0.299447   -1.546632
     32          1           0       -3.527154    0.640241   -1.029501
     33          1           0       -3.480683   -1.627135   -0.928634
     34          1           0       -2.678286   -0.985937    1.955181
     35          1           0       -3.602116   -2.380963    1.389736
     36          1           0       -4.279124   -0.753284    1.251823
     37          1           0       -1.284195   -2.195802   -1.485522
     38          1           0       -1.827583   -3.139959   -0.124046
     39          1           0        0.355624   -2.737474    0.511058
     40          1           0       -0.446475   -1.431577    1.349846
     41          1           0        0.063915   -0.010423   -0.755235
     42          1           0        2.056435   -2.256057   -1.294523
     43          1           0        2.020401   -0.695465   -2.130976
     44          1           0        0.672428   -1.814924   -2.291345
 ---------------------------------------------------------------------

 SCF Done:  E(RB3LYP) =  -605.742499105     A.U. after    1 cycles

 The electronic state is 1-A.
 Alpha  occ. eigenvalues --  -14.30251 -10.19804 -10.19694 -10.17768 -10.17252
 Alpha  occ. eigenvalues --  -10.17186 -10.16931 -10.16878 -10.16842 -10.16826
 Alpha  occ. eigenvalues --  -10.16678 -10.16622 -10.16493 -10.16322 -10.16308
 Alpha  occ. eigenvalues --   -0.89056  -0.81303  -0.79980  -0.76069  -0.75225
 Alpha  occ. eigenvalues --   -0.71591  -0.69248  -0.67910  -0.64212  -0.63977
 Alpha  occ. eigenvalues --   -0.61211  -0.57736  -0.56708  -0.52667  -0.52448
 Alpha  occ. eigenvalues --   -0.48378  -0.47415  -0.45886  -0.45502  -0.44305
 Alpha  occ. eigenvalues --   -0.43724  -0.41913  -0.41295  -0.40935  -0.39520
 Alpha  occ. eigenvalues --   -0.39196  -0.38569  -0.37985  -0.37478  -0.37097
 Alpha  occ. eigenvalues --   -0.36110  -0.35221  -0.35120  -0.34077  -0.33820
 Alpha  occ. eigenvalues --   -0.33351  -0.32648  -0.31532  -0.30846  -0.30187
 Alpha  occ. eigenvalues --   -0.29806  -0.29309  -0.28544  -0.27781  -0.20654
 Alpha virt. eigenvalues --    0.07419   0.08530   0.08977   0.09162   0.11491
 Alpha virt. eigenvalues --    0.11896   0.12549   0.12978   0.13557   0.14182
 Alpha virt. eigenvalues --    0.14497   0.15274   0.15855   0.16074   0.16656

 Mulliken charges:
               1
     1  C   -0.375821
     2  C   -0.214268
     3  C    0.058481
     4  C   -0.214336
     5  N   -0.277158
     6  C   -0.152647
     7  C   -0.193123
     8  C   -0.171611
     9  C   -0.193912
    10  C    0.033512
    11  C   -0.389610
    12  C   -0.217451
    13  C   -0.209199
    14  C    0.050930
    15  C   -0.410041
    16  H    0.106845
    17  H    0.113137
    18  H    0.118125
    19  H    0.090459
    20  H    0.094933
    21  H    0.072572
    22  H    0.087885
    23  H    0.087605
    24  H    0.215028
    25  H    0.110123
    26  H    0.075768
    27  H    0.082265
    28  H    0.084022
    29  H    0.086379
    30  H    0.119220
    31  H    0.089452
    32  H    0.084096
    33  H    0.067936
    34  H    0.119803
    35  H    0.103823
    36  H    0.107539
    37  H    0.088239
    38  H    0.085321
    39  H    0.085571
    40  H    0.091573
    41  H    0.072678
    42  H    0.115234
    43  H    0.110619
    44  H    0.110004
 Sum of Mulliken charges =   0.00000

 Dipole moment (field-independent basis, Debye):
    X=              0.4189    Y=              0.7355    Z=             -0.1796  Tot=              0.8653
 Quadrupole moment (field-independent basis, Debye-Ang):
   XX=            -98.7435   YY=            -95.2902   ZZ=            -99.0847
   XY=              1.7691   XZ=              1.3597   YZ=              0.4721

  Exact polarizability: 178.357  -0.960 160.280   0.228  -0.322 133.317
 Approx polarizability: 224.507  -1.526 221.513   1.718   0.742 215.861

                      1                      2                      3
                      A                      A                      A
 Frequencies --     47.9083                59.8735                84.1366
 Red. masses --      3.0694                 2.7819                 3.0115
 Frc consts  --      0.0042                 0.0059                 0.0126
 IR Inten    --      0.3055                 0.0448                 0.1723

                      4                      5                      6
                      A                      A                      A
 Frequencies --    112.5499               142.4417               156.8874
 Red. masses --      1.8263                 2.9259                 2.9199
 Frc consts  --      0.0136                 0.0350                 0.0423
 IR Inten    --      0.2038                 0.0019                 0.2745

                      7                      8                      9
                      A                      A                      A
 Frequencies --    172.9358               191.7825               210.3563
 Red. masses --      2.1526                 2.1581                 2.4510
 Frc consts  --      0.0379                 0.0468                 0.0639
 IR Inten    --      0.2638                 0.1256                 0.3477

                     10                     11                     12
                      A                      A                      A
 Frequencies --    220.3587               236.9221               243.6941
 Red. masses --      2.3228                 1.8201                 1.5176
 Frc consts  --      0.0665                 0.0602                 0.0531
 IR Inten    --      1.4481                 0.2068                 0.7538

                     13                     14                     15
                      A                      A                      A
 Frequencies --    258.6478               267.8883               291.3845
 Red. masses --      1.4716                 2.2321                 1.4737
 Frc consts  --      0.0580                 0.0944                 0.0737
 IR Inten    --      0.7039                 0.1397                 0.1402

                     16                     17                     18
                      A                      A                      A
 Frequencies --    295.9834               306.9400               321.2616
 Red. masses --      2.2486                 1.5024                 2.1387
 Frc consts  --      0.1161                 0.0834                 0.1301
 IR Inten    --      0.2457                 0.7518                 2.8043

                     19                     20                     21
                      A                      A                      A
 Frequencies --    353.9632               371.8369               393.5828
 Red. masses --      2.2284                 2.0835                 2.2164
 Frc consts  --      0.1645                 0.1697                 0.2023
 IR Inten    --      0.3663                 0.7002                 4.9313

                     22                     23                     24
                      A                      A                      A
 Frequencies --    411.8104               447.8225               474.2073
 Red. masses --      1.8457                 2.3122                 2.5814
 Frc consts  --      0.1844                 0.2732                 0.3420
 IR Inten    --      0.3833                 2.0003                 3.4442

                     25                     26                     27
                      A                      A                      A
 Frequencies --    505.5277               603.4576               612.6675
 Red. masses --      2.3659                 1.6669                 2.2869
 Frc consts  --      0.3562                 0.3576                 0.5058
 IR Inten    --      1.0162                27.8691                 2.1031

                     28                     29                     30
                      A                      A                      A
 Frequencies --    642.3491               719.6184               750.2502
 Red. masses --      1.9695                 2.2094                 2.0382
 Frc consts  --      0.4788                 0.6741                 0.6759
 IR Inten    --      9.7877                 0.8199                 2.8063

                     31                     32                     33
                      A                      A                      A
 Frequencies --    760.2827               782.5880               819.8970
 Red. masses --      1.4624                 1.4144                 1.8028
 Frc consts  --      0.4980                 0.5104                 0.7140
 IR Inten    --      2.8455                 2.2188                 3.6964

                     34                     35                     36
                      A                      A                      A
 Frequencies --    846.0604               853.3065               865.8074
 Red. masses --      2.3461                 2.5273                 1.8989
 Frc consts  --      0.9894                 1.0842                 0.8387
 IR Inten    --      2.4456                 1.3109                 0.3859

                     37                     38                     39
                      A                      A                      A
 Frequencies --    892.0556               917.4594               931.1957
 Red. masses --      1.8167                 1.9908                 1.9795
 Frc consts  --      0.8518                 0.9873                 1.0113
 IR Inten    --      0.0850                 2.2327                 3.0369

                     40                     41                     42
                      A                      A                      A
 Frequencies --    942.7175               964.6994               978.9652
 Red. masses --      1.7903                 1.6540                 1.7944
 Frc consts  --      0.9374                 0.9069                 1.0132
 IR Inten    --      3.5682                 5.5268                 1.0897

                     43                     44                     45
                      A                      A                      A
 Frequencies --    982.1937              1006.3226              1021.5611
 Red. masses --      1.7061                 1.8176                 1.9139
 Frc consts  --      0.9697                 1.0845                 1.1768
 IR Inten    --      2.5751                 1.0152                 3.2665

                     46                     47                     48
                      A                      A                      A
 Frequencies --   1036.1914              1045.7864              1060.4796
 Red. masses --      2.2660                 1.8817                 1.6039
 Frc consts  --      1.4335                 1.2125                 1.0628
 IR Inten    --      3.4339                 0.3961                 1.5495

                     49                     50                     51
                      A                      A                      A
 Frequencies --   1082.7336              1090.0941              1105.7223
 Red. masses --      2.2136                 1.8407                 1.9618
 Frc consts  --      1.5290                 1.2887                 1.4132
 IR Inten    --      1.1543                 1.4773                13.1082

                     52                     53                     54
                      A                      A                      A
 Frequencies --   1126.9262              1139.1686              1155.5105
 Red. masses --      1.9846                 2.1994                 1.8958
 Frc consts  --      1.4849                 1.6816                 1.4914
 IR Inten    --     14.8407                 1.0140                 6.1823

                     55                     56                     57
                      A                      A                      A
 Frequencies --   1158.6254              1169.2108              1174.6978
 Red. masses --      1.8455                 1.8570                 2.3832
 Frc consts  --      1.4597                 1.4957                 1.9376
 IR Inten    --      8.3489                12.9930                22.7966

                     58                     59                     60
                      A                      A                      A
 Frequencies --   1202.0276              1235.3730              1249.9217
 Red. masses --      1.4707                 1.2650                 1.3644
 Frc consts  --      1.2520                 1.1375                 1.2559
 IR Inten    --      1.0801                 0.7156                 1.5834

                     61                     62                     63
                      A                      A                      A
 Frequencies --   1262.6249              1279.6004              1285.7892
 Red. masses --      1.2274                 1.2916                 1.2356
 Frc consts  --      1.1529                 1.2460                 1.2035
 IR Inten    --      0.3097                 4.2126                 1.0480

                     64                     65                     66
                      A                      A                      A
 Frequencies --   1304.6468              1308.7534              1323.0107
 Red. masses --      1.2014                 1.2297                 1.2949
 Frc consts  --      1.2048                 1.2410                 1.3354
 IR Inten    --      3.3282                 6.7332                 3.6886

                     67                     68                     69
                      A                      A                      A
 Frequencies --   1329.7757              1343.5273              1358.5745
 Red. masses --      1.1798                 1.2520                 1.3612
 Frc consts  --      1.2292                 1.3315                 1.4803
 IR Inten    --      0.6323                 6.0271                 1.8299

                     70                     71                     72
                      A                      A                      A
 Frequencies --   1365.1373              1370.3376              1375.8850
 Red. masses --      1.3272                 1.3657                 1.3610
 Frc consts  --      1.4573                 1.5110                 1.5180
 IR Inten    --      0.7646                 1.1661                16.0423

                     73                     74                     75
                      A                      A                      A
 Frequencies --   1379.5232              1383.3246              1391.4215
 Red. masses --      1.3543                 1.3501                 1.3411
 Frc consts  --      1.5186                 1.5222                 1.5297
 IR Inten    --      0.8659                 3.8815                 8.7926

                     76                     77                     78
                      A                      A                      A
 Frequencies --   1395.1717              1398.2855              1400.8727
 Red. masses --      1.2832                 1.3338                 1.2687
 Frc consts  --      1.4716                 1.5365                 1.4670
 IR Inten    --      1.0434                 0.5136                 4.7087

                     79                     80                     81
                      A                      A                      A
 Frequencies --   1406.2822              1413.1726              1416.5507
 Red. masses --      1.3344                 1.2744                 1.2617
 Frc consts  --      1.5548                 1.4995                 1.4917
 IR Inten    --      2.9763                 1.0065                17.1849

                     82                     83                     84
                      A                      A                      A
 Frequencies --   1420.6592              1474.6059              1478.6799
 Red. masses --      1.3005                 1.1137                 1.0781
 Frc consts  --      1.5465                 1.4268                 1.3888
 IR Inten    --      4.6042                 3.7033                 1.2733

                     85                     86                     87
                      A                      A                      A
 Frequencies --   1481.1023              1485.8449              1488.5283
 Red. masses --      1.0796                 1.0791                 1.0828
 Frc consts  --      1.3954                 1.4037                 1.4136
 IR Inten    --      2.0510                 1.3001                 3.9883

                     88                     89                     90
                      A                      A                      A
 Frequencies --   1490.9256              1495.7463              1498.5338
 Red. masses --      1.0768                 1.0922                 1.0910
 Frc consts  --      1.4103                 1.4396                 1.4434
 IR Inten    --      2.0899                 1.7864                 0.3945

                     91                     92                     93
                      A                      A                      A
 Frequencies --   1501.9557              1503.6506              1504.8783
 Red. masses --      1.0694                 1.0674                 1.0602
 Frc consts  --      1.4213                 1.4219                 1.4147
 IR Inten    --      4.6410                 9.3148                 4.6412

                     94                     95                     96
                      A                      A                      A
 Frequencies --   1506.6072              1510.1077              1512.9562
 Red. masses --      1.1092                 1.0688                 1.0522
 Frc consts  --      1.4834                 1.4360                 1.4191
 IR Inten    --      4.5183                 1.7682                 8.8934

                     97                     98                     99
                      A                      A                      A
 Frequencies --   1513.0634              2958.8207              2965.6023
 Red. masses --      1.0541                 1.0728                 1.0686
 Frc consts  --      1.4219                 5.5336                 5.5374
 IR Inten    --      3.3582                60.3195                60.4578

                    100                    101                    102
                      A                      A                      A
 Frequencies --   2987.7591              3006.5222              3009.1959
 Red. masses --      1.0788                 1.0643                 1.0670
 Frc consts  --      5.6740                 5.6683                 5.6927
 IR Inten    --      9.1178                 6.6551                18.3859

                    103                    104                    105
                      A                      A                      A
 Frequencies --   3010.3771              3013.4362              3020.9965
 Red. masses --      1.0633                 1.0630                 1.0599
 Frc consts  --      5.6775                 5.6873                 5.6990
 IR Inten    --     23.1265                93.4268                30.9023

                    106                    107                    108
                      A                      A                      A
 Frequencies --   3027.7800              3030.0275              3033.6320
 Red. masses --      1.0747                 1.0463                 1.0435
 Frc consts  --      5.8050                 5.6596                 5.6578
 IR Inten    --     34.9389                23.7878                19.4089

                    109                    110                    111
                      A                      A                      A
 Frequencies --   3034.5558              3041.1973              3041.7878
 Red. masses --      1.0748                 1.0558                 1.0924
 Frc consts  --      5.8315                 5.7531                 5.9554
 IR Inten    --      2.3951                36.6121                28.8717

                    112                    113                    114
                      A                      A                      A
 Frequencies --   3043.4769              3046.0155              3047.7756
 Red. masses --      1.0882                 1.0984                 1.0906
 Frc consts  --      5.9386                 6.0047                 5.9689
 IR Inten    --      2.6374                22.6487                62.7440

                    115                    116                    117
                      A                      A                      A
 Frequencies --   3052.1410              3057.8814              3073.9033
 Red. masses --      1.0831                 1.0943                 1.0898
 Frc consts  --      5.9447                 6.0286                 6.0669
 IR Inten    --     38.8008                81.6683                63.4391

                    118                    119                    120
                      A                      A                      A
 Frequencies --   3090.7801              3093.8082              3095.6056
 Red. masses --      1.0984                 1.0984                 1.0983
 Frc consts  --      6.1821                 6.1943                 6.2010
 IR Inten    --      4.4422                40.0379                44.5358

                    121                    122                    123
                      A                      A                      A
 Frequencies --   3097.0760              3098.2693              3103.5784
 Red. masses --      1.0999                 1.0994                 1.0993
 Frc consts  --      6.2158                 6.2180                 6.2388
 IR Inten    --      8.4663                56.0455                47.7809

                    124                    125                    126
                      A                      A                      A
 Frequencies --   3127.8055              3131.1078              3577.9770
 Red. masses --      1.0840                 1.0967                 1.0752
 Frc consts  --      6.2480                 6.3349                 8.1100
 IR Inten    --     31.5646                22.4471                 1.8641

 - Thermochemistry -
 -------------------
 Temperature   298.150 Kelvin.  Pressure   1.00000 Atm.
 Atom     1 has atomic number  6 and mass  12.00000

 Molecular mass:   211.23000 amu.
 Principal axes and moments of inertia in atomic units:
                           1         2         3
     Eigenvalues --  2470.355714201.440125740.96132
           X            0.99997  -0.00579  -0.00583
           Y            0.00577   0.99998  -0.00343
           Z            0.00585   0.00340   0.99998
 This molecule is an asymmetric top.
 Rotational symmetry number  1.
 Warning -- assumption of classical behavior for rotation
           may cause significant error
 Rotational temperatures (Kelvin)      0.03506     0.02062     0.01509
 Rotational constants (GHZ):           0.73056     0.42955     0.31436
 Zero-point vibrational energy    1087319.5 (Joules/Mol)
                                  259.87561 (Kcal/Mol)
 Warning -- explicit consideration of  27 degrees of freedom as
           vibrations may cause significant error
 Vibrational temperatures:     68.93    86.14   121.05   161.93   204.94
          (Kelvin)            225.73   248.82   275.93   302.66   317.05
                              340.88   350.62   372.14   385.43   419.24
                              425.85   441.62   462.22   509.27   534.99
                              566.28   592.50   644.32   682.28   727.34
                              868.24   881.49   924.20  1035.37  1079.44
                             1093.88  1125.97  1179.65  1217.29  1227.72
                             1245.70  1283.47  1320.02  1339.78  1356.36
                             1387.99  1408.51  1413.16  1447.87  1469.80
                             1490.85  1504.65  1525.79  1557.81  1568.40
                             1590.89  1621.40  1639.01  1662.52  1667.00
                             1682.23  1690.13  1729.45  1777.43  1798.36
                             1816.64  1841.06  1849.96  1877.10  1883.00
                             1903.52  1913.25  1933.04  1954.69  1964.13
                             1971.61  1979.59  1984.83  1990.30  2001.95
                             2007.34  2011.82  2015.54  2023.33  2033.24
                             2038.10  2044.01  2121.63  2127.49  2130.98
                             2137.80  2141.66  2145.11  2152.05  2156.06
                             2160.98  2163.42  2165.18  2167.67  2172.71
                             2176.81  2176.96  4257.08  4266.84  4298.72
                             4325.71  4329.56  4331.26  4335.66  4346.54
                             4356.30  4359.53  4364.72  4366.05  4375.60
                             4376.45  4378.88  4382.54  4385.07  4391.35
                             4399.61  4422.66  4446.94  4451.30  4453.89
                             4456.00  4457.72  4465.36  4500.21  4504.97
                             5147.91

 Zero-point correction=                           0.414138 (Hartree/Particle)
 Thermal correction to Energy=                    0.431363
 Thermal correction to Enthalpy=                  0.432307
 Thermal correction to Gibbs Free Energy=         0.371033
 Sum of electronic and zero-point Energies=           -605.328361
 Sum of electronic and thermal Energies=              -605.311136
 Sum of electronic and thermal Enthalpies=            -605.310192
 Sum of electronic and thermal Free Energies=         -605.371466

                     E (Thermal)             CV                S
                      KCal/Mol        Cal/Mol-Kelvin    Cal/Mol-Kelvin
 Total                  270.684             68.331            128.962
 Electronic               0.000              0.000              0.000
 Translational            0.889              2.981             41.947
 Rotational               0.889              2.981             32.455
 Vibrational            268.907             62.369             54.560
 Vibration     1          0.595              1.978              4.902
 Vibration     2          0.597              1.973              4.461
 Vibration     3          0.601              1.960              3.792
 Vibration     4          0.607              1.939              3.224
 Vibration     5          0.616              1.911              2.771
 Vibration     6          0.621              1.895              2.587
 Vibration     7          0.626              1.876              2.403
 Vibration     8          0.634              1.851              2.211
 Vibration     9          0.643              1.825              2.041
 Vibration    10          0.647              1.810              1.956
 Vibration    11          0.656              1.784              1.826
 Vibration    12          0.659              1.773              1.776
 Vibration    13          0.667              1.748              1.671
 Vibration    14          0.673              1.732              1.610
 Vibration    15          0.687              1.690              1.466
 Vibration    16          0.690              1.681              1.440
 Vibration    17          0.697              1.661              1.379
 Vibration    18          0.707              1.633              1.304
 Vibration    19          0.730              1.567              1.148
 Vibration    20          0.744              1.530              1.072
 Vibration    21          0.761              1.484              0.987
 Vibration    22          0.776              1.445              0.920
 Vibration    23          0.807              1.366              0.802
 Vibration    24          0.831              1.307              0.726
 Vibration    25          0.861              1.238              0.644
 Vibration    26          0.962              1.024              0.444
 Vibration    27          0.972              1.005              0.428

                           ! Non-Optimized Parameters !
 Normal termination of Gaussian 16 at Sun May 28 12:16:54 2023.
