 Gaussian 16, Revision A.03,
 Gaussian 16:  ES64L-G16RevA.03 25-Dec-2016

 -----------------------------
 # opt freq b3lyp/6-31g(2df,p)
 -----------------------------

 -------------------
 Title Card Required
 -------------------
 Symbolic Z-matrix:
 Charge =  0 Multiplicity = 1

 SCF Done:  E(RB3LYP) =  -718.972367123     A.U. after   12 cycles
 SCF Done:  E(RB3LYP) =  -719.003057076     A.U. after   11 cycles
 SCF Done:  E(RB3LYP) =  -719.015678539     A.U. after   11 cycles
 SCF Done:  E(RB3LYP) =  -719.024316438     A.U. after   11 cycles
 SCF Done:  E(RB3LYP) =  -719.027515680     A.U. after   10 cycles
 SCF Done:  E(RB3LYP) =  -719.030452295     A.U. after   11 cycles
 SCF Done:  E(RB3LYP) =  -719.031958366     A.U. after   11 cycles
 SCF Done:  E(RB3LYP) =  -719.034599670     A.U. after   10 cycles
 SCF Done:  E(RB3LYP) =  -719.035067783     A.U. after   10 cycles
 SCF Done:  E(RB3LYP) =  -719.035733625     A.U. after   11 cycles
 SCF Done:  E(RB3LYP) =  -719.038329738     A.U. after    8 cycles
 SCF Done:  E(RB3LYP) =  -719.038336603     A.U. after    9 cycles
 SCF Done:  E(RB3LYP) =  -719.038344964     A.U. after    9 cycles
 SCF Done:  E(RB3LYP) =  -719.038344282     A.U. after    8 cycles
 SCF Done:  E(RB3LYP) =  -719.038347210     A.U. after    8 cycles
 SCF Done:  E(RB3LYP) =  -719.038345254     A.U. after    8 cycles
 SCF Done:  E(RB3LYP) =  -719.038347648     A.U. after    8 cycles
 SCF Done:  E(RB3LYP) =  -719.038347617     A.U. after    6 cycles
 SCF Done:  E(RB3LYP) =  -719.038347694     A.U. after    6 cycles
 Optimization completed.
    -- Stationary point found.
 Normal termination of Gaussian 16 at Sun May 28 09:20:03 2023.

 ----------------------------------------------------------------------
 #N Geom=AllCheck Guess=TCheck SCRF=Check GenChk RB3LYP/6-31G(2df,p) Fr
 eq
 ----------------------------------------------------------------------

 Structure from the checkpoint file:  "CCC1CC2NC2OCqCrqCqCCrCCrC1C.chk"
 -------------------
 Title Card Required
 -------------------
 Charge =  0 Multiplicity = 1

                         Standard orientation:
 ---------------------------------------------------------------------
 Center     Atomic      Atomic             Coordinates (Angstroms)
 Number     Number       Type             X           Y           Z
 ---------------------------------------------------------------------
      1          6           0        2.963420    2.908881   -0.414734
      2          6           0        3.001908    1.633265    0.432994
      3          6           0        2.182714    0.422421   -0.077886
      4          6           0        2.603871   -0.794043    0.765178
      5          6           0        2.035873   -2.138527    0.367656
      6          7           0        1.821549   -2.394634   -1.070222
      7          6           0        0.673383   -2.392775   -0.167197
      8          8           0       -0.322464   -1.464972   -0.397716
      9          6           0       -0.412191   -0.223839    0.337139
     10          6           0       -0.310613   -0.444179    1.861640
     11          6           0       -1.872443    0.241376   -0.008240
     12          6           0       -2.928059   -0.843265    0.353557
     13          6           0       -3.867949   -1.189687   -0.807690
     14          6           0       -2.231351    1.611933    0.602520
     15          6           0       -3.572451    2.181069    0.122951
     16          6           0        0.656072    0.791050   -0.199678
     17          6           0        0.382810    1.154157   -1.674728
     18          1           0        3.610166    3.675334    0.024949
     19          1           0        1.957888    3.333926   -0.486022
     20          1           0        3.320177    2.722077   -1.433574
     21          1           0        2.670137    1.871377    1.453907
     22          1           0        4.049549    1.319725    0.526871
     23          1           0        2.521263    0.190044   -1.093438
     24          1           0        2.412125   -0.622925    1.830846
     25          1           0        3.696322   -0.874541    0.680420
     26          1           0        2.445486   -2.958977    0.959536
     27          1           0        2.083416   -3.339579   -1.334733
     28          1           0        0.237188   -3.365648    0.062838
     29          1           0       -1.243338   -0.850481    2.258784
     30          1           0       -0.115506    0.503122    2.371857
     31          1           0        0.481149   -1.137295    2.135269
     32          1           0       -1.898371    0.344675   -1.096317
     33          1           0       -3.519231   -0.515978    1.218174
     34          1           0       -2.421791   -1.762462    0.655394
     35          1           0       -4.416593   -0.313777   -1.168289
     36          1           0       -4.604397   -1.943550   -0.509057
     37          1           0       -3.297054   -1.593791   -1.650173
     38          1           0       -1.451392    2.343382    0.367000
     39          1           0       -2.250701    1.529237    1.696743
     40          1           0       -3.588540    2.293930   -0.966901
     41          1           0       -3.751193    3.168369    0.560921
     42          1           0       -4.414854    1.541598    0.402672
     43          1           0        0.512957    1.692876    0.406743
     44          1           0        0.299096    0.239971   -2.269407
     45          1           0        1.204434    1.743925   -2.085198
     46          1           0       -0.529494    1.740636   -1.807432
 ---------------------------------------------------------------------

 SCF Done:  E(RB3LYP) =  -719.038347694     A.U. after    1 cycles

 The electronic state is 1-A.
 Alpha  occ. eigenvalues --  -19.13429 -14.31830 -10.25266 -10.23533 -10.21277
 Alpha  occ. eigenvalues --  -10.17872 -10.17825 -10.17801 -10.17542 -10.17396
 Alpha  occ. eigenvalues --  -10.17309 -10.16928 -10.16883 -10.16757 -10.16572
 Alpha  occ. eigenvalues --  -10.16180 -10.15742  -1.03693  -0.94080  -0.82338
 Alpha  occ. eigenvalues --   -0.80046  -0.75466  -0.73831  -0.73556  -0.72225
 Alpha  occ. eigenvalues --   -0.67409  -0.66053  -0.64254  -0.61832  -0.60167
 Alpha  occ. eigenvalues --   -0.59082  -0.55966  -0.55552  -0.52931  -0.51579
 Alpha  occ. eigenvalues --   -0.47640  -0.46865  -0.45928  -0.44727  -0.43587
 Alpha  occ. eigenvalues --   -0.42715  -0.42147  -0.41655  -0.40651  -0.40163
 Alpha  occ. eigenvalues --   -0.39624  -0.39312  -0.38237  -0.37153  -0.36865
 Alpha  occ. eigenvalues --   -0.36473  -0.35953  -0.35853  -0.34916  -0.33844
 Alpha  occ. eigenvalues --   -0.33595  -0.33476  -0.33104  -0.32145  -0.31689
 Alpha  occ. eigenvalues --   -0.30761  -0.30261  -0.29910  -0.28328  -0.27786
 Alpha  occ. eigenvalues --   -0.24979  -0.24341
 Alpha virt. eigenvalues --    0.07149   0.08374   0.09326   0.10209   0.10984
 Alpha virt. eigenvalues --    0.11703   0.12372   0.12452   0.12714   0.13882
 Alpha virt. eigenvalues --    0.14016   0.14483   0.14677   0.15478   0.15785

 Mulliken charges:
               1
     1  C   -0.395026
     2  C   -0.168557
     3  C    0.000020
     4  C   -0.248915
     5  C   -0.064081
     6  N   -0.354369
     7  C    0.096094
     8  O   -0.285675
     9  C    0.294595
    10  C   -0.453616
    11  C    0.024790
    12  C   -0.186807
    13  C   -0.392979
    14  C   -0.195788
    15  C   -0.391973
    16  C    0.004559
    17  C   -0.418940
    18  H    0.107284
    19  H    0.120100
    20  H    0.117146
    21  H    0.090113
    22  H    0.088183
    23  H    0.095588
    24  H    0.100700
    25  H    0.096965
    26  H    0.079328
    27  H    0.229048
    28  H    0.084829
    29  H    0.120046
    30  H    0.116419
    31  H    0.126006
    32  H    0.080525
    33  H    0.082096
    34  H    0.103977
    35  H    0.112387
    36  H    0.102954
    37  H    0.123659
    38  H    0.097607
    39  H    0.092611
    40  H    0.114923
    41  H    0.107893
    42  H    0.121112
    43  H    0.067236
    44  H    0.141343
    45  H    0.108417
    46  H    0.108171
 Sum of Mulliken charges =  -0.00000

 Dipole moment (field-independent basis, Debye):
    X=              0.8477    Y=             -0.6266    Z=              1.5560  Tot=              1.8795
 Quadrupole moment (field-independent basis, Debye-Ang):
   XX=           -108.0790   YY=           -101.7343   ZZ=           -110.6025
   XY=             -3.5661   XZ=              0.9202   YZ=             -1.1267

  Exact polarizability: 189.715  -0.638 173.095   2.109   0.677 143.806
 Approx polarizability: 245.588  -1.854 238.350   0.463   4.137 234.046

                      1                      2                      3
                      A                      A                      A
 Frequencies --     34.4783                53.6410                73.4883
 Red. masses --      2.9343                 2.6179                 2.6040
 Frc consts  --      0.0021                 0.0044                 0.0083
 IR Inten    --      0.4630                 0.3997                 0.0871

                      4                      5                      6
                      A                      A                      A
 Frequencies --     85.9465                97.2473               118.5630
 Red. masses --      2.7963                 2.9925                 1.7915
 Frc consts  --      0.0122                 0.0167                 0.0148
 IR Inten    --      0.1943                 1.0547                 0.3659

                      7                      8                      9
                      A                      A                      A
 Frequencies --    134.4736               166.9992               180.7157
 Red. masses --      2.5633                 1.8707                 1.7143
 Frc consts  --      0.0273                 0.0307                 0.0330
 IR Inten    --      1.6516                 0.2505                 0.3406

                     10                     11                     12
                      A                      A                      A
 Frequencies --    199.5580               217.5418               227.3530
 Red. masses --      2.8647                 1.5918                 1.3760
 Frc consts  --      0.0672                 0.0444                 0.0419
 IR Inten    --      1.0218                 0.2067                 0.1765

                     13                     14                     15
                      A                      A                      A
 Frequencies --    245.4733               259.2925               267.7786
 Red. masses --      1.7604                 1.4642                 2.9533
 Frc consts  --      0.0625                 0.0580                 0.1248
 IR Inten    --      0.5184                 0.0602                 2.2173

                     16                     17                     18
                      A                      A                      A
 Frequencies --    273.2636               283.3101               293.1449
 Red. masses --      1.5586                 1.8006                 1.4699
 Frc consts  --      0.0686                 0.0851                 0.0744
 IR Inten    --      0.2451                 0.3254                 0.8097

                     19                     20                     21
                      A                      A                      A
 Frequencies --    322.4067               337.2926               358.3395
 Red. masses --      2.7115                 2.8518                 2.6657
 Frc consts  --      0.1661                 0.1912                 0.2017
 IR Inten    --      2.7895                 1.4502                 1.0100

                     22                     23                     24
                      A                      A                      A
 Frequencies --    372.6969               386.8212               393.9469
 Red. masses --      2.7347                 2.7676                 2.5809
 Frc consts  --      0.2238                 0.2440                 0.2360
 IR Inten    --      0.1457                 0.2523                 0.5683

                     25                     26                     27
                      A                      A                      A
 Frequencies --    433.4731               442.5255               465.8087
 Red. masses --      2.4122                 3.4142                 2.2808
 Frc consts  --      0.2670                 0.3939                 0.2916
 IR Inten    --      0.9585                 2.7083                 0.2506

                     28                     29                     30
                      A                      A                      A
 Frequencies --    473.2508               547.1752               564.3460
 Red. masses --      3.1492                 3.5956                 3.3713
 Frc consts  --      0.4156                 0.6343                 0.6326
 IR Inten    --      4.8900                 4.1424                 5.3355

                     31                     32                     33
                      A                      A                      A
 Frequencies --    665.4662               705.7534               715.1242
 Red. masses --      2.8428                 3.3495                 2.4851
 Frc consts  --      0.7417                 0.9830                 0.7488
 IR Inten    --      4.6218                11.8321                 2.4117

                     34                     35                     36
                      A                      A                      A
 Frequencies --    764.1542               775.6001               781.0166
 Red. masses --      1.4606                 1.3734                 1.3612
 Frc consts  --      0.5025                 0.4868                 0.4892
 IR Inten    --      6.3368                11.0862                 2.4385

                     37                     38                     39
                      A                      A                      A
 Frequencies --    785.8891               815.9505               834.6895
 Red. masses --      3.0874                 2.0230                 2.0808
 Frc consts  --      1.1235                 0.7936                 0.8542
 IR Inten    --      7.2216                10.0652                 2.2507

                     40                     41                     42
                      A                      A                      A
 Frequencies --    872.2740               891.4362               909.6201
 Red. masses --      1.9835                 2.2225                 1.4822
 Frc consts  --      0.8892                 1.0406                 0.7225
 IR Inten    --      6.1803                 8.8168                 7.7315

                     43                     44                     45
                      A                      A                      A
 Frequencies --    919.6705               931.3686               945.3111
 Red. masses --      1.9811                 2.1340                 1.8901
 Frc consts  --      0.9872                 1.0907                 0.9952
 IR Inten    --      5.0379                42.2780                10.0920

                     46                     47                     48
                      A                      A                      A
 Frequencies --    978.5433               995.1817              1000.4932
 Red. masses --      1.6428                 1.7099                 1.6581
 Frc consts  --      0.9268                 0.9978                 0.9779
 IR Inten    --      1.8113                28.6315                 7.9034

                     49                     50                     51
                      A                      A                      A
 Frequencies --   1014.5553              1028.3913              1042.0574
 Red. masses --      2.3942                 1.9543                 1.5878
 Frc consts  --      1.4520                 1.2177                 1.0158
 IR Inten    --      7.6753                 7.1371                 1.5402

                     52                     53                     54
                      A                      A                      A
 Frequencies --   1044.8845              1051.5467              1060.9183
 Red. masses --      1.7024                 2.4570                 2.2198
 Frc consts  --      1.0951                 1.6007                 1.4721
 IR Inten    --     19.3226                 0.2108                 3.2164

                     55                     56                     57
                      A                      A                      A
 Frequencies --   1067.1130              1078.4979              1091.5255
 Red. masses --      1.8353                 1.9508                 1.6638
 Frc consts  --      1.2314                 1.3369                 1.1680
 IR Inten    --     17.1535                23.1530                 7.5899

                     58                     59                     60
                      A                      A                      A
 Frequencies --   1116.8795              1133.1739              1144.7464
 Red. masses --      1.7263                 2.1002                 2.1718
 Frc consts  --      1.2688                 1.5889                 1.6768
 IR Inten    --      9.9588                40.1645                26.0241

                     61                     62                     63
                      A                      A                      A
 Frequencies --   1162.3718              1167.2147              1183.2242
 Red. masses --      1.9723                 1.7697                 2.2152
 Frc consts  --      1.5700                 1.4205                 1.8273
 IR Inten    --     25.1734                12.7530                 6.0869

                     64                     65                     66
                      A                      A                      A
 Frequencies --   1191.3773              1198.9243              1215.9248
 Red. masses --      1.7500                 2.4830                 2.7174
 Frc consts  --      1.4635                 2.1029                 2.3671
 IR Inten    --      9.6895                22.5074                 6.6136

                     67                     68                     69
                      A                      A                      A
 Frequencies --   1239.8339              1258.7302              1281.7881
 Red. masses --      1.5025                 1.4696                 1.3175
 Frc consts  --      1.3608                 1.3719                 1.2754
 IR Inten    --      7.5450                15.5226                 0.8191

                     70                     71                     72
                      A                      A                      A
 Frequencies --   1288.2434              1309.9444              1320.9309
 Red. masses --      1.3181                 1.7078                 1.1623
 Frc consts  --      1.2888                 1.7266                 1.1949
 IR Inten    --     10.8130                57.3200                 3.6130

                     73                     74                     75
                      A                      A                      A
 Frequencies --   1323.5853              1324.4794              1338.3033
 Red. masses --      1.2277                 1.1913                 1.2522
 Frc consts  --      1.2672                 1.2312                 1.3214
 IR Inten    --      4.5739                 6.3483                 1.3805

                     76                     77                     78
                      A                      A                      A
 Frequencies --   1341.3788              1356.3979              1379.7947
 Red. masses --      1.3034                 1.2661                 1.4008
 Frc consts  --      1.3817                 1.3724                 1.5713
 IR Inten    --      1.2589                 7.2431                 1.3839

                     79                     80                     81
                      A                      A                      A
 Frequencies --   1382.1084              1396.8956              1399.6279
 Red. masses --      1.3733                 1.4716                 1.3116
 Frc consts  --      1.5457                 1.6919                 1.5138
 IR Inten    --      5.0555                 1.5920                 4.8126

                     82                     83                     84
                      A                      A                      A
 Frequencies --   1405.7632              1406.9588              1411.3006
 Red. masses --      1.3001                 1.2416                 1.2569
 Frc consts  --      1.5137                 1.4481                 1.4750
 IR Inten    --      2.9489                 1.4483                 0.9189

                     85                     86                     87
                      A                      A                      A
 Frequencies --   1411.6438              1414.7776              1417.5928
 Red. masses --      1.2321                 1.2474                 1.2497
 Frc consts  --      1.4466                 1.4710                 1.4796
 IR Inten    --      5.5891                12.2444                 5.3612

                     88                     89                     90
                      A                      A                      A
 Frequencies --   1418.2308              1467.8918              1478.0228
 Red. masses --      1.2198                 2.0446                 1.0904
 Frc consts  --      1.4456                 2.5957                 1.4034
 IR Inten    --      6.5453                37.4135                 8.0708

                     91                     92                     93
                      A                      A                      A
 Frequencies --   1481.6158              1487.7911              1490.4939
 Red. masses --      1.0704                 1.0714                 1.0597
 Frc consts  --      1.3845                 1.3973                 1.3871
 IR Inten    --      0.3761                 2.9815                 1.1561

                     94                     95                     96
                      A                      A                      A
 Frequencies --   1495.4312              1498.9834              1500.2515
 Red. masses --      1.0578                 1.0483                 1.0429
 Frc consts  --      1.3937                 1.3879                 1.3830
 IR Inten    --      0.9055                 2.2541                 4.4156

                     97                     98                     99
                      A                      A                      A
 Frequencies --   1502.3912              1504.1029              1506.9134
 Red. masses --      1.0588                 1.0518                 1.0689
 Frc consts  --      1.4081                 1.4020                 1.4301
 IR Inten    --      1.3493                 4.5972                 2.7712

                    100                    101                    102
                      A                      A                      A
 Frequencies --   1511.0886              1513.6591              1516.0237
 Red. masses --      1.0540                 1.0588                 1.0446
 Frc consts  --      1.4179                 1.4293                 1.4145
 IR Inten    --      6.3025                 4.1922                 1.7999

                    103                    104                    105
                      A                      A                      A
 Frequencies --   1522.6012              3000.4455              3010.8760
 Red. masses --      1.0626                 1.0618                 1.0690
 Frc consts  --      1.4514                 5.6321                 5.7099
 IR Inten    --      3.7080                12.7476                41.4309

                    106                    107                    108
                      A                      A                      A
 Frequencies --   3022.2970              3023.9372              3027.5947
 Red. masses --      1.0679                 1.0722                 1.0722
 Frc consts  --      5.7470                 5.7766                 5.7904
 IR Inten    --     11.4540                 8.9740                33.9826

                    109                    110                    111
                      A                      A                      A
 Frequencies --   3030.6305              3031.6316              3032.2344
 Red. masses --      1.0368                 1.0435                 1.0368
 Frc consts  --      5.6106                 5.6506                 5.6166
 IR Inten    --      9.3142                25.5180                48.9645

                    112                    113                    114
                      A                      A                      A
 Frequencies --   3033.7117              3042.8601              3051.0042
 Red. masses --      1.0828                 1.0893                 1.0413
 Frc consts  --      5.8714                 5.9423                 5.7112
 IR Inten    --     19.3166                 4.5897                10.6397

                    115                    116                    117
                      A                      A                      A
 Frequencies --   3060.0450              3063.4352              3065.1278
 Red. masses --      1.0832                 1.0795                 1.0541
 Frc consts  --      5.9763                 5.9688                 5.8349
 IR Inten    --     20.1962                15.9712                40.8960

                    118                    119                    120
                      A                      A                      A
 Frequencies --   3072.4707              3079.7137              3087.9520
 Red. masses --      1.0909                 1.0851                 1.0942
 Frc consts  --      6.0676                 6.0635                 6.1472
 IR Inten    --     25.4811                16.8102                 2.3843

                    121                    122                    123
                      A                      A                      A
 Frequencies --   3093.5742              3094.5251              3095.7691
 Red. masses --      1.0889                 1.1008                 1.1006
 Frc consts  --      6.1399                 6.2109                 6.2145
 IR Inten    --     79.3286                31.5879                34.4048

                    124                    125                    126
                      A                      A                      A
 Frequencies --   3098.5925              3106.2272              3107.3217
 Red. masses --      1.0995                 1.1009                 1.1006
 Frc consts  --      6.2198                 6.2582                 6.2608
 IR Inten    --     60.5021                48.8181                47.9518

                    127                    128                    129
                      A                      A                      A
 Frequencies --   3112.0722              3122.2507              3123.9903
 Red. masses --      1.1000                 1.1007                 1.0992
 Frc consts  --      6.2771                 6.3222                 6.3207
 IR Inten    --     29.8585                26.6889                21.1642

                    130                    131                    132
                      A                      A                      A
 Frequencies --   3130.5099              3173.5505              3514.3718
 Red. masses --      1.0996                 1.0936                 1.0767
 Frc consts  --      6.3490                 6.4895                 7.8347
 IR Inten    --     18.3715                17.0017                 0.3591

 - Thermochemistry -
 -------------------
 Temperature   298.150 Kelvin.  Pressure   1.00000 Atm.
 Atom     1 has atomic number  6 and mass  12.00000

 Molecular mass:   239.22491 amu.
 Principal axes and moments of inertia in atomic units:
                           1         2         3
     Eigenvalues --  2909.817434995.301226650.37577
           X            0.99986   0.01624   0.00406
           Y           -0.01618   0.99976  -0.01450
           Z           -0.00429   0.01443   0.99989
 This molecule is an asymmetric top.
 Rotational symmetry number  1.
 Warning -- assumption of classical behavior for rotation
           may cause significant error
 Rotational temperatures (Kelvin)      0.02977     0.01734     0.01302
 Rotational constants (GHZ):           0.62022     0.36129     0.27137
 Zero-point vibrational energy    1108971.3 (Joules/Mol)
                                  265.05049 (Kcal/Mol)
 Warning -- explicit consideration of  30 degrees of freedom as
           vibrations may cause significant error
 Vibrational temperatures:     49.61    77.18   105.73   123.66   139.92
          (Kelvin)            170.59   193.48   240.27   260.01   287.12
                              312.99   327.11   353.18   373.06   385.27
                              393.17   407.62   421.77   463.87   485.29
                              515.57   536.23   556.55   566.80   623.67
                              636.70   670.19   680.90   787.26   811.97
                              957.46  1015.42  1028.90  1099.45  1115.92
                             1123.71  1130.72  1173.97  1200.93  1255.01
                             1282.58  1308.74  1323.20  1340.03  1360.09
                             1407.91  1431.84  1439.49  1459.72  1479.63
                             1499.29  1503.36  1512.94  1526.42  1535.34
                             1551.72  1570.46  1606.94  1630.38  1647.03
                             1672.39  1679.36  1702.40  1714.13  1724.98
                             1749.44  1783.84  1811.03  1844.21  1853.49
                             1884.72  1900.52  1904.34  1905.63  1925.52
                             1929.94  1951.55  1985.22  1988.55  2009.82
                             2013.75  2022.58  2024.30  2030.55  2031.04
                             2035.55  2039.60  2040.52  2111.97  2126.55
                             2131.71  2140.60  2144.49  2151.59  2156.70
                             2158.53  2161.61  2164.07  2168.11  2174.12
                             2177.82  2181.22  2190.68  4316.97  4331.98
                             4348.41  4350.77  4356.03  4360.40  4361.84
                             4362.71  4364.83  4378.00  4389.71  4402.72
                             4407.60  4410.04  4420.60  4431.02  4442.87
                             4450.96  4452.33  4454.12  4458.18  4469.17
                             4470.74  4477.58  4492.22  4494.73  4504.11
                             4566.03  5056.40

 Zero-point correction=                           0.422385 (Hartree/Particle)
 Thermal correction to Energy=                    0.441629
 Thermal correction to Enthalpy=                  0.442573
 Thermal correction to Gibbs Free Energy=         0.376426
 Sum of electronic and zero-point Energies=           -718.615963
 Sum of electronic and thermal Energies=              -718.596719
 Sum of electronic and thermal Enthalpies=            -718.595774
 Sum of electronic and thermal Free Energies=         -718.661921

                     E (Thermal)             CV                S
                      KCal/Mol        Cal/Mol-Kelvin    Cal/Mol-Kelvin
 Total                  277.126             75.584            139.218
 Electronic               0.000              0.000              0.000
 Translational            0.889              2.981             42.318
 Rotational               0.889              2.981             32.936
 Vibrational            275.349             69.623             63.965
 Vibration     1          0.594              1.983              5.553
 Vibration     2          0.596              1.976              4.678
 Vibration     3          0.599              1.967              4.058
 Vibration     4          0.601              1.959              3.750
 Vibration     5          0.603              1.951              3.509
 Vibration     6          0.609              1.934              3.124
 Vibration     7          0.613              1.919              2.881
 Vibration     8          0.624              1.883              2.469
 Vibration     9          0.630              1.866              2.321
 Vibration    10          0.638              1.840              2.137
 Vibration    11          0.646              1.814              1.979
 Vibration    12          0.651              1.799              1.900
 Vibration    13          0.660              1.770              1.763
 Vibration    14          0.668              1.747              1.667
 Vibration    15          0.673              1.732              1.611
 Vibration    16          0.676              1.723              1.575
 Vibration    17          0.682              1.705              1.514
 Vibration    18          0.688              1.687              1.456
 Vibration    19          0.707              1.631              1.298
 Vibration    20          0.718              1.601              1.225
 Vibration    21          0.733              1.558              1.129
 Vibration    22          0.744              1.528              1.069
 Vibration    23          0.755              1.498              1.012
 Vibration    24          0.761              1.483              0.985
 Vibration    25          0.794              1.397              0.847
 Vibration    26          0.802              1.377              0.819
 Vibration    27          0.823              1.326              0.749
 Vibration    28          0.830              1.309              0.728
 Vibration    29          0.902              1.146              0.550
 Vibration    30          0.920              1.108              0.515

 Optimization completed.
    -- Stationary point found.
 Normal termination of Gaussian 16 at Sun May 28 16:07:45 2023.
