 Gaussian 16, Revision A.03,
 Gaussian 16:  ES64L-G16RevA.03 25-Dec-2016

 -----------------------------
 # opt freq b3lyp/6-31g(2df,p)
 -----------------------------

 -------------------
 Title Card Required
 -------------------
 Symbolic Z-matrix:
 Charge =  0 Multiplicity = 1

 SCF Done:  E(RB3LYP) =  -351.260555503     A.U. after   12 cycles
 SCF Done:  E(RB3LYP) =  -351.298573840     A.U. after   11 cycles
 SCF Done:  E(RB3LYP) =  -351.326400994     A.U. after   11 cycles
 SCF Done:  E(RB3LYP) =  -351.332525695     A.U. after   10 cycles
 SCF Done:  E(RB3LYP) =  -351.336790495     A.U. after   10 cycles
 SCF Done:  E(RB3LYP) =  -351.338182263     A.U. after   10 cycles
 SCF Done:  E(RB3LYP) =  -351.338393655     A.U. after    9 cycles
 SCF Done:  E(RB3LYP) =  -351.338416494     A.U. after    8 cycles
 SCF Done:  E(RB3LYP) =  -351.338419943     A.U. after    7 cycles
 SCF Done:  E(RB3LYP) =  -351.338420748     A.U. after    6 cycles
 SCF Done:  E(RB3LYP) =  -351.338420874     A.U. after    5 cycles
 Optimization completed.
    -- Stationary point found.
 Normal termination of Gaussian 16 at Sun May 28 04:37:28 2023.

 ----------------------------------------------------------------------
 #N Geom=AllCheck Guess=TCheck SCRF=Check GenChk RB3LYP/6-31G(2df,p) Fr
 eq
 ----------------------------------------------------------------------

 Structure from the checkpoint file:  "CCC1C2C3CCC2C13.chk"
 -------------------
 Title Card Required
 -------------------
 Charge =  0 Multiplicity = 1

                         Standard orientation:
 ---------------------------------------------------------------------
 Center     Atomic      Atomic             Coordinates (Angstroms)
 Number     Number       Type             X           Y           Z
 ---------------------------------------------------------------------
      1          6           0       -2.810175   -0.658290    0.434756
      2          6           0       -1.734327   -0.015427   -0.442718
      3          6           0       -1.200307    1.351453    0.082840
      4          6           0        0.288757    1.032222    0.210281
      5          6           0        0.455253   -0.419802    0.770092
      6          6           0        1.729420   -0.621987   -0.095505
      7          6           0        3.062337   -0.006023    0.304465
      8          6           0        0.725668    0.142010   -1.001839
      9          6           0       -0.413752   -0.789646   -0.479065
     10          1           0       -3.095756   -1.646307    0.056772
     11          1           0       -3.714588   -0.041502    0.469663
     12          1           0       -2.455588   -0.785890    1.463955
     13          1           0       -2.130435    0.092707   -1.460190
     14          1           0       -1.646318    1.626052    1.045763
     15          1           0       -1.389741    2.177021   -0.611287
     16          1           0        0.948155    1.825084    0.563635
     17          1           0        0.292769   -0.744893    1.800843
     18          1           0        1.881055   -1.664445   -0.403161
     19          1           0        3.512310   -0.563638    1.133794
     20          1           0        3.770007   -0.039929   -0.531724
     21          1           0        2.971981    1.037366    0.618536
     22          1           0        0.871231    0.471889   -2.034028
     23          1           0       -0.432331   -1.830580   -0.812406
 ---------------------------------------------------------------------

 SCF Done:  E(RB3LYP) =  -351.338420874     A.U. after    1 cycles

 The electronic state is 1-A.
 Alpha  occ. eigenvalues --  -10.18713 -10.18684 -10.18378 -10.18301 -10.18162
 Alpha  occ. eigenvalues --  -10.17750 -10.16961 -10.16790 -10.16749  -0.91596
 Alpha  occ. eigenvalues --   -0.78459  -0.72212  -0.70045  -0.64635  -0.61819
 Alpha  occ. eigenvalues --   -0.59237  -0.54039  -0.50680  -0.48908  -0.46928
 Alpha  occ. eigenvalues --   -0.44244  -0.41335  -0.40230  -0.39144  -0.38345
 Alpha  occ. eigenvalues --   -0.37021  -0.35332  -0.32379  -0.31423  -0.30081
 Alpha  occ. eigenvalues --   -0.29656  -0.28933  -0.28685  -0.28246
 Alpha virt. eigenvalues --    0.09701   0.10672   0.12698   0.13185   0.13957
 Alpha virt. eigenvalues --    0.14005   0.14807   0.15185   0.15628   0.15947
 Alpha virt. eigenvalues --    0.17104   0.18141   0.18540   0.19258   0.20115

 Mulliken charges:
               1
     1  C   -0.403325
     2  C    0.007309
     3  C   -0.263142
     4  C   -0.002346
     5  C   -0.069776
     6  C    0.039659
     7  C   -0.434692
     8  C   -0.079961
     9  C    0.005550
    10  H    0.108867
    11  H    0.110740
    12  H    0.112605
    13  H    0.063879
    14  H    0.091328
    15  H    0.092320
    16  H    0.057709
    17  H    0.058065
    18  H    0.055901
    19  H    0.113039
    20  H    0.113084
    21  H    0.114807
    22  H    0.056548
    23  H    0.051832
 Sum of Mulliken charges =  -0.00000

 Dipole moment (field-independent basis, Debye):
    X=             -0.0263    Y=              0.0285    Z=             -0.0593  Tot=              0.0708
 Quadrupole moment (field-independent basis, Debye-Ang):
   XX=            -57.0542   YY=            -56.2931   ZZ=            -56.0929
   XY=             -0.1273   XZ=              0.2057   YZ=              0.0169

  Exact polarizability: 106.594  -0.943  83.621   0.098   0.089  79.178
 Approx polarizability: 132.085  -1.166 128.073   0.237   0.115 127.075

                      1                      2                      3
                      A                      A                      A
 Frequencies --    120.5514               189.6100               212.3509
 Red. masses --      2.6612                 1.0764                 2.3604
 Frc consts  --      0.0228                 0.0228                 0.0627
 IR Inten    --      0.0239                 0.0316                 0.1261

                      4                      5                      6
                      A                      A                      A
 Frequencies --    230.1055               258.3825               294.7806
 Red. masses --      1.1796                 1.9597                 2.4958
 Frc consts  --      0.0368                 0.0771                 0.1278
 IR Inten    --      0.0547                 0.2907                 0.0041

                      7                      8                      9
                      A                      A                      A
 Frequencies --    384.7105               460.4349               518.9489
 Red. masses --      1.9391                 2.9454                 3.1187
 Frc consts  --      0.1691                 0.3679                 0.4949
 IR Inten    --      0.0697                 0.1968                 0.6198

                     10                     11                     12
                      A                      A                      A
 Frequencies --    642.7899               693.2449               761.5883
 Red. masses --      3.0746                 3.3742                 2.9642
 Frc consts  --      0.7485                 0.9554                 1.0130
 IR Inten    --      0.8557                 1.4264                 0.0332

                     13                     14                     15
                      A                      A                      A
 Frequencies --    796.3403               803.6827               844.9629
 Red. masses --      2.3945                 2.3070                 2.6473
 Frc consts  --      0.8947                 0.8779                 1.1136
 IR Inten    --      0.5209                 0.0331                 0.7197

                     16                     17                     18
                      A                      A                      A
 Frequencies --    878.4552               892.3872               929.9319
 Red. masses --      2.2162                 2.3790                 1.4615
 Frc consts  --      1.0076                 1.1162                 0.7446
 IR Inten    --      0.1456                 0.0597                 0.2466

                     19                     20                     21
                      A                      A                      A
 Frequencies --    944.9303               961.5968               998.7725
 Red. masses --      1.7459                 3.0454                 1.0855
 Frc consts  --      0.9185                 1.6592                 0.6380
 IR Inten    --      0.4671                 0.5342                 0.9122

                     22                     23                     24
                      A                      A                      A
 Frequencies --   1003.1233              1031.0552              1052.4574
 Red. masses --      1.6019                 1.1795                 2.0004
 Frc consts  --      0.9497                 0.7388                 1.3055
 IR Inten    --      5.7967                 1.7957                 1.4611

                     25                     26                     27
                      A                      A                      A
 Frequencies --   1059.9296              1083.7392              1113.9087
 Red. masses --      1.7878                 1.3284                 1.8335
 Frc consts  --      1.1834                 0.9192                 1.3404
 IR Inten    --      1.1785                 1.0514                 0.5378

                     28                     29                     30
                      A                      A                      A
 Frequencies --   1114.8361              1128.3295              1139.3985
 Red. masses --      2.2110                 2.1359                 1.6652
 Frc consts  --      1.6191                 1.6022                 1.2737
 IR Inten    --      0.7228                 1.1887                 0.4377

                     31                     32                     33
                      A                      A                      A
 Frequencies --   1171.6254              1181.0169              1221.7631
 Red. masses --      1.5941                 1.6758                 1.6090
 Frc consts  --      1.2893                 1.3771                 1.4151
 IR Inten    --      1.6698                 0.1161                 2.1126

                     34                     35                     36
                      A                      A                      A
 Frequencies --   1224.3437              1257.7717              1261.9101
 Red. masses --      1.4385                 1.5783                 1.6643
 Frc consts  --      1.2704                 1.4711                 1.5615
 IR Inten    --      0.0948                 1.1791                 5.3594

                     37                     38                     39
                      A                      A                      A
 Frequencies --   1275.7512              1288.2727              1315.8654
 Red. masses --      1.7114                 1.7898                 1.5093
 Frc consts  --      1.6411                 1.7501                 1.5397
 IR Inten    --      0.2797                 0.8158                 1.1134

                     40                     41                     42
                      A                      A                      A
 Frequencies --   1356.1715              1380.7748              1408.5374
 Red. masses --      1.4517                 1.5907                 1.2564
 Frc consts  --      1.5731                 1.7869                 1.4687
 IR Inten    --     11.6849                 3.1063                 3.2247

                     43                     44                     45
                      A                      A                      A
 Frequencies --   1412.3848              1423.9802              1494.7018
 Red. masses --      1.2349                 1.4871                 1.0772
 Frc consts  --      1.4514                 1.7766                 1.4180
 IR Inten    --      1.3379                12.2410                 2.2294

                     46                     47                     48
                      A                      A                      A
 Frequencies --   1495.9839              1498.8675              1499.9301
 Red. masses --      1.0474                 1.0475                 1.0646
 Frc consts  --      1.3811                 1.3865                 1.4112
 IR Inten    --      2.8301                 3.6638                 1.1083

                     49                     50                     51
                      A                      A                      A
 Frequencies --   1500.7055              3017.7983              3018.6488
 Red. masses --      1.0562                 1.0810                 1.0827
 Frc consts  --      1.4014                 5.8003                 5.8127
 IR Inten    --      3.7703                42.9922                16.8023

                     52                     53                     54
                      A                      A                      A
 Frequencies --   3023.6130              3030.0121              3034.9432
 Red. masses --      1.0358                 1.0395                 1.0605
 Frc consts  --      5.5790                 5.6230                 5.7554
 IR Inten    --     25.4760                37.3858                47.7058

                     55                     56                     57
                      A                      A                      A
 Frequencies --   3069.4975              3071.9100              3073.9435
 Red. masses --      1.0883                 1.0871                 1.1040
 Frc consts  --      6.0414                 6.0442                 6.1461
 IR Inten    --     72.1743                40.2482                34.2947

                     58                     59                     60
                      A                      A                      A
 Frequencies --   3084.8397              3085.0267              3091.7512
 Red. masses --      1.0909                 1.1003                 1.1006
 Frc consts  --      6.1167                 6.1702                 6.1986
 IR Inten    --     34.7775                26.4192                51.1868

                     61                     62                     63
                      A                      A                      A
 Frequencies --   3093.5879              3105.6991              3118.5842
 Red. masses --      1.1011                 1.0966                 1.0914
 Frc consts  --      6.2087                 6.2321                 6.2539
 IR Inten    --     44.6409                20.6865                56.6271

 - Thermochemistry -
 -------------------
 Temperature   298.150 Kelvin.  Pressure   1.00000 Atm.
 Atom     1 has atomic number  6 and mass  12.00000

 Molecular mass:   122.10955 amu.
 Principal axes and moments of inertia in atomic units:
                           1         2         3
     Eigenvalues --   435.030351547.804421662.00324
           X            0.99998   0.00578  -0.00171
           Y           -0.00579   0.99998  -0.00384
           Z            0.00169   0.00385   0.99999
 This molecule is an asymmetric top.
 Rotational symmetry number  1.
 Warning -- assumption of classical behavior for rotation
           may cause significant error
 Rotational temperatures (Kelvin)      0.19910     0.05596     0.05211
 Rotational constants (GHZ):           4.14854     1.16600     1.08588
 Zero-point vibrational energy     545111.6 (Joules/Mol)
                                  130.28481 (Kcal/Mol)
 Warning -- explicit consideration of   9 degrees of freedom as
           vibrations may cause significant error
 Vibrational temperatures:    173.45   272.81   305.53   331.07   371.75
          (Kelvin)            424.12   553.51   662.46   746.65   924.83
                              997.42  1095.76  1145.76  1156.32  1215.71
                             1263.90  1283.95  1337.96  1359.54  1383.52
                             1437.01  1443.27  1483.46  1514.25  1525.00
                             1559.26  1602.67  1604.00  1623.41  1639.34
                             1685.71  1699.22  1757.84  1761.56  1809.65
                             1815.61  1835.52  1853.54  1893.24  1951.23
                             1986.63  2026.57  2032.11  2048.79  2150.54
                             2152.39  2156.54  2158.06  2159.18  4341.94
                             4343.16  4350.30  4359.51  4366.61  4416.32
                             4419.79  4422.72  4438.40  4438.67  4448.34
                             4450.98  4468.41  4486.95

 Zero-point correction=                           0.207622 (Hartree/Particle)
 Thermal correction to Energy=                    0.215767
 Thermal correction to Enthalpy=                  0.216711
 Thermal correction to Gibbs Free Energy=         0.175418
 Sum of electronic and zero-point Energies=           -351.130799
 Sum of electronic and thermal Energies=              -351.122654
 Sum of electronic and thermal Enthalpies=            -351.121710
 Sum of electronic and thermal Free Energies=         -351.163003

                     E (Thermal)             CV                S
                      KCal/Mol        Cal/Mol-Kelvin    Cal/Mol-Kelvin
 Total                  135.396             33.194             86.908
 Electronic               0.000              0.000              0.000
 Translational            0.889              2.981             40.313
 Rotational               0.889              2.981             28.505
 Vibrational            133.618             27.232             18.090
 Vibration     1          0.609              1.932              3.092
 Vibration     2          0.633              1.854              2.232
 Vibration     3          0.643              1.822              2.023
 Vibration     4          0.652              1.795              1.878
 Vibration     5          0.667              1.749              1.673
 Vibration     6          0.689              1.683              1.446
 Vibration     7          0.754              1.503              1.021
 Vibration     8          0.818              1.338              0.765
 Vibration     9          0.874              1.208              0.612

 Optimization completed.
    -- Stationary point found.
 Normal termination of Gaussian 16 at Sun May 28 05:17:11 2023.
