 Gaussian 16, Revision A.03,
 Gaussian 16:  ES64L-G16RevA.03 25-Dec-2016

 -----------------------------
 # opt freq b3lyp/6-31g(2df,p)
 -----------------------------

 -------------------
 Title Card Required
 -------------------
 Symbolic Z-matrix:
 Charge =  0 Multiplicity = 1

 SCF Done:  E(RB3LYP) =  -664.933613726     A.U. after   12 cycles
 SCF Done:  E(RB3LYP) =  -664.937399108     A.U. after   11 cycles
 SCF Done:  E(RB3LYP) =  -664.943216145     A.U. after   10 cycles
 SCF Done:  E(RB3LYP) =  -664.947076711     A.U. after   10 cycles
 SCF Done:  E(RB3LYP) =  -664.950108397     A.U. after   10 cycles
 SCF Done:  E(RB3LYP) =  -664.951430203     A.U. after   10 cycles
 SCF Done:  E(RB3LYP) =  -664.951687790     A.U. after   10 cycles
 SCF Done:  E(RB3LYP) =  -664.951468306     A.U. after    8 cycles
 SCF Done:  E(RB3LYP) =  -664.951944473     A.U. after    9 cycles
 SCF Done:  E(RB3LYP) =  -664.952181925     A.U. after   10 cycles
 SCF Done:  E(RB3LYP) =  -664.952532263     A.U. after   10 cycles
 SCF Done:  E(RB3LYP) =  -664.952512620     A.U. after    9 cycles
 SCF Done:  E(RB3LYP) =  -664.952541992     A.U. after    9 cycles
 SCF Done:  E(RB3LYP) =  -664.952543923     A.U. after    8 cycles
 SCF Done:  E(RB3LYP) =  -664.952545488     A.U. after    8 cycles
 SCF Done:  E(RB3LYP) =  -664.952545317     A.U. after    6 cycles
 SCF Done:  E(RB3LYP) =  -664.952545888     A.U. after    7 cycles
 SCF Done:  E(RB3LYP) =  -664.952545900     A.U. after    5 cycles
 SCF Done:  E(RB3LYP) =  -664.952545905     A.U. after    5 cycles
 Optimization completed.
    -- Stationary point found.
 Normal termination of Gaussian 16 at Wed May 24 15:29:48 2023.

 ----------------------------------------------------------------------
 #N Geom=AllCheck Guess=TCheck SCRF=Check GenChk RB3LYP/6-31G(2df,p) Fr
 eq
 ----------------------------------------------------------------------

 Structure from the checkpoint file:  "CCC1CCCC1COCCCCCqCrC.chk"
 -------------------
 Title Card Required
 -------------------
 Charge =  0 Multiplicity = 1

                         Standard orientation:
 ---------------------------------------------------------------------
 Center     Atomic      Atomic             Coordinates (Angstroms)
 Number     Number       Type             X           Y           Z
 ---------------------------------------------------------------------
      1          6           0       -2.000911    2.489889    0.689160
      2          6           0       -3.084752    1.978549   -0.265271
      3          6           0       -3.756216    0.658718    0.149883
      4          6           0       -5.161061    0.495630   -0.464755
      5          6           0       -5.533138   -0.990856   -0.271178
      6          6           0       -4.183000   -1.726094   -0.053095
      7          6           0       -3.073269   -0.668491   -0.265821
      8          6           0       -1.788538   -1.079015    0.445186
      9          8           0       -0.681666   -0.368629   -0.074139
     10          6           0        0.554034   -0.784463    0.471475
     11          6           0        1.677984   -0.001987   -0.194184
     12          6           0        3.064859   -0.398562    0.323745
     13          6           0        4.196085    0.389151   -0.348248
     14          6           0        5.607857    0.106073    0.197379
     15          6           0        6.053780   -1.343070   -0.045262
     16          6           0        6.622264    1.087763   -0.405316
     17          1           0       -1.602779    3.451395    0.347900
     18          1           0       -1.172397    1.782251    0.751745
     19          1           0       -2.406066    2.640727    1.696751
     20          1           0       -2.667952    1.866257   -1.274601
     21          1           0       -3.866420    2.745624   -0.346200
     22          1           0       -3.861453    0.649655    1.246882
     23          1           0       -5.107971    0.739320   -1.533871
     24          1           0       -5.889810    1.181475   -0.021836
     25          1           0       -6.079479   -1.385774   -1.132276
     26          1           0       -6.186345   -1.120742    0.596985
     27          1           0       -4.053726   -2.584457   -0.718955
     28          1           0       -4.123958   -2.116293    0.970578
     29          1           0       -2.839209   -0.605196   -1.337725
     30          1           0       -1.623451   -2.161121    0.302013
     31          1           0       -1.881469   -0.912639    1.533202
     32          1           0        0.691912   -1.867813    0.307959
     33          1           0        0.566064   -0.622811    1.563550
     34          1           0        1.508059    1.069047   -0.029234
     35          1           0        1.619794   -0.162811   -1.277689
     36          1           0        3.212481   -1.474699    0.168379
     37          1           0        3.109180   -0.238386    1.410355
     38          1           0        3.987981    1.462031   -0.237341
     39          1           0        4.184463    0.190977   -1.430029
     40          1           0        5.583490    0.273986    1.284420
     41          1           0        6.068039   -1.571416   -1.118198
     42          1           0        5.392093   -2.066019    0.440493
     43          1           0        7.064583   -1.510969    0.341245
     44          1           0        6.684775    0.966553   -1.493623
     45          1           0        7.625118    0.924498    0.003240
     46          1           0        6.341926    2.126961   -0.203185
 ---------------------------------------------------------------------

 SCF Done:  E(RB3LYP) =  -664.952545905     A.U. after    1 cycles

 The electronic state is 1-A.
 Alpha  occ. eigenvalues --  -19.13476 -10.22175 -10.21992 -10.18308 -10.17765
 Alpha  occ. eigenvalues --  -10.17630 -10.17516 -10.17379 -10.17363 -10.17355
 Alpha  occ. eigenvalues --  -10.17179 -10.16866 -10.16850 -10.16811 -10.16669
 Alpha  occ. eigenvalues --  -10.15599  -1.02771  -0.83515  -0.81135  -0.77778
 Alpha  occ. eigenvalues --   -0.75561  -0.73722  -0.69974  -0.68587  -0.67792
 Alpha  occ. eigenvalues --   -0.64356  -0.61280  -0.59279  -0.58145  -0.55796
 Alpha  occ. eigenvalues --   -0.55319  -0.54815  -0.48668  -0.48282  -0.46649
 Alpha  occ. eigenvalues --   -0.46377  -0.45240  -0.44205  -0.43422  -0.42679
 Alpha  occ. eigenvalues --   -0.41949  -0.40240  -0.39972  -0.39805  -0.39105
 Alpha  occ. eigenvalues --   -0.38232  -0.37812  -0.36330  -0.35697  -0.35209
 Alpha  occ. eigenvalues --   -0.34525  -0.33615  -0.33209  -0.32806  -0.32397
 Alpha  occ. eigenvalues --   -0.31586  -0.31370  -0.31047  -0.30891  -0.30735
 Alpha  occ. eigenvalues --   -0.30241  -0.30059  -0.29141  -0.24987
 Alpha virt. eigenvalues --    0.08296   0.08718   0.09093   0.09988   0.10592
 Alpha virt. eigenvalues --    0.11243   0.11657   0.12240   0.12779   0.13979
 Alpha virt. eigenvalues --    0.14858   0.15150   0.15283   0.15530   0.15932

 Mulliken charges:
               1
     1  C   -0.402796
     2  C   -0.183105
     3  C    0.043038
     4  C   -0.214080
     5  C   -0.226013
     6  C   -0.223127
     7  C    0.020404
     8  C   -0.085980
     9  O   -0.245147
    10  C   -0.054571
    11  C   -0.201688
    12  C   -0.193523
    13  C   -0.164656
    14  C    0.041589
    15  C   -0.380121
    16  C   -0.387700
    17  H    0.101298
    18  H    0.141703
    19  H    0.101394
    20  H    0.094562
    21  H    0.085754
    22  H    0.056368
    23  H    0.093293
    24  H    0.089385
    25  H    0.096223
    26  H    0.097070
    27  H    0.096093
    28  H    0.093430
    29  H    0.074992
    30  H    0.081994
    31  H    0.082129
    32  H    0.084150
    33  H    0.083239
    34  H    0.106421
    35  H    0.103706
    36  H    0.097387
    37  H    0.092363
    38  H    0.089196
    39  H    0.089331
    40  H    0.068633
    41  H    0.109590
    42  H    0.112504
    43  H    0.108790
    44  H    0.110599
    45  H    0.107431
    46  H    0.108450
 Sum of Mulliken charges =   0.00000

 Dipole moment (field-independent basis, Debye):
    X=              0.3085    Y=             -0.8132    Z=              0.4916  Tot=              0.9991
 Quadrupole moment (field-independent basis, Debye-Ang):
   XX=           -102.6927   YY=           -104.6616   ZZ=           -103.3414
   XY=              0.8953   XZ=              0.0213   YZ=              0.0727

  Exact polarizability: 207.299   4.706 160.736   1.782  -0.534 138.592
 Approx polarizability: 230.410   0.119 225.677  -0.137  -0.161 224.596

                      1                      2                      3
                      A                      A                      A
 Frequencies --     19.0830                21.2524                31.5675
 Red. masses --      2.4734                 3.5967                 3.1211
 Frc consts  --      0.0005                 0.0010                 0.0018
 IR Inten    --      0.0138                 0.0173                 0.0351

                      4                      5                      6
                      A                      A                      A
 Frequencies --     46.3981                63.2674                71.1721
 Red. masses --      2.2508                 2.8365                 2.3652
 Frc consts  --      0.0029                 0.0067                 0.0071
 IR Inten    --      0.0825                 0.0585                 0.1758

                      7                      8                      9
                      A                      A                      A
 Frequencies --     79.3068               108.4934               120.1176
 Red. masses --      1.7680                 2.1208                 3.0449
 Frc consts  --      0.0066                 0.0147                 0.0259
 IR Inten    --      0.6285                 0.2404                 0.1848

                     10                     11                     12
                      A                      A                      A
 Frequencies --    138.2038               146.1107               183.0833
 Red. masses --      2.2689                 2.1660                 3.4265
 Frc consts  --      0.0255                 0.0272                 0.0677
 IR Inten    --      0.0433                 0.5631                 0.3765

                     13                     14                     15
                      A                      A                      A
 Frequencies --    191.6149               199.7741               222.3494
 Red. masses --      2.5812                 2.5649                 1.3916
 Frc consts  --      0.0558                 0.0603                 0.0405
 IR Inten    --      4.6873                 1.3877                 0.1724

                     16                     17                     18
                      A                      A                      A
 Frequencies --    230.8170               246.2507               251.7967
 Red. masses --      1.7199                 1.2904                 1.1295
 Frc consts  --      0.0540                 0.0461                 0.0422
 IR Inten    --      0.1568                 0.0716                 0.0142

                     19                     20                     21
                      A                      A                      A
 Frequencies --    310.7707               331.4449               347.7285
 Red. masses --      2.9191                 2.8074                 2.0130
 Frc consts  --      0.1661                 0.1817                 0.1434
 IR Inten    --      0.0891                 0.2166                 0.0289

                     22                     23                     24
                      A                      A                      A
 Frequencies --    386.7265               407.2351               421.5410
 Red. masses --      2.5692                 2.6446                 2.6600
 Frc consts  --      0.2264                 0.2584                 0.2785
 IR Inten    --      0.2485                 0.3902                 0.4598

                     25                     26                     27
                      A                      A                      A
 Frequencies --    456.5694               489.3533               532.5823
 Red. masses --      2.4917                 2.7393                 3.2994
 Frc consts  --      0.3060                 0.3865                 0.5514
 IR Inten    --      0.1839                 1.2541                 4.8238

                     28                     29                     30
                      A                      A                      A
 Frequencies --    581.8695               646.2106               741.1132
 Red. masses --      2.3535                 3.2023                 1.1036
 Frc consts  --      0.4695                 0.7879                 0.3571
 IR Inten    --      0.5490                 1.8159                 2.9753

                     31                     32                     33
                      A                      A                      A
 Frequencies --    742.9931               781.5013               792.3202
 Red. masses --      1.4919                 1.2034                 1.2656
 Frc consts  --      0.4852                 0.4330                 0.4681
 IR Inten    --      2.9734                 3.3612                 0.3889

                     34                     35                     36
                      A                      A                      A
 Frequencies --    813.0780               827.1465               899.0108
 Red. masses --      1.6268                 2.2253                 1.5615
 Frc consts  --      0.6336                 0.8970                 0.7436
 IR Inten    --      1.1489                 0.3844                 0.5142

                     37                     38                     39
                      A                      A                      A
 Frequencies --    908.7716               920.5769               926.5891
 Red. masses --      1.2943                 2.8841                 1.2148
 Frc consts  --      0.6298                 1.4401                 0.6145
 IR Inten    --      1.4226                 1.4891                 1.2245

                     40                     41                     42
                      A                      A                      A
 Frequencies --    944.1792               950.7441               954.1699
 Red. masses --      1.9890                 1.7463                 1.7935
 Frc consts  --      1.0447                 0.9301                 0.9621
 IR Inten    --      3.4370                 2.7692                 1.4792

                     43                     44                     45
                      A                      A                      A
 Frequencies --    965.7629               988.9188               998.2333
 Red. masses --      1.4955                 1.8742                 2.5438
 Frc consts  --      0.8218                 1.0799                 1.4935
 IR Inten    --      0.2460                 4.1512                 7.9517

                     46                     47                     48
                      A                      A                      A
 Frequencies --   1022.0540              1031.1278              1038.8913
 Red. masses --      2.4375                 1.4880                 1.7608
 Frc consts  --      1.5002                 0.9321                 1.1197
 IR Inten    --      1.5289                 0.1962                 0.5993

                     49                     50                     51
                      A                      A                      A
 Frequencies --   1049.3978              1051.7177              1061.2269
 Red. masses --      2.4658                 2.5875                 2.1596
 Frc consts  --      1.5999                 1.6863                 1.4330
 IR Inten    --      1.5221                 1.0318                 3.0608

                     52                     53                     54
                      A                      A                      A
 Frequencies --   1079.7580              1095.0559              1117.6302
 Red. masses --      2.4978                 2.0406                 2.2724
 Frc consts  --      1.7158                 1.4417                 1.6724
 IR Inten    --      1.2290                 2.4622                 8.1506

                     55                     56                     57
                      A                      A                      A
 Frequencies --   1138.9207              1149.7574              1156.4288
 Red. masses --      2.3784                 5.4944                 2.5285
 Frc consts  --      1.8177                 4.2794                 1.9923
 IR Inten    --     10.0569               237.6403                19.6232

                     58                     59                     60
                      A                      A                      A
 Frequencies --   1161.0216              1190.2661              1194.7453
 Red. masses --      2.3235                 1.6958                 1.7293
 Frc consts  --      1.8453                 1.4155                 1.4543
 IR Inten    --     15.8554                 3.6225                 2.1831

                     61                     62                     63
                      A                      A                      A
 Frequencies --   1207.9189              1213.1103              1228.0346
 Red. masses --      1.6420                 1.5279                 1.4606
 Frc consts  --      1.4115                 1.3248                 1.2978
 IR Inten    --      1.8336                 0.0783                 2.9170

                     64                     65                     66
                      A                      A                      A
 Frequencies --   1257.9385              1262.6406              1263.3091
 Red. masses --      1.2628                 1.2567                 1.3142
 Frc consts  --      1.1774                 1.1804                 1.2357
 IR Inten    --      0.7018                 2.3025                 1.9851

                     67                     68                     69
                      A                      A                      A
 Frequencies --   1281.0942              1287.8775              1301.8630
 Red. masses --      1.2105                 1.2572                 1.2793
 Frc consts  --      1.1705                 1.2286                 1.2775
 IR Inten    --      1.7209                 1.1047                 3.9642

                     70                     71                     72
                      A                      A                      A
 Frequencies --   1305.5418              1314.9611              1324.8287
 Red. masses --      1.1980                 1.1001                 1.3143
 Frc consts  --      1.2031                 1.1208                 1.3591
 IR Inten    --      1.1673                 0.4144                 0.3389

                     73                     74                     75
                      A                      A                      A
 Frequencies --   1327.6294              1330.9839              1340.8994
 Red. masses --      1.2562                 1.1239                 1.2560
 Frc consts  --      1.3046                 1.1731                 1.3306
 IR Inten    --      0.0302                 0.0543                 2.2565

                     76                     77                     78
                      A                      A                      A
 Frequencies --   1342.2963              1353.4683              1367.0103
 Red. masses --      1.2831                 1.3183                 1.3719
 Frc consts  --      1.3621                 1.4228                 1.5105
 IR Inten    --      0.6065                 3.5502                 6.4742

                     79                     80                     81
                      A                      A                      A
 Frequencies --   1373.7391              1386.3441              1397.3250
 Red. masses --      1.3527                 1.4559                 1.4540
 Frc consts  --      1.5041                 1.6486                 1.6726
 IR Inten    --     12.8695                 4.8515                10.0817

                     82                     83                     84
                      A                      A                      A
 Frequencies --   1398.5590              1400.3814              1404.2424
 Red. masses --      1.4963                 1.2914                 1.4240
 Frc consts  --      1.7244                 1.4921                 1.6545
 IR Inten    --      0.6184                12.4176                28.9231

                     85                     86                     87
                      A                      A                      A
 Frequencies --   1407.5642              1422.2670              1452.3088
 Red. masses --      1.2844                 1.2460                 1.4911
 Frc consts  --      1.4993                 1.4851                 1.8530
 IR Inten    --      6.2088                 3.6727                 1.0786

                     88                     89                     90
                      A                      A                      A
 Frequencies --   1478.2530              1483.3170              1488.9651
 Red. masses --      1.0733                 1.0724                 1.0789
 Frc consts  --      1.3819                 1.3902                 1.4092
 IR Inten    --      0.2114                 0.8031                 0.3318

                     91                     92                     93
                      A                      A                      A
 Frequencies --   1489.0412              1489.5696              1494.1784
 Red. masses --      1.0463                 1.0789                 1.0821
 Frc consts  --      1.3668                 1.4105                 1.4234
 IR Inten    --      0.6501                 0.2223                 2.8154

                     94                     95                     96
                      A                      A                      A
 Frequencies --   1495.2198              1498.2486              1503.2690
 Red. masses --      1.0599                 1.0521                 1.0902
 Frc consts  --      1.3962                 1.3914                 1.4515
 IR Inten    --      0.9930                 0.9334                 3.5057

                     97                     98                     99
                      A                      A                      A
 Frequencies --   1505.1719              1510.0838              1512.3424
 Red. masses --      1.0548                 1.0727                 1.0691
 Frc consts  --      1.4080                 1.4412                 1.4406
 IR Inten    --      2.7820                10.5088                 3.8157

                    100                    101                    102
                      A                      A                      A
 Frequencies --   1515.5932              1519.9431              1533.0486
 Red. masses --      1.0994                 1.0535                 1.0944
 Frc consts  --      1.4880                 1.4339                 1.5155
 IR Inten    --      0.1340                 3.4910                 0.8775

                    103                    104                    105
                      A                      A                      A
 Frequencies --   2935.7160              2948.1984              2965.4066
 Red. masses --      1.0539                 1.0545                 1.1028
 Frc consts  --      5.3514                 5.4002                 5.7136
 IR Inten    --     13.8544                74.1925                67.4668

                    106                    107                    108
                      A                      A                      A
 Frequencies --   2968.6466              2972.1234              2989.8674
 Red. masses --      1.1053                 1.0809                 1.0794
 Frc consts  --      5.7393                 5.6259                 5.6851
 IR Inten    --     15.4912                19.8168                 7.6198

                    109                    110                    111
                      A                      A                      A
 Frequencies --   2999.1246              3009.1413              3009.6015
 Red. masses --      1.0610                 1.0621                 1.0632
 Frc consts  --      5.6228                 5.6662                 5.6738
 IR Inten    --      6.2899                36.3239                20.2610

                    112                    113                    114
                      A                      A                      A
 Frequencies --   3011.8273              3021.4638              3024.2731
 Red. masses --      1.0799                 1.0361                 1.0665
 Frc consts  --      5.7718                 5.5731                 5.7474
 IR Inten    --     11.1879                27.9817                27.5251

                    115                    116                    117
                      A                      A                      A
 Frequencies --   3026.6758              3027.0832              3029.1993
 Red. masses --      1.0435                 1.0674                 1.0730
 Frc consts  --      5.6320                 5.7625                 5.8010
 IR Inten    --     24.0326                59.9609                19.5329

                    118                    119                    120
                      A                      A                      A
 Frequencies --   3029.4174              3030.6637              3046.0503
 Red. masses --      1.0437                 1.0761                 1.0955
 Frc consts  --      5.6434                 5.8232                 5.9889
 IR Inten    --     25.6526                31.6423                33.1919

                    121                    122                    123
                      A                      A                      A
 Frequencies --   3050.1509              3052.0383              3069.2850
 Red. masses --      1.1013                 1.0641                 1.0969
 Frc consts  --      6.0366                 5.8397                 6.0880
 IR Inten    --     19.8019                45.2771                29.1531

                    124                    125                    126
                      A                      A                      A
 Frequencies --   3076.1395              3078.4826              3085.5707
 Red. masses --      1.1050                 1.0965                 1.1002
 Frc consts  --      6.1604                 6.1227                 6.1713
 IR Inten    --     67.1304                16.8513                 6.6551

                    127                    128                    129
                      A                      A                      A
 Frequencies --   3088.5701              3091.6358              3096.8556
 Red. masses --      1.1001                 1.0998                 1.1014
 Frc consts  --      6.1833                 6.1935                 6.2235
 IR Inten    --     40.1706                67.3047                43.7040

                    130                    131                    132
                      A                      A                      A
 Frequencies --   3097.0412              3105.2835              3138.9271
 Red. masses --      1.1044                 1.0998                 1.0974
 Frc consts  --      6.2415                 6.2481                 6.3705
 IR Inten    --     72.9433                40.0752                 9.4043

 - Thermochemistry -
 -------------------
 Temperature   298.150 Kelvin.  Pressure   1.00000 Atm.
 Atom     1 has atomic number  6 and mass  12.00000

 Molecular mass:   226.22967 amu.
 Principal axes and moments of inertia in atomic units:
                           1         2         3
     Eigenvalues --  1354.37856********************
           X            1.00000  -0.00095  -0.00114
           Y            0.00095   0.99999  -0.00345
           Z            0.00114   0.00344   0.99999
 This molecule is an asymmetric top.
 Rotational symmetry number  1.
 Warning -- assumption of classical behavior for rotation
           may cause significant error
 Rotational temperatures (Kelvin)      0.06395     0.00650     0.00606
 Rotational constants (GHZ):           1.33252     0.13554     0.12625
 Zero-point vibrational energy    1121622.5 (Joules/Mol)
                                  268.07421 (Kcal/Mol)
 Warning -- explicit consideration of  28 degrees of freedom as
           vibrations may cause significant error
 Vibrational temperatures:     27.46    30.58    45.42    66.76    91.03
          (Kelvin)            102.40   114.10   156.10   172.82   198.84
                              210.22   263.42   275.69   287.43   319.91
                              332.09   354.30   362.28   447.13   476.88
                              500.30   556.41   585.92   606.50   656.90
                              704.07   766.27   837.18   929.75  1066.30
                             1069.00  1124.41  1139.97  1169.84  1190.08
                             1293.48  1307.52  1324.50  1333.15  1358.46
                             1367.91  1372.84  1389.52  1422.83  1436.24
                             1470.51  1483.56  1494.73  1509.85  1513.19
                             1526.87  1553.53  1575.54  1608.02  1638.65
                             1654.24  1663.84  1670.45  1712.53  1718.97
                             1737.93  1745.40  1766.87  1809.89  1816.66
                             1817.62  1843.21  1852.97  1873.09  1878.38
                             1891.94  1906.13  1910.16  1914.99  1929.26
                             1931.27  1947.34  1966.82  1976.50  1994.64
                             2010.44  2012.21  2014.84  2020.39  2025.17
                             2046.32  2089.55  2126.88  2134.16  2142.29
                             2142.40  2143.16  2149.79  2151.29  2155.65
                             2162.87  2165.61  2172.67  2175.92  2180.60
                             2186.86  2205.72  4223.84  4241.80  4266.56
                             4271.22  4276.22  4301.75  4315.07  4329.48
                             4330.15  4333.35  4347.21  4351.25  4354.71
                             4355.30  4358.34  4358.66  4360.45  4382.59
                             4388.49  4391.20  4416.02  4425.88  4429.25
                             4439.45  4443.76  4448.17  4455.68  4455.95
                             4467.81  4516.22

 Zero-point correction=                           0.427203 (Hartree/Particle)
 Thermal correction to Energy=                    0.447146
 Thermal correction to Enthalpy=                  0.448091
 Thermal correction to Gibbs Free Energy=         0.375828
 Sum of electronic and zero-point Energies=           -664.525342
 Sum of electronic and thermal Energies=              -664.505400
 Sum of electronic and thermal Enthalpies=            -664.504455
 Sum of electronic and thermal Free Energies=         -664.576717

                     E (Thermal)             CV                S
                      KCal/Mol        Cal/Mol-Kelvin    Cal/Mol-Kelvin
 Total                  280.589             72.732            152.088
 Electronic               0.000              0.000              0.000
 Translational            0.889              2.981             42.151
 Rotational               0.889              2.981             33.910
 Vibrational            278.811             66.771             76.027
 Vibration     1          0.593              1.986              6.727
 Vibration     2          0.593              1.985              6.514
 Vibration     3          0.594              1.983              5.728
 Vibration     4          0.595              1.979              4.965
 Vibration     5          0.597              1.972              4.353
 Vibration     6          0.598              1.968              4.121
 Vibration     7          0.600              1.963              3.908
 Vibration     8          0.606              1.942              3.296
 Vibration     9          0.609              1.932              3.098
 Vibration    10          0.614              1.915              2.829
 Vibration    11          0.617              1.907              2.722
 Vibration    12          0.631              1.863              2.297
 Vibration    13          0.634              1.851              2.212
 Vibration    14          0.638              1.840              2.135
 Vibration    15          0.648              1.807              1.940
 Vibration    16          0.653              1.794              1.873
 Vibration    17          0.661              1.769              1.757
 Vibration    18          0.664              1.760              1.718
 Vibration    19          0.700              1.653              1.358
 Vibration    20          0.714              1.613              1.253
 Vibration    21          0.725              1.580              1.176
 Vibration    22          0.755              1.499              1.013
 Vibration    23          0.772              1.455              0.936
 Vibration    24          0.784              1.423              0.887
 Vibration    25          0.815              1.346              0.776
 Vibration    26          0.845              1.274              0.685
 Vibration    27          0.888              1.178              0.581
 Vibration    28          0.939              1.071              0.482

 Optimization completed.
    -- Stationary point found.
 Normal termination of Gaussian 16 at Wed May 24 19:10:49 2023.
