 Gaussian 16, Revision A.03,
 Gaussian 16:  ES64L-G16RevA.03 25-Dec-2016

 -----------------------------
 # opt freq b3lyp/6-31g(2df,p)
 -----------------------------

 -------------------
 Title Card Required
 -------------------
 Symbolic Z-matrix:
 Charge =  0 Multiplicity = 1

 SCF Done:  E(RB3LYP) =  -313.126662118     A.U. after   12 cycles
 SCF Done:  E(RB3LYP) =  -313.165205909     A.U. after   11 cycles
 SCF Done:  E(RB3LYP) =  -313.188342964     A.U. after   11 cycles
 SCF Done:  E(RB3LYP) =  -313.213139276     A.U. after   10 cycles
 SCF Done:  E(RB3LYP) =  -313.220658925     A.U. after   10 cycles
 SCF Done:  E(RB3LYP) =  -313.222399369     A.U. after   10 cycles
 SCF Done:  E(RB3LYP) =  -313.222758622     A.U. after    9 cycles
 SCF Done:  E(RB3LYP) =  -313.223165292     A.U. after    9 cycles
 SCF Done:  E(RB3LYP) =  -313.224305580     A.U. after   10 cycles
 SCF Done:  E(RB3LYP) =  -313.224550246     A.U. after   12 cycles
 SCF Done:  E(RB3LYP) =  -313.225874806     A.U. after   10 cycles
 SCF Done:  E(RB3LYP) =  -313.225930008     A.U. after    9 cycles
 SCF Done:  E(RB3LYP) =  -313.225925041     A.U. after    9 cycles
 SCF Done:  E(RB3LYP) =  -313.226017565     A.U. after    9 cycles
 SCF Done:  E(RB3LYP) =  -313.225993196     A.U. after    9 cycles
 SCF Done:  E(RB3LYP) =  -313.226022100     A.U. after    8 cycles
 SCF Done:  E(RB3LYP) =  -313.226022158     A.U. after    6 cycles
 SCF Done:  E(RB3LYP) =  -313.226022404     A.U. after    5 cycles
 SCF Done:  E(RB3LYP) =  -313.226022418     A.U. after    5 cycles
 Optimization completed.
    -- Stationary point found.
 Normal termination of Gaussian 16 at Sun May 28 07:20:03 2023.

 ----------------------------------------------------------------------
 #N Geom=AllCheck Guess=TCheck SCRF=Check GenChk RB3LYP/6-31G(2df,p) Fr
 eq
 ----------------------------------------------------------------------

 Structure from the checkpoint file:  "CCC1C2CC1qCrC2.chk"
 -------------------
 Title Card Required
 -------------------
 Charge =  0 Multiplicity = 1

                         Standard orientation:
 ---------------------------------------------------------------------
 Center     Atomic      Atomic             Coordinates (Angstroms)
 Number     Number       Type             X           Y           Z
 ---------------------------------------------------------------------
      1          6           0       -2.511140    0.219890   -0.525050
      2          6           0       -1.727050    0.080093    0.786054
      3          6           0       -0.239228   -0.292578    0.804011
      4          6           0        0.433003   -1.420418   -0.043513
      5          6           0        1.794922   -0.799767    0.380768
      6          6           0        0.895852    0.411872   -0.026706
      7          6           0        1.272582    1.870552   -0.011456
      8          6           0        0.478952   -0.453043   -1.260597
      9          1           0       -3.556698    0.456087   -0.299791
     10          1           0       -2.505429   -0.704421   -1.110612
     11          1           0       -2.127259    1.025115   -1.158463
     12          1           0       -2.240046   -0.668037    1.406321
     13          1           0       -1.822754    1.022104    1.344459
     14          1           0        0.035965   -0.367009    1.865176
     15          1           0        0.175120   -2.480662   -0.054753
     16          1           0        2.646965   -1.008450   -0.272878
     17          1           0        2.069851   -0.877923    1.437057
     18          1           0        0.440987    2.500706   -0.346597
     19          1           0        2.124621    2.065136   -0.672509
     20          1           0        1.551447    2.195135    0.997529
     21          1           0        1.272323   -0.645529   -1.990332
     22          1           0       -0.452444   -0.211861   -1.765673
 ---------------------------------------------------------------------

 SCF Done:  E(RB3LYP) =  -313.226022418     A.U. after    1 cycles

 The electronic state is 1-A.
 Alpha  occ. eigenvalues --  -10.19666 -10.19013 -10.18248 -10.17745 -10.17620
 Alpha  occ. eigenvalues --  -10.17320 -10.17103 -10.17089  -0.90136  -0.76198
 Alpha  occ. eigenvalues --   -0.71971  -0.67163  -0.65052  -0.59137  -0.58145
 Alpha  occ. eigenvalues --   -0.51143  -0.45427  -0.45007  -0.43989  -0.43252
 Alpha  occ. eigenvalues --   -0.40646  -0.40160  -0.37984  -0.36400  -0.35103
 Alpha  occ. eigenvalues --   -0.33123  -0.30491  -0.29882  -0.29298  -0.28758
 Alpha  occ. eigenvalues --   -0.27972
 Alpha virt. eigenvalues --    0.08448   0.11129   0.12456   0.13117   0.14575
 Alpha virt. eigenvalues --    0.14970   0.15503   0.15765   0.16247   0.16595
 Alpha virt. eigenvalues --    0.17463   0.18191   0.19000   0.19257   0.20002

 Mulliken charges:
               1
     1  C   -0.385947
     2  C   -0.232002
     3  C    0.036185
     4  C   -0.069486
     5  C   -0.248366
     6  C    0.325059
     7  C   -0.516007
     8  C   -0.255937
     9  H    0.106059
    10  H    0.121669
    11  H    0.120614
    12  H    0.098792
    13  H    0.097691
    14  H    0.054958
    15  H    0.062536
    16  H    0.081866
    17  H    0.081675
    18  H    0.116785
    19  H    0.116853
    20  H    0.115590
    21  H    0.078973
    22  H    0.092440
 Sum of Mulliken charges =   0.00000

 Dipole moment (field-independent basis, Debye):
    X=             -0.1793    Y=              0.2331    Z=              0.1063  Tot=              0.3127
 Quadrupole moment (field-independent basis, Debye-Ang):
   XX=            -51.2566   YY=            -51.6569   ZZ=            -51.5000
   XY=              0.2139   XZ=             -0.3262   YZ=             -0.0006

  Exact polarizability:  90.566  -1.165  79.422  -0.831   0.260  78.077
 Approx polarizability: 120.010  -1.073 115.314  -1.431   0.337 118.196

                      1                      2                      3
                      A                      A                      A
 Frequencies --     65.7709               176.7503               194.9714
 Red. masses --      2.3226                 1.9655                 1.0689
 Frc consts  --      0.0059                 0.0362                 0.0239
 IR Inten    --      0.0057                 0.0604                 0.0168

                      4                      5                      6
                      A                      A                      A
 Frequencies --    254.9073               289.3867               317.3579
 Red. masses --      2.7793                 2.1227                 1.3146
 Frc consts  --      0.1064                 0.1047                 0.0780
 IR Inten    --      0.0540                 0.0149                 0.0519

                      7                      8                      9
                      A                      A                      A
 Frequencies --    354.8981               382.8661               543.8025
 Red. masses --      2.5923                 1.8147                 2.2436
 Frc consts  --      0.1924                 0.1567                 0.3909
 IR Inten    --      0.6762                 0.1318                 0.6299

                     10                     11                     12
                      A                      A                      A
 Frequencies --    621.3783               634.6960               731.8209
 Red. masses --      3.0742                 2.1884                 1.9485
 Frc consts  --      0.6994                 0.5194                 0.6148
 IR Inten    --      0.1141                 0.5247                 0.8813

                     13                     14                     15
                      A                      A                      A
 Frequencies --    764.8644               815.7472               817.3200
 Red. masses --      2.1143                 2.5554                 1.9820
 Frc consts  --      0.7287                 1.0019                 0.7801
 IR Inten    --      0.6844                 0.4503                 1.1095

                     16                     17                     18
                      A                      A                      A
 Frequencies --    894.7387               902.6403               930.1852
 Red. masses --      2.6381                 1.9902                 1.9652
 Frc consts  --      1.2443                 0.9554                 1.0019
 IR Inten    --      0.1605                 0.0410                 2.7428

                     19                     20                     21
                      A                      A                      A
 Frequencies --    968.4100              1004.0281              1017.9650
 Red. masses --      2.2464                 1.0915                 1.3625
 Frc consts  --      1.2412                 0.6483                 0.8319
 IR Inten    --      0.8466                 0.4509                 1.3997

                     22                     23                     24
                      A                      A                      A
 Frequencies --   1023.5800              1051.5894              1077.1240
 Red. masses --      1.1573                 1.2300                 1.4535
 Frc consts  --      0.7144                 0.8014                 0.9936
 IR Inten    --      0.9993                 1.0082                 0.8371

                     25                     26                     27
                      A                      A                      A
 Frequencies --   1103.9303              1126.9952              1155.6222
 Red. masses --      2.0441                 1.5205                 1.4822
 Frc consts  --      1.4677                 1.1379                 1.1662
 IR Inten    --      2.4783                 0.3366                 1.1079

                     28                     29                     30
                      A                      A                      A
 Frequencies --   1166.0378              1176.0730              1205.6272
 Red. masses --      2.1428                 1.5977                 1.6479
 Frc consts  --      1.7166                 1.3020                 1.4112
 IR Inten    --      1.6675                 0.1921                 1.1660

                     31                     32                     33
                      A                      A                      A
 Frequencies --   1223.8870              1234.2679              1262.6233
 Red. masses --      1.7988                 1.7199                 2.1513
 Frc consts  --      1.5875                 1.5437                 2.0207
 IR Inten    --      0.4887                 4.1998                 0.8197

                     34                     35                     36
                      A                      A                      A
 Frequencies --   1310.7313              1342.4077              1368.6389
 Red. masses --      1.9480                 1.4936                 1.5362
 Frc consts  --      1.9719                 1.5858                 1.6955
 IR Inten    --     11.8176                10.2995                 2.5733

                     37                     38                     39
                      A                      A                      A
 Frequencies --   1406.0360              1409.0725              1447.5141
 Red. masses --      1.2533                 1.3206                 1.2661
 Frc consts  --      1.4599                 1.5448                 1.5630
 IR Inten    --      1.7391                 2.6743                12.2079

                     40                     41                     42
                      A                      A                      A
 Frequencies --   1479.0968              1489.2228              1491.1505
 Red. masses --      1.0707                 1.0499                 1.0489
 Frc consts  --      1.3802                 1.3718                 1.3741
 IR Inten    --      1.6561                 4.6120                 2.9333

                     43                     44                     45
                      A                      A                      A
 Frequencies --   1499.1261              1505.9337              1513.0368
 Red. masses --      1.0877                 1.0414                 1.0734
 Frc consts  --      1.4402                 1.3915                 1.4479
 IR Inten    --      3.0786                 4.7486                 4.3634

                     46                     47                     48
                      A                      A                      A
 Frequencies --   1550.2302              2991.8606              3010.7693
 Red. masses --      1.1708                 1.0724                 1.0707
 Frc consts  --      1.6577                 5.6555                 5.7186
 IR Inten    --      3.6308                 9.4389                74.7949

                     49                     50                     51
                      A                      A                      A
 Frequencies --   3021.7365              3028.2887              3033.9675
 Red. masses --      1.0358                 1.1001                 1.0357
 Frc consts  --      5.5722                 5.9438                 5.6173
 IR Inten    --     28.6737                24.3286                22.0454

                     52                     53                     54
                      A                      A                      A
 Frequencies --   3039.1393              3052.5252              3087.8544
 Red. masses --      1.0545                 1.0671                 1.1006
 Frc consts  --      5.7383                 5.8584                 6.1831
 IR Inten    --     55.8468                45.4139                24.6689

                     55                     56                     57
                      A                      A                      A
 Frequencies --   3089.0056              3094.0243              3096.4116
 Red. masses --      1.1008                 1.1004                 1.0918
 Frc consts  --      6.1889                 6.2063                 6.1676
 IR Inten    --     18.0475                43.6576                60.3015

                     58                     59                     60
                      A                      A                      A
 Frequencies --   3104.3602              3109.8147              3173.0086
 Red. masses --      1.1101                 1.1022                 1.0941
 Frc consts  --      6.3032                 6.2802                 6.4900
 IR Inten    --     57.4554                35.6358                24.7062

 - Thermochemistry -
 -------------------
 Temperature   298.150 Kelvin.  Pressure   1.00000 Atm.
 Atom     1 has atomic number  6 and mass  12.00000

 Molecular mass:   110.10955 amu.
 Principal axes and moments of inertia in atomic units:
                           1         2         3
     Eigenvalues --   598.254611062.360641230.72941
           X            0.99996   0.00598   0.00710
           Y           -0.00598   0.99998  -0.00119
           Z           -0.00710   0.00115   0.99997
 This molecule is an asymmetric top.
 Rotational symmetry number  1.
 Warning -- assumption of classical behavior for rotation
           may cause significant error
 Rotational temperatures (Kelvin)      0.14478     0.08153     0.07038
 Rotational constants (GHZ):           3.01668     1.69880     1.46640
 Zero-point vibrational energy     527773.4 (Joules/Mol)
                                  126.14088 (Kcal/Mol)
 Warning -- explicit consideration of   9 degrees of freedom as
           vibrations may cause significant error
 Vibrational temperatures:     94.63   254.30   280.52   366.75   416.36
          (Kelvin)            456.61   510.62   550.86   782.41   894.02
                              913.19  1052.93  1100.47  1173.68  1175.94
                             1287.33  1298.70  1338.33  1393.33  1444.57
                             1464.62  1472.70  1513.00  1549.74  1588.31
                             1621.49  1662.68  1677.67  1692.11  1734.63
                             1760.90  1775.84  1816.63  1885.85  1931.43
                             1969.17  2022.97  2027.34  2082.65  2128.09
                             2142.66  2145.43  2156.91  2166.70  2176.92
                             2230.44  4304.62  4331.83  4347.60  4357.03
                             4365.20  4372.64  4391.90  4442.73  4444.39
                             4451.61  4455.05  4466.48  4474.33  4565.25

 Zero-point correction=                           0.201018 (Hartree/Particle)
 Thermal correction to Energy=                    0.209242
 Thermal correction to Enthalpy=                  0.210187
 Thermal correction to Gibbs Free Energy=         0.168646
 Sum of electronic and zero-point Energies=           -313.025004
 Sum of electronic and thermal Energies=              -313.016780
 Sum of electronic and thermal Enthalpies=            -313.015836
 Sum of electronic and thermal Free Energies=         -313.057377

                     E (Thermal)             CV                S
                      KCal/Mol        Cal/Mol-Kelvin    Cal/Mol-Kelvin
 Total                  131.302             32.388             87.430
 Electronic               0.000              0.000              0.000
 Translational            0.889              2.981             40.005
 Rotational               0.889              2.981             28.150
 Vibrational            129.524             26.427             19.276
 Vibration     1          0.597              1.971              4.276
 Vibration     2          0.628              1.871              2.362
 Vibration     3          0.636              1.847              2.180
 Vibration     4          0.665              1.755              1.696
 Vibration     5          0.686              1.693              1.478
 Vibration     6          0.704              1.640              1.324
 Vibration     7          0.731              1.565              1.144
 Vibration     8          0.752              1.507              1.028
 Vibration     9          0.899              1.153              0.557

 Optimization completed.
    -- Stationary point found.
 Normal termination of Gaussian 16 at Sun May 28 07:50:05 2023.
