 Gaussian 16, Revision A.03,
 Gaussian 16:  ES64L-G16RevA.03 25-Dec-2016

 -----------------------------
 # opt freq b3lyp/6-31g(2df,p)
 -----------------------------

 -------------------
 Title Card Required
 -------------------
 Symbolic Z-matrix:
 Charge =  0 Multiplicity = 1

 SCF Done:  E(RB3LYP) =  -507.666209258     A.U. after   12 cycles
 SCF Done:  E(RB3LYP) =  -507.671605762     A.U. after   10 cycles
 SCF Done:  E(RB3LYP) =  -507.672970527     A.U. after   10 cycles
 SCF Done:  E(RB3LYP) =  -507.673234533     A.U. after   10 cycles
 SCF Done:  E(RB3LYP) =  -507.673401799     A.U. after    9 cycles
 SCF Done:  E(RB3LYP) =  -507.673460021     A.U. after    8 cycles
 SCF Done:  E(RB3LYP) =  -507.673467392     A.U. after    7 cycles
 SCF Done:  E(RB3LYP) =  -507.673468482     A.U. after    7 cycles
 SCF Done:  E(RB3LYP) =  -507.673468709     A.U. after    6 cycles
 SCF Done:  E(RB3LYP) =  -507.673468750     A.U. after    6 cycles
 Optimization completed.
    -- Stationary point found.
 Normal termination of Gaussian 16 at Tue May 23 00:20:24 2023.

 ----------------------------------------------------------------------
 #N Geom=AllCheck Guess=TCheck SCRF=Check GenChk RB3LYP/6-31G(2df,p) Fr
 eq
 ----------------------------------------------------------------------

 Structure from the checkpoint file:  "CCC1CCCCqOCrCqCrC1.chk"
 -------------------
 Title Card Required
 -------------------
 Charge =  0 Multiplicity = 1

                         Standard orientation:
 ---------------------------------------------------------------------
 Center     Atomic      Atomic             Coordinates (Angstroms)
 Number     Number       Type             X           Y           Z
 ---------------------------------------------------------------------
      1          6           0        3.762376   -0.324105   -1.041976
      2          6           0        3.138819   -0.622915    0.327740
      3          6           0        1.657279   -0.215755    0.513192
      4          6           0        1.496749    1.314197    0.509103
      5          6           0        0.074101    1.855485    0.716298
      6          6           0       -0.860203    1.608639   -0.477837
      7          6           0       -1.549933    0.237574   -0.626250
      8          8           0       -2.817650    0.341048    0.023440
      9          6           0       -3.805003   -0.527121   -0.477950
     10          6           0       -0.766892   -1.023892   -0.155724
     11          6           0       -1.044956   -1.414879    1.306332
     12          6           0        0.745796   -0.962398   -0.485200
     13          1           0        4.807630   -0.648633   -1.064277
     14          1           0        3.749233    0.744910   -1.276000
     15          1           0        3.241210   -0.847583   -1.849685
     16          1           0        3.733375   -0.124980    1.104770
     17          1           0        3.226022   -1.699257    0.525180
     18          1           0        1.386131   -0.561473    1.518819
     19          1           0        1.873148    1.720224   -0.440093
     20          1           0        2.150091    1.723911    1.290552
     21          1           0        0.150330    2.940249    0.859660
     22          1           0       -0.363440    1.466020    1.642265
     23          1           0       -0.289977    1.806026   -1.394369
     24          1           0       -1.675933    2.338189   -0.466395
     25          1           0       -1.739677    0.108569   -1.705518
     26          1           0       -4.741555   -0.279553    0.029301
     27          1           0       -3.580623   -1.588029   -0.290849
     28          1           0       -3.945542   -0.395455   -1.562876
     29          1           0       -1.157129   -1.851380   -0.763597
     30          1           0       -0.805991   -0.619953    2.015404
     31          1           0       -0.449044   -2.293730    1.577547
     32          1           0       -2.096797   -1.666834    1.453420
     33          1           0        0.875694   -0.550267   -1.494725
     34          1           0        1.105249   -1.998346   -0.542430
 ---------------------------------------------------------------------

 SCF Done:  E(RB3LYP) =  -507.673468750     A.U. after    1 cycles

 The electronic state is 1-A.
 Alpha  occ. eigenvalues --  -19.13001 -10.22238 -10.21864 -10.18085 -10.17670
 Alpha  occ. eigenvalues --  -10.17363 -10.17354 -10.17166 -10.17001 -10.16998
 Alpha  occ. eigenvalues --  -10.16845 -10.16473  -1.02201  -0.82429  -0.77816
 Alpha  occ. eigenvalues --   -0.76568  -0.72602  -0.69151  -0.67180  -0.63640
 Alpha  occ. eigenvalues --   -0.62753  -0.58898  -0.54212  -0.52222  -0.48046
 Alpha  occ. eigenvalues --   -0.47867  -0.47107  -0.44528  -0.43801  -0.43276
 Alpha  occ. eigenvalues --   -0.41531  -0.40786  -0.39942  -0.39064  -0.38271
 Alpha  occ. eigenvalues --   -0.37410  -0.36542  -0.35577  -0.34461  -0.34061
 Alpha  occ. eigenvalues --   -0.33952  -0.31758  -0.30881  -0.30284  -0.29871
 Alpha  occ. eigenvalues --   -0.29674  -0.28407  -0.24274
 Alpha virt. eigenvalues --    0.07152   0.09266   0.09745   0.10996   0.11709
 Alpha virt. eigenvalues --    0.12608   0.13187   0.14280   0.15261   0.15541
 Alpha virt. eigenvalues --    0.16149   0.16465   0.16953   0.17438   0.17754

 Mulliken charges:
               1
     1  C   -0.375920
     2  C   -0.194521
     3  C    0.044709
     4  C   -0.186243
     5  C   -0.216264
     6  C   -0.210617
     7  C    0.121239
     8  O   -0.242107
     9  C   -0.238068
    10  C   -0.012705
    11  C   -0.392822
    12  C   -0.224909
    13  H    0.110183
    14  H    0.116717
    15  H    0.115985
    16  H    0.087890
    17  H    0.087569
    18  H    0.070016
    19  H    0.089700
    20  H    0.084900
    21  H    0.090544
    22  H    0.104127
    23  H    0.089508
    24  H    0.104351
    25  H    0.058611
    26  H    0.123125
    27  H    0.102895
    28  H    0.100889
    29  H    0.067527
    30  H    0.125513
    31  H    0.103508
    32  H    0.117179
    33  H    0.089618
    34  H    0.087876
 Sum of Mulliken charges =  -0.00000

 Dipole moment (field-independent basis, Debye):
    X=              0.1809    Y=             -0.6343    Z=             -0.6604  Tot=              0.9334
 Quadrupole moment (field-independent basis, Debye-Ang):
   XX=            -77.3013   YY=            -77.2792   ZZ=            -77.6010
   XY=              2.5571   XZ=              2.3167   YZ=              0.0323

  Exact polarizability: 143.191   1.491 114.618   0.590  -0.275 105.880
 Approx polarizability: 173.519   1.690 166.875  -0.493   0.579 165.902

                      1                      2                      3
                      A                      A                      A
 Frequencies --     36.2158                85.0561                86.5203
 Red. masses --      3.0937                 2.7817                 2.0317
 Frc consts  --      0.0024                 0.0119                 0.0090
 IR Inten    --      0.4330                 0.0700                 0.0235

                      4                      5                      6
                      A                      A                      A
 Frequencies --    121.7753               177.4898               189.3864
 Red. masses --      2.3566                 1.2829                 2.3418
 Frc consts  --      0.0206                 0.0238                 0.0495
 IR Inten    --      1.9227                 0.0024                 0.2731

                      7                      8                      9
                      A                      A                      A
 Frequencies --    201.3663               220.8503               237.0623
 Red. masses --      1.4490                 1.0947                 2.0353
 Frc consts  --      0.0346                 0.0315                 0.0674
 IR Inten    --      0.2089                 0.1498                 0.3148

                     10                     11                     12
                      A                      A                      A
 Frequencies --    269.8943               284.1414               290.9801
 Red. masses --      2.4703                 2.6979                 2.7645
 Frc consts  --      0.1060                 0.1283                 0.1379
 IR Inten    --      1.3345                 2.2156                 1.6549

                     13                     14                     15
                      A                      A                      A
 Frequencies --    316.6228               337.6125               348.4423
 Red. masses --      2.4465                 2.6047                 2.1714
 Frc consts  --      0.1445                 0.1749                 0.1553
 IR Inten    --      1.1708                 0.7594                 0.6544

                     16                     17                     18
                      A                      A                      A
 Frequencies --    380.5453               457.9652               482.6551
 Red. masses --      2.0365                 1.7397                 2.6830
 Frc consts  --      0.1738                 0.2150                 0.3682
 IR Inten    --      0.7565                 1.3934                 1.8317

                     19                     20                     21
                      A                      A                      A
 Frequencies --    507.8183               597.5362               647.3655
 Red. masses --      2.9999                 3.0473                 2.3418
 Frc consts  --      0.4558                 0.6411                 0.5782
 IR Inten    --      0.6050                 2.1811                 0.5300

                     22                     23                     24
                      A                      A                      A
 Frequencies --    760.7890               777.9330               810.3907
 Red. masses --      2.4925                 1.4004                 2.0792
 Frc consts  --      0.8500                 0.4993                 0.8045
 IR Inten    --      1.1125                 0.6175                 3.4535

                     25                     26                     27
                      A                      A                      A
 Frequencies --    822.5916               848.7829               874.3175
 Red. masses --      1.7217                 2.5691                 1.9405
 Frc consts  --      0.6864                 1.0905                 0.8740
 IR Inten    --      1.5285                 2.1141                 2.8595

                     28                     29                     30
                      A                      A                      A
 Frequencies --    882.9407               935.1725               968.1038
 Red. masses --      2.2502                 2.0781                 1.9813
 Frc consts  --      1.0336                 1.0708                 1.0941
 IR Inten    --      0.9029                 7.5213                 1.7068

                     31                     32                     33
                      A                      A                      A
 Frequencies --    982.6236               990.6606              1030.1683
 Red. masses --      2.2583                 1.8381                 1.6090
 Frc consts  --      1.2847                 1.0629                 1.0061
 IR Inten    --      5.6935                16.5829                 2.5411

                     34                     35                     36
                      A                      A                      A
 Frequencies --   1041.4869              1058.2736              1070.6911
 Red. masses --      1.6630                 1.5400                 1.7879
 Frc consts  --      1.0628                 1.0162                 1.2076
 IR Inten    --      1.2477                 0.6510                 0.2809

                     37                     38                     39
                      A                      A                      A
 Frequencies --   1090.0945              1114.4054              1130.7378
 Red. masses --      2.3998                 2.0547                 3.4067
 Frc consts  --      1.6802                 1.5034                 2.5663
 IR Inten    --      0.8013                 4.4915                89.4526

                     40                     41                     42
                      A                      A                      A
 Frequencies --   1143.4556              1160.7516              1173.7255
 Red. masses --      2.9545                 1.5466                 1.9925
 Frc consts  --      2.2760                 1.2277                 1.6172
 IR Inten    --     79.1381                 1.2001                 0.7607

                     43                     44                     45
                      A                      A                      A
 Frequencies --   1185.1067              1211.3769              1226.6348
 Red. masses --      1.3235                 1.7308                 1.5551
 Frc consts  --      1.0952                 1.4964                 1.3786
 IR Inten    --      5.9658                 0.8052                19.0940

                     46                     47                     48
                      A                      A                      A
 Frequencies --   1241.5762              1272.9397              1287.7203
 Red. masses --      1.3116                 1.1954                 1.3585
 Frc consts  --      1.1912                 1.1413                 1.3272
 IR Inten    --     11.7020                 2.9623                 0.3932

                     49                     50                     51
                      A                      A                      A
 Frequencies --   1305.7976              1321.8746              1330.4291
 Red. masses --      1.2140                 1.1388                 1.3810
 Frc consts  --      1.2196                 1.1724                 1.4402
 IR Inten    --      1.2764                 1.2809                 2.3742

                     52                     53                     54
                      A                      A                      A
 Frequencies --   1351.5781              1365.4684              1370.4295
 Red. masses --      1.3338                 1.2805                 1.3126
 Frc consts  --      1.4356                 1.4067                 1.4525
 IR Inten    --      6.2109                 1.0279                15.9664

                     55                     56                     57
                      A                      A                      A
 Frequencies --   1376.4638              1381.4726              1399.1854
 Red. masses --      1.3859                 1.2915                 1.3324
 Frc consts  --      1.5471                 1.4522                 1.5369
 IR Inten    --      1.5380                 3.5168                 3.6632

                     58                     59                     60
                      A                      A                      A
 Frequencies --   1404.9685              1408.9027              1410.7312
 Red. masses --      1.4232                 1.3804                 1.2918
 Frc consts  --      1.6552                 1.6144                 1.5148
 IR Inten    --      4.5807                 2.7144                 1.8602

                     61                     62                     63
                      A                      A                      A
 Frequencies --   1417.6273              1422.4100              1473.5954
 Red. masses --      1.3221                 1.3191                 1.0915
 Frc consts  --      1.5655                 1.5725                 1.3964
 IR Inten    --      8.1057                 5.8663                 5.5864

                     64                     65                     66
                      A                      A                      A
 Frequencies --   1477.7542              1481.8686              1484.4060
 Red. masses --      1.1062                 1.0782                 1.0730
 Frc consts  --      1.4233                 1.3950                 1.3931
 IR Inten    --      1.4650                 1.0921                 2.4229

                     67                     68                     69
                      A                      A                      A
 Frequencies --   1487.4467              1489.9736              1496.4249
 Red. masses --      1.0772                 1.0796                 1.0815
 Frc consts  --      1.4042                 1.4122                 1.4269
 IR Inten    --      3.5283                 3.7401                 1.0242

                     70                     71                     72
                      A                      A                      A
 Frequencies --   1500.6790              1503.0857              1504.6600
 Red. masses --      1.0593                 1.0591                 1.0453
 Frc consts  --      1.4056                 1.4098                 1.3943
 IR Inten    --      4.5845                 9.4705                 1.6103

                     73                     74                     75
                      A                      A                      A
 Frequencies --   1508.6470              1514.9984              2939.3636
 Red. masses --      1.0647                 1.0669                 1.0823
 Frc consts  --      1.4277                 1.4427                 5.5092
 IR Inten    --      6.3842                 0.6911                27.8931

                     76                     77                     78
                      A                      A                      A
 Frequencies --   2970.3893              2994.2044              3002.6835
 Red. masses --      1.0388                 1.0765                 1.0617
 Frc consts  --      5.4004                 5.6861                 5.6398
 IR Inten    --     54.9389                29.1552                12.3263

                     79                     80                     81
                      A                      A                      A
 Frequencies --   3008.0163              3013.8221              3016.9756
 Red. masses --      1.0667                 1.0694                 1.0939
 Frc consts  --      5.6869                 5.7229                 5.8662
 IR Inten    --     45.9479                26.7200                65.3776

                     82                     83                     84
                      A                      A                      A
 Frequencies --   3020.3110              3025.2347              3028.6758
 Red. masses --      1.0778                 1.0679                 1.0689
 Frc consts  --      5.7930                 5.7581                 5.7767
 IR Inten    --     23.3295                19.1637                14.7005

                     85                     86                     87
                      A                      A                      A
 Frequencies --   3037.6384              3038.9956              3042.1780
 Red. masses --      1.0564                 1.0801                 1.0466
 Frc consts  --      5.7430                 5.8770                 5.7069
 IR Inten    --     11.5851                12.1424                 5.3149

                     88                     89                     90
                      A                      A                      A
 Frequencies --   3046.2460              3049.1137              3070.9408
 Red. masses --      1.1008                 1.0921                 1.0962
 Frc consts  --      6.0188                 5.9822                 6.0908
 IR Inten    --     59.8560                77.5165                62.1687

                     91                     92                     93
                      A                      A                      A
 Frequencies --   3078.9542              3100.7680              3103.3207
 Red. masses --      1.0967                 1.1005                 1.0960
 Frc consts  --      6.1257                 6.2340                 6.2188
 IR Inten    --     32.3417                42.6443                34.3537

                     94                     95                     96
                      A                      A                      A
 Frequencies --   3107.9180              3113.2179              3133.9148
 Red. masses --      1.1012                 1.0923                 1.1003
 Frc consts  --      6.2672                 6.2377                 6.3668
 IR Inten    --     39.2435                25.1885                29.7129

 - Thermochemistry -
 -------------------
 Temperature   298.150 Kelvin.  Pressure   1.00000 Atm.
 Atom     1 has atomic number  6 and mass  12.00000

 Molecular mass:   170.16707 amu.
 Principal axes and moments of inertia in atomic units:
                           1         2         3
     Eigenvalues --  1064.906123418.702683801.92351
           X            0.99996   0.00808  -0.00226
           Y           -0.00809   0.99994  -0.00801
           Z            0.00219   0.00802   0.99997
 This molecule is an asymmetric top.
 Rotational symmetry number  1.
 Warning -- assumption of classical behavior for rotation
           may cause significant error
 Rotational temperatures (Kelvin)      0.08133     0.02534     0.02278
 Rotational constants (GHZ):           1.69474     0.52790     0.47469
 Zero-point vibrational energy     828441.0 (Joules/Mol)
                                  198.00214 (Kcal/Mol)
 Warning -- explicit consideration of  20 degrees of freedom as
           vibrations may cause significant error
 Vibrational temperatures:     52.11   122.38   124.48   175.21   255.37
          (Kelvin)            272.48   289.72   317.75   341.08   388.32
                              408.82   418.66   455.55   485.75   501.33
                              547.52   658.91   694.43   730.64   859.72
                              931.41  1094.61  1119.27  1165.97  1183.53
                             1221.21  1257.95  1270.35  1345.50  1392.89
                             1413.78  1425.34  1482.18  1498.47  1522.62
                             1540.49  1568.40  1603.38  1626.88  1645.18
                             1670.06  1688.73  1705.10  1742.90  1764.85
                             1786.35  1831.48  1852.74  1878.75  1901.88
                             1914.19  1944.62  1964.60  1971.74  1980.42
                             1987.63  2013.12  2021.44  2027.10  2029.73
                             2039.65  2046.53  2120.18  2126.16  2132.08
                             2135.73  2140.10  2143.74  2153.02  2159.14
                             2162.61  2164.87  2170.61  2179.74  4229.09
                             4273.73  4307.99  4320.19  4327.86  4336.22
                             4340.75  4345.55  4352.64  4357.59  4370.48
                             4372.44  4377.02  4382.87  4386.99  4418.40
                             4429.93  4461.31  4464.99  4471.60  4479.23
                             4509.00

 Zero-point correction=                           0.315536 (Hartree/Particle)
 Thermal correction to Energy=                    0.329214
 Thermal correction to Enthalpy=                  0.330158
 Thermal correction to Gibbs Free Energy=         0.275928
 Sum of electronic and zero-point Energies=           -507.357932
 Sum of electronic and thermal Energies=              -507.344255
 Sum of electronic and thermal Enthalpies=            -507.343311
 Sum of electronic and thermal Free Energies=         -507.397540

                     E (Thermal)             CV                S
                      KCal/Mol        Cal/Mol-Kelvin    Cal/Mol-Kelvin
 Total                  206.585             52.626            114.136
 Electronic               0.000              0.000              0.000
 Translational            0.889              2.981             41.303
 Rotational               0.889              2.981             31.004
 Vibrational            204.807             46.665             41.829
 Vibration     1          0.594              1.982              5.456
 Vibration     2          0.601              1.960              3.771
 Vibration     3          0.601              1.959              3.737
 Vibration     4          0.609              1.931              3.072
 Vibration     5          0.628              1.870              2.355
 Vibration     6          0.633              1.854              2.234
 Vibration     7          0.638              1.838              2.121
 Vibration     8          0.648              1.809              1.952
 Vibration     9          0.656              1.784              1.825
 Vibration    10          0.674              1.729              1.597
 Vibration    11          0.683              1.703              1.509
 Vibration    12          0.687              1.691              1.468
 Vibration    13          0.704              1.642              1.327
 Vibration    14          0.718              1.600              1.223
 Vibration    15          0.726              1.578              1.173
 Vibration    16          0.750              1.512              1.037
 Vibration    17          0.816              1.343              0.772
 Vibration    18          0.839              1.289              0.703
 Vibration    19          0.863              1.233              0.639
 Vibration    20          0.955              1.037              0.454

                           ! Non-Optimized Parameters !
 Normal termination of Gaussian 16 at Tue May 23 02:15:31 2023.
