 Gaussian 16, Revision A.03,
 Gaussian 16:  ES64L-G16RevA.03 25-Dec-2016

 -----------------------------
 # opt freq b3lyp/6-31g(2df,p)
 -----------------------------

 -------------------
 Title Card Required
 -------------------
 Symbolic Z-matrix:
 Charge =  0 Multiplicity = 1

 SCF Done:  E(RB3LYP) =  -756.117227550     A.U. after   12 cycles
 SCF Done:  E(RB3LYP) =  -756.135996553     A.U. after   11 cycles
 SCF Done:  E(RB3LYP) =  -756.151901671     A.U. after   10 cycles
 SCF Done:  E(RB3LYP) =  -756.158614852     A.U. after   11 cycles
 SCF Done:  E(RB3LYP) =  -756.159892307     A.U. after   11 cycles
 SCF Done:  E(RB3LYP) =  -756.162763899     A.U. after   10 cycles
 SCF Done:  E(RB3LYP) =  -756.165807763     A.U. after   11 cycles
 SCF Done:  E(RB3LYP) =  -756.170508602     A.U. after   11 cycles
 SCF Done:  E(RB3LYP) =  -756.148752279     A.U. after   13 cycles
 SCF Done:  E(RB3LYP) =  -756.172481522     A.U. after   11 cycles
 SCF Done:  E(RB3LYP) =  -756.180462966     A.U. after   10 cycles
 SCF Done:  E(RB3LYP) =  -756.180569222     A.U. after    9 cycles
 SCF Done:  E(RB3LYP) =  -756.180604014     A.U. after    9 cycles
 SCF Done:  E(RB3LYP) =  -756.180608447     A.U. after    7 cycles
 SCF Done:  E(RB3LYP) =  -756.180609332     A.U. after    7 cycles
 SCF Done:  E(RB3LYP) =  -756.180609590     A.U. after    7 cycles
 SCF Done:  E(RB3LYP) =  -756.180609750     A.U. after    7 cycles
 SCF Done:  E(RB3LYP) =  -756.180609808     A.U. after    6 cycles
 SCF Done:  E(RB3LYP) =  -756.180609838     A.U. after    6 cycles
 Optimization completed.
    -- Stationary point found.
 Normal termination of Gaussian 16 at Mon May 22 13:31:45 2023.

 ----------------------------------------------------------------------
 #N Geom=AllCheck Guess=TCheck SCRF=Check GenChk RB3LYP/6-31G(2df,p) Fr
 eq
 ----------------------------------------------------------------------

 Structure from the checkpoint file:  "CCC1CCqCrN1CCqCOrCCCCCO.chk"
 -------------------
 Title Card Required
 -------------------
 Charge =  0 Multiplicity = 1

                         Standard orientation:
 ---------------------------------------------------------------------
 Center     Atomic      Atomic             Coordinates (Angstroms)
 Number     Number       Type             X           Y           Z
 ---------------------------------------------------------------------
      1          6           0       -4.643299    1.973473    0.169104
      2          6           0       -4.380949    0.948224    1.276263
      3          6           0       -3.749083   -0.371501    0.832798
      4          6           0       -4.360233   -1.216012   -0.315293
      5          6           0       -2.906992   -1.436350   -0.813446
      6          6           0       -2.326357   -2.805392   -0.464958
      7          7           0       -2.494756   -0.283613    0.047383
      8          6           0       -1.211687   -0.252453    0.741071
      9          6           0       -0.034516    0.153521   -0.168593
     10          6           0       -0.263727    1.554053   -0.768703
     11          8           0       -1.377273    1.615113   -1.635469
     12          6           0        1.284968    0.072267    0.620740
     13          6           0        2.557845    0.129299   -0.233803
     14          6           0        3.839822   -0.025513    0.592634
     15          6           0        5.117859    0.032471   -0.250707
     16          6           0        6.391176   -0.141444    0.577514
     17          8           0        7.577494   -0.027885   -0.193004
     18          1           0       -5.082579    2.882838    0.590590
     19          1           0       -5.343256    1.593121   -0.581855
     20          1           0       -3.721185    2.256077   -0.345638
     21          1           0       -5.319116    0.706722    1.793664
     22          1           0       -3.731451    1.398547    2.039203
     23          1           0       -3.611862   -1.001416    1.728182
     24          1           0       -4.963094   -0.628536   -1.009329
     25          1           0       -4.913661   -2.109943   -0.022794
     26          1           0       -2.733207   -1.230241   -1.875485
     27          1           0       -2.500926   -3.073384    0.582354
     28          1           0       -1.249030   -2.851441   -0.653566
     29          1           0       -2.803888   -3.568792   -1.088032
     30          1           0       -0.986668   -1.215137    1.232280
     31          1           0       -1.303294    0.489254    1.546452
     32          1           0        0.014833   -0.556961   -1.006670
     33          1           0        0.609375    1.863833   -1.353330
     34          1           0       -0.359423    2.275227    0.065157
     35          1           0       -2.070961    1.096351   -1.185501
     36          1           0        1.294881   -0.863544    1.196284
     37          1           0        1.309749    0.880314    1.366385
     38          1           0        2.603059    1.075761   -0.786005
     39          1           0        2.518244   -0.663366   -0.993748
     40          1           0        3.805161   -0.977470    1.141024
     41          1           0        3.874618    0.761992    1.358271
     42          1           0        5.177322    0.988800   -0.784807
     43          1           0        5.083109   -0.751974   -1.021538
     44          1           0        6.357143   -1.101283    1.119703
     45          1           0        6.456521    0.648743    1.334109
     46          1           0        7.562157   -0.724500   -0.856981
 ---------------------------------------------------------------------

 SCF Done:  E(RB3LYP) =  -756.180609838     A.U. after    1 cycles

 The electronic state is 1-A.
 Alpha  occ. eigenvalues --  -19.12933 -19.10162 -14.32487 -10.22204 -10.21750
 Alpha  occ. eigenvalues --  -10.21490 -10.20953 -10.20688 -10.18455 -10.18265
 Alpha  occ. eigenvalues --  -10.18224 -10.18210 -10.18202 -10.18102 -10.18010
 Alpha  occ. eigenvalues --  -10.17858 -10.16900  -1.01023  -0.98863  -0.94269
 Alpha  occ. eigenvalues --   -0.81697  -0.79259  -0.77309  -0.75824  -0.72571
 Alpha  occ. eigenvalues --   -0.70931  -0.65829  -0.65598  -0.64573  -0.60795
 Alpha  occ. eigenvalues --   -0.59233  -0.58181  -0.56437  -0.52636  -0.50569
 Alpha  occ. eigenvalues --   -0.49922  -0.48636  -0.48030  -0.47024  -0.46337
 Alpha  occ. eigenvalues --   -0.43845  -0.43703  -0.43072  -0.42660  -0.41856
 Alpha  occ. eigenvalues --   -0.40612  -0.39993  -0.39503  -0.39135  -0.38412
 Alpha  occ. eigenvalues --   -0.37251  -0.36837  -0.36459  -0.36024  -0.35751
 Alpha  occ. eigenvalues --   -0.34685  -0.34227  -0.33636  -0.33431  -0.32684
 Alpha  occ. eigenvalues --   -0.32349  -0.31830  -0.30316  -0.30145  -0.29890
 Alpha  occ. eigenvalues --   -0.26069  -0.24156  -0.22032
 Alpha virt. eigenvalues --    0.07184   0.07915   0.08447   0.08911   0.09699
 Alpha virt. eigenvalues --    0.09946   0.11138   0.11417   0.11706   0.12579
 Alpha virt. eigenvalues --    0.13235   0.13340   0.14315   0.14802   0.15215

 Mulliken charges:
               1
     1  C   -0.391972
     2  C   -0.211533
     3  C    0.071768
     4  C   -0.280953
     5  C    0.052026
     6  C   -0.410713
     7  N   -0.108917
     8  C   -0.171121
     9  C   -0.042145
    10  C   -0.050007
    11  O   -0.445157
    12  C   -0.194052
    13  C   -0.191363
    14  C   -0.181480
    15  C   -0.200305
    16  C   -0.056142
    17  O   -0.418868
    18  H    0.111416
    19  H    0.114662
    20  H    0.143261
    21  H    0.098147
    22  H    0.098406
    23  H    0.056626
    24  H    0.111400
    25  H    0.100738
    26  H    0.083726
    27  H    0.119472
    28  H    0.122726
    29  H    0.120793
    30  H    0.081005
    31  H    0.101711
    32  H    0.076893
    33  H    0.096265
    34  H    0.069289
    35  H    0.293485
    36  H    0.088953
    37  H    0.093756
    38  H    0.104920
    39  H    0.093388
    40  H    0.092211
    41  H    0.096968
    42  H    0.106675
    43  H    0.082942
    44  H    0.082406
    45  H    0.109859
    46  H    0.278834
 Sum of Mulliken charges =  -0.00000

 Dipole moment (field-independent basis, Debye):
    X=             -1.6707    Y=             -3.0694    Z=              1.6082  Tot=              3.8469
 Quadrupole moment (field-independent basis, Debye-Ang):
   XX=           -119.3951   YY=           -108.4692   ZZ=           -110.5186
   XY=             -2.8053   XZ=             -6.3484   YZ=              6.0942

  Exact polarizability: 205.682  -1.271 156.891  -2.539   3.093 144.165
 Approx polarizability: 235.530   1.919 228.730  -1.740   3.454 228.914

                      1                      2                      3
                      A                      A                      A
 Frequencies --     22.1130                31.7973                37.1332
 Red. masses --      4.2252                 1.6693                 4.4451
 Frc consts  --      0.0012                 0.0010                 0.0036
 IR Inten    --      0.0882                 1.6881                 0.4165

                      4                      5                      6
                      A                      A                      A
 Frequencies --     57.6750                61.7869                85.0859
 Red. masses --      3.6572                 4.4420                 2.5109
 Frc consts  --      0.0072                 0.0100                 0.0107
 IR Inten    --      0.1242                 2.5685                 0.3874

                      7                      8                      9
                      A                      A                      A
 Frequencies --    101.9071               102.8484               115.0587
 Red. masses --      2.4842                 2.2179                 3.0702
 Frc consts  --      0.0152                 0.0138                 0.0239
 IR Inten    --      0.7870                 0.0925                 1.8906

                     10                     11                     12
                      A                      A                      A
 Frequencies --    122.7473               144.9379               160.0929
 Red. masses --      2.4309                 3.3533                 2.5060
 Frc consts  --      0.0216                 0.0415                 0.0378
 IR Inten    --      0.8390                 2.7713                 0.0963

                     13                     14                     15
                      A                      A                      A
 Frequencies --    166.9286               202.7350               218.6132
 Red. masses --      2.5815                 2.7380                 2.7790
 Frc consts  --      0.0424                 0.0663                 0.0782
 IR Inten    --      0.7159                 1.4020                 1.9202

                     16                     17                     18
                      A                      A                      A
 Frequencies --    234.5005               261.8315               266.1257
 Red. masses --      1.8387                 1.5919                 1.3695
 Frc consts  --      0.0596                 0.0643                 0.0571
 IR Inten    --      1.9850                 1.3564                 1.5201

                     19                     20                     21
                      A                      A                      A
 Frequencies --    275.8690               299.4520               302.6917
 Red. masses --      1.9759                 1.3275                 2.4674
 Frc consts  --      0.0886                 0.0701                 0.1332
 IR Inten    --      1.3332                72.1055                 2.3428

                     22                     23                     24
                      A                      A                      A
 Frequencies --    324.6597               368.1463               398.6795
 Red. masses --      2.7148                 2.6898                 1.9629
 Frc consts  --      0.1686                 0.2148                 0.1838
 IR Inten    --     37.8274                 1.9949                 0.7440

                     25                     26                     27
                      A                      A                      A
 Frequencies --    413.4202               450.0186               482.8318
 Red. masses --      2.4940                 3.9825                 3.0012
 Frc consts  --      0.2512                 0.4752                 0.4122
 IR Inten    --      3.0152                 7.8909                 3.7120

                     28                     29                     30
                      A                      A                      A
 Frequencies --    490.9497               573.5138               604.2020
 Red. masses --      2.5939                 2.8056                 2.4334
 Frc consts  --      0.3684                 0.5437                 0.5234
 IR Inten    --      6.7496                 0.6721                 0.6354

                     31                     32                     33
                      A                      A                      A
 Frequencies --    654.8118               731.9968               736.7619
 Red. masses --      2.9643                 1.0882                 1.1617
 Frc consts  --      0.7489                 0.3435                 0.3715
 IR Inten    --      5.9685                 2.3912                61.5924

                     34                     35                     36
                      A                      A                      A
 Frequencies --    756.7162               760.2941               800.0651
 Red. masses --      1.1550                 1.6480                 1.8456
 Frc consts  --      0.3897                 0.5613                 0.6960
 IR Inten    --      0.5556                 6.9495                14.2863

                     37                     38                     39
                      A                      A                      A
 Frequencies --    812.2437               818.5371               872.2816
 Red. masses --      1.9169                 1.4565                 1.9958
 Frc consts  --      0.7451                 0.5750                 0.8947
 IR Inten    --      3.5431                 4.0543                 6.3758

                     40                     41                     42
                      A                      A                      A
 Frequencies --    889.2213               908.4086               915.3255
 Red. masses --      2.0176                 1.4910                 1.6324
 Frc consts  --      0.9399                 0.7249                 0.8058
 IR Inten    --      2.0341                 2.4498                 0.0529

                     43                     44                     45
                      A                      A                      A
 Frequencies --    945.1481               953.8340               974.8187
 Red. masses --      1.4318                 2.0892                 1.9400
 Frc consts  --      0.7536                 1.1199                 1.0862
 IR Inten    --      0.1651                 2.3995                24.1801

                     46                     47                     48
                      A                      A                      A
 Frequencies --    990.4535              1017.2563              1019.3436
 Red. masses --      4.2556                 2.4055                 1.3385
 Frc consts  --      2.4597                 1.4666                 0.8194
 IR Inten    --      6.4455                 1.3464                 5.3375

                     49                     50                     51
                      A                      A                      A
 Frequencies --   1037.7056              1051.0165              1064.9391
 Red. masses --      1.8820                 2.6873                 2.2806
 Frc consts  --      1.1941                 1.7490                 1.5238
 IR Inten    --     26.6247                15.5630                 3.5558

                     52                     53                     54
                      A                      A                      A
 Frequencies --   1070.3854              1079.0811              1080.4107
 Red. masses --      1.9905                 2.4304                 2.5097
 Frc consts  --      1.3436                 1.6674                 1.7261
 IR Inten    --      4.3934                74.5708                21.0718

                     55                     56                     57
                      A                      A                      A
 Frequencies --   1083.2116              1105.6061              1123.9247
 Red. masses --      3.5134                 2.5752                 2.2064
 Frc consts  --      2.4289                 1.8547                 1.6422
 IR Inten    --     66.1176                17.9607                11.6721

                     58                     59                     60
                      A                      A                      A
 Frequencies --   1125.5177              1131.3758              1141.6101
 Red. masses --      1.9405                 1.6322                 1.9707
 Frc consts  --      1.4483                 1.2309                 1.5132
 IR Inten    --     14.3298                 9.6584                 1.2009

                     61                     62                     63
                      A                      A                      A
 Frequencies --   1152.8604              1174.7760              1202.7946
 Red. masses --      2.3021                 1.7735                 1.6016
 Frc consts  --      1.8027                 1.4421                 1.3652
 IR Inten    --      5.9865                 4.4413                 8.2313

                     64                     65                     66
                      A                      A                      A
 Frequencies --   1213.6096              1240.6429              1243.8217
 Red. masses --      3.3639                 1.3351                 1.2785
 Frc consts  --      2.9191                 1.2108                 1.1654
 IR Inten    --     50.8225                 0.6272                 8.2913

                     67                     68                     69
                      A                      A                      A
 Frequencies --   1250.1108              1262.0276              1276.2648
 Red. masses --      1.4480                 1.3939                 1.2641
 Frc consts  --      1.3333                 1.3081                 1.2132
 IR Inten    --      1.1411                13.3091                 8.0924

                     70                     71                     72
                      A                      A                      A
 Frequencies --   1288.4471              1297.0529              1304.3475
 Red. masses --      1.3373                 1.2009                 1.2474
 Frc consts  --      1.3080                 1.1903                 1.2504
 IR Inten    --      7.6184                 1.5332                 7.5061

                     73                     74                     75
                      A                      A                      A
 Frequencies --   1306.5742              1325.0494              1331.3767
 Red. masses --      1.2768                 1.0900                 1.1324
 Frc consts  --      1.2842                 1.1276                 1.1826
 IR Inten    --      1.7085                 0.3429                 0.1919

                     76                     77                     78
                      A                      A                      A
 Frequencies --   1340.1184              1346.0757              1357.4949
 Red. masses --      1.3331                 1.3495                 1.4505
 Frc consts  --      1.4106                 1.4406                 1.5748
 IR Inten    --     16.7952                 9.8335                 4.1920

                     79                     80                     81
                      A                      A                      A
 Frequencies --   1364.0707              1378.8774              1381.4475
 Red. masses --      1.4334                 1.3392                 1.2840
 Frc consts  --      1.5714                 1.5002                 1.4438
 IR Inten    --      2.5401                 1.8490                15.0367

                     82                     83                     84
                      A                      A                      A
 Frequencies --   1388.4252              1396.5826              1401.3483
 Red. masses --      1.3447                 1.2858                 1.4023
 Frc consts  --      1.5272                 1.4776                 1.6225
 IR Inten    --      4.0771                 7.2176                 7.7681

                     85                     86                     87
                      A                      A                      A
 Frequencies --   1403.2829              1405.5692              1415.4209
 Red. masses --      1.5349                 1.3068                 1.3453
 Frc consts  --      1.7808                 1.5211                 1.5880
 IR Inten    --      0.6293                10.1474                10.5816

                     88                     89                     90
                      A                      A                      A
 Frequencies --   1424.7166              1429.1587              1475.1992
 Red. masses --      1.2964                 1.3296                 1.0780
 Frc consts  --      1.5505                 1.6001                 1.3822
 IR Inten    --     56.4856                13.5116                 1.7107

                     91                     92                     93
                      A                      A                      A
 Frequencies --   1480.0452              1483.9534              1485.0020
 Red. masses --      1.0760                 1.0741                 1.0966
 Frc consts  --      1.3887                 1.3935                 1.4247
 IR Inten    --      1.0675                 0.3197                 3.3499

                     94                     95                     96
                      A                      A                      A
 Frequencies --   1487.3675              1491.8211              1493.9103
 Red. masses --      1.0844                 1.0894                 1.0615
 Frc consts  --      1.4134                 1.4285                 1.3958
 IR Inten    --      3.4104                 0.7007                 6.9736

                     97                     98                     99
                      A                      A                      A
 Frequencies --   1498.7835              1505.2486              1506.2348
 Red. masses --      1.0915                 1.0626                 1.0892
 Frc consts  --      1.4446                 1.4185                 1.4560
 IR Inten    --     12.8744                 5.2212                 1.8123

                    100                    101                    102
                      A                      A                      A
 Frequencies --   1506.7095              1515.8499              1518.1884
 Red. masses --      1.0779                 1.1005                 1.0949
 Frc consts  --      1.4417                 1.4899                 1.4869
 IR Inten    --     15.6174                 2.1728                 0.9385

                    103                    104                    105
                      A                      A                      A
 Frequencies --   1519.2309              2920.8609              2944.0562
 Red. masses --      1.0986                 1.0725                 1.0787
 Frc consts  --      1.4940                 5.3908                 5.5085
 IR Inten    --     19.0667                56.3990                14.5490

                    106                    107                    108
                      A                      A                      A
 Frequencies --   2949.0218              2964.0943              2996.3013
 Red. masses --      1.0724                 1.0710                 1.0626
 Frc consts  --      5.4949                 5.5440                 5.6208
 IR Inten    --     82.9369                53.4379                 8.4231

                    109                    110                    111
                      A                      A                      A
 Frequencies --   2998.1278              3001.9183              3003.5154
 Red. masses --      1.0668                 1.0745                 1.0604
 Frc consts  --      5.6500                 5.7051                 5.6359
 IR Inten    --      6.4901                 9.0221                18.1962

                    112                    113                    114
                      A                      A                      A
 Frequencies --   3013.7572              3015.3138              3026.4607
 Red. masses --      1.0620                 1.0696                 1.0921
 Frc consts  --      5.6833                 5.7296                 5.8938
 IR Inten    --     34.4910                55.3763                 3.0330

                    115                    116                    117
                      A                      A                      A
 Frequencies --   3030.8019              3032.4688              3033.1639
 Red. masses --      1.0898                 1.0459                 1.0786
 Frc consts  --      5.8982                 5.6668                 5.8466
 IR Inten    --     34.6180                 9.0555                21.1126

                    118                    119                    120
                      A                      A                      A
 Frequencies --   3034.8944              3040.6767              3044.5522
 Red. masses --      1.0915                 1.0518                 1.0837
 Frc consts  --      5.9233                 5.7294                 5.9184
 IR Inten    --     38.0585                16.2245                35.4505

                    121                    122                    123
                      A                      A                      A
 Frequencies --   3051.0123              3056.7972              3066.5357
 Red. masses --      1.0914                 1.0908                 1.0965
 Frc consts  --      5.9859                 6.0051                 6.0750
 IR Inten    --     23.5012                47.0811                26.3078

                    124                    125                    126
                      A                      A                      A
 Frequencies --   3074.9381              3080.6174              3102.0554
 Red. masses --      1.1010                 1.0593                 1.1009
 Frc consts  --      6.1333                 5.9229                 6.2417
 IR Inten    --    126.2653                24.9089                12.1345

                    127                    128                    129
                      A                      A                      A
 Frequencies --   3102.6973              3104.2354              3122.4018
 Red. masses --      1.1004                 1.1015                 1.1010
 Frc consts  --      6.2412                 6.2540                 6.3241
 IR Inten    --     56.1576                23.5508                19.6133

                    130                    131                    132
                      A                      A                      A
 Frequencies --   3135.4589              3531.4076              3814.2592
 Red. masses --      1.1079                 1.0669                 1.0661
 Frc consts  --      6.4176                 7.8390                 9.1381
 IR Inten    --     20.4591               429.5404                14.6729

 - Thermochemistry -
 -------------------
 Temperature   298.150 Kelvin.  Pressure   1.00000 Atm.
 Atom     1 has atomic number  6 and mass  12.00000

 Molecular mass:   243.21983 amu.
 Principal axes and moments of inertia in atomic units:
                           1         2         3
     Eigenvalues --  1776.89338********************
           X            1.00000  -0.00203  -0.00081
           Y            0.00205   0.99960   0.02834
           Z            0.00075  -0.02834   0.99960
 This molecule is an asymmetric top.
 Rotational symmetry number  1.
 Warning -- assumption of classical behavior for rotation
           may cause significant error
 Rotational temperatures (Kelvin)      0.04874     0.00641     0.00610
 Rotational constants (GHZ):           1.01567     0.13364     0.12707
 Zero-point vibrational energy    1104111.0 (Joules/Mol)
                                  263.88886 (Kcal/Mol)
 Warning -- explicit consideration of  30 degrees of freedom as
           vibrations may cause significant error
 Vibrational temperatures:     31.82    45.75    53.43    82.98    88.90
          (Kelvin)            122.42   146.62   147.98   165.54   176.61
                              208.53   230.34   240.17   291.69   314.54
                              337.39   376.72   382.90   396.91   430.84
                              435.51   467.11   529.68   573.61   594.82
                              647.48   694.69   706.37   825.16   869.31
                              942.13  1053.18  1060.04  1088.75  1093.89
                             1151.12  1168.64  1177.69  1255.02  1279.39
                             1307.00  1316.95  1359.86  1372.35  1402.55
                             1425.04  1463.60  1466.61  1493.03  1512.18
                             1532.21  1540.05  1552.56  1554.47  1558.50
                             1590.72  1617.08  1619.37  1627.80  1642.52
                             1658.71  1690.24  1730.55  1746.11  1785.01
                             1789.58  1798.63  1815.78  1836.26  1853.79
                             1866.17  1876.67  1879.87  1906.45  1915.55
                             1928.13  1936.70  1953.13  1962.59  1983.90
                             1987.59  1997.63  2009.37  2016.23  2019.01
                             2022.30  2036.48  2049.85  2056.24  2122.48
                             2129.45  2135.08  2136.59  2139.99  2146.40
                             2149.40  2156.42  2165.72  2167.14  2167.82
                             2180.97  2184.33  2185.83  4202.47  4235.84
                             4242.98  4264.67  4311.01  4313.64  4319.09
                             4321.39  4336.12  4338.36  4354.40  4360.65
                             4363.05  4364.05  4366.54  4374.86  4380.43
                             4389.73  4398.05  4412.06  4424.15  4432.32
                             4463.17  4464.09  4466.30  4492.44  4511.23
                             5080.91  5487.87

 Zero-point correction=                           0.420534 (Hartree/Particle)
 Thermal correction to Energy=                    0.441257
 Thermal correction to Enthalpy=                  0.442201
 Thermal correction to Gibbs Free Energy=         0.369293
 Sum of electronic and zero-point Energies=           -755.760076
 Sum of electronic and thermal Energies=              -755.739353
 Sum of electronic and thermal Enthalpies=            -755.738409
 Sum of electronic and thermal Free Energies=         -755.811317

                     E (Thermal)             CV                S
                      KCal/Mol        Cal/Mol-Kelvin    Cal/Mol-Kelvin
 Total                  276.893             76.202            153.448
 Electronic               0.000              0.000              0.000
 Translational            0.889              2.981             42.367
 Rotational               0.889              2.981             34.188
 Vibrational            275.115             70.241             76.893
 Vibration     1          0.593              1.985              6.435
 Vibration     2          0.594              1.983              5.714
 Vibration     3          0.594              1.982              5.406
 Vibration     4          0.596              1.974              4.535
 Vibration     5          0.597              1.973              4.399
 Vibration     6          0.601              1.960              3.770
 Vibration     7          0.604              1.948              3.418
 Vibration     8          0.605              1.947              3.400
 Vibration     9          0.608              1.937              3.182
 Vibration    10          0.610              1.930              3.057
 Vibration    11          0.616              1.908              2.738
 Vibration    12          0.622              1.891              2.549
 Vibration    13          0.624              1.883              2.470
 Vibration    14          0.639              1.836              2.108
 Vibration    15          0.646              1.813              1.971
 Vibration    16          0.654              1.788              1.844
 Vibration    17          0.669              1.743              1.650
 Vibration    18          0.672              1.735              1.621
 Vibration    19          0.678              1.718              1.559
 Vibration    20          0.692              1.675              1.420
 Vibration    21          0.694              1.669              1.402
 Vibration    22          0.709              1.626              1.287
 Vibration    23          0.741              1.538              1.088
 Vibration    24          0.765              1.473              0.968
 Vibration    25          0.777              1.441              0.915
 Vibration    26          0.809              1.361              0.796
 Vibration    27          0.839              1.288              0.702
 Vibration    28          0.847              1.270              0.681
 Vibration    29          0.930              1.089              0.498
 Vibration    30          0.963              1.023              0.442

 Optimization completed.
    -- Stationary point found.
 Normal termination of Gaussian 16 at Mon May 22 18:45:18 2023.
