 Gaussian 16, Revision A.03,
 Gaussian 16:  ES64L-G16RevA.03 25-Dec-2016

 -----------------------------
 # opt freq b3lyp/6-31g(2df,p)
 -----------------------------

 -------------------
 Title Card Required
 -------------------
 Symbolic Z-matrix:
 Charge =  0 Multiplicity = 1

 SCF Done:  E(RB3LYP) =  -544.517857776     A.U. after   13 cycles
 SCF Done:  E(RB3LYP) =  -544.542647959     A.U. after   11 cycles
 SCF Done:  E(RB3LYP) =  -544.556906552     A.U. after   11 cycles
 SCF Done:  E(RB3LYP) =  -544.562078630     A.U. after   11 cycles
 SCF Done:  E(RB3LYP) =  -544.563873187     A.U. after   11 cycles
 SCF Done:  E(RB3LYP) =  -544.565518544     A.U. after   11 cycles
 SCF Done:  E(RB3LYP) =  -544.566118874     A.U. after   10 cycles
 SCF Done:  E(RB3LYP) =  -544.566214021     A.U. after   10 cycles
 SCF Done:  E(RB3LYP) =  -544.566241367     A.U. after   10 cycles
 SCF Done:  E(RB3LYP) =  -544.566300058     A.U. after   10 cycles
 SCF Done:  E(RB3LYP) =  -544.566310102     A.U. after    8 cycles
 SCF Done:  E(RB3LYP) =  -544.566312342     A.U. after    9 cycles
 SCF Done:  E(RB3LYP) =  -544.566318604     A.U. after    9 cycles
 SCF Done:  E(RB3LYP) =  -544.566319518     A.U. after    8 cycles
 SCF Done:  E(RB3LYP) =  -544.566320345     A.U. after    7 cycles
 SCF Done:  E(RB3LYP) =  -544.566320431     A.U. after    6 cycles
 Optimization completed.
    -- Stationary point found.
 Normal termination of Gaussian 16 at Mon May 29 22:49:32 2023.

 ----------------------------------------------------------------------
 #N Geom=AllCheck Guess=TCheck SCRF=Check GenChk RB3LYP/6-31G(2df,p) Fr
 eq
 ----------------------------------------------------------------------

 Structure from the checkpoint file:  "CCC1dCCCqCOrC2CCCC12.chk"
 -------------------
 Title Card Required
 -------------------
 Charge =  0 Multiplicity = 1

                         Standard orientation:
 ---------------------------------------------------------------------
 Center     Atomic      Atomic             Coordinates (Angstroms)
 Number     Number       Type             X           Y           Z
 ---------------------------------------------------------------------
      1          6           0       -3.582181   -1.172996    0.150499
      2          6           0       -2.357671   -1.423906   -0.748686
      3          6           0       -1.040940   -0.962161   -0.159607
      4          6           0       -0.216720   -1.819643    0.456169
      5          6           0        1.136672   -1.491812    1.042988
      6          6           0        1.694089   -0.125589    0.582130
      7          6           0        2.399254   -0.254167   -0.777630
      8          8           0        3.523056   -1.125218   -0.728276
      9          6           0        0.531687    0.873637    0.597506
     10          6           0        0.750306    2.362540    0.279358
     11          6           0       -0.676876    2.889016   -0.075867
     12          6           0       -1.597514    1.636366   -0.143410
     13          6           0       -0.608238    0.473252   -0.353748
     14          1           0       -4.492108   -1.560169   -0.320038
     15          1           0       -3.735712   -0.108367    0.345255
     16          1           0       -3.459839   -1.674515    1.115660
     17          1           0       -2.517978   -0.929792   -1.716495
     18          1           0       -2.295266   -2.497653   -0.958699
     19          1           0       -0.525935   -2.860515    0.548020
     20          1           0        1.854117   -2.276630    0.776915
     21          1           0        1.068907   -1.512715    2.140767
     22          1           0        2.456596    0.202902    1.304997
     23          1           0        2.693666    0.736788   -1.153678
     24          1           0        1.725352   -0.698888   -1.516398
     25          1           0        4.154881   -0.750202   -0.106040
     26          1           0        0.106215    0.823218    1.611708
     27          1           0        1.422561    2.487837   -0.575652
     28          1           0        1.199803    2.904032    1.116923
     29          1           0       -0.664883    3.412527   -1.036322
     30          1           0       -1.040890    3.606592    0.664268
     31          1           0       -2.354364    1.716710   -0.928394
     32          1           0       -2.125694    1.504479    0.807497
     33          1           0       -0.245078    0.568878   -1.392287
 ---------------------------------------------------------------------

 SCF Done:  E(RB3LYP) =  -544.566320431     A.U. after    1 cycles

 The electronic state is 1-A.
 Alpha  occ. eigenvalues --  -19.13077 -10.21824 -10.18158 -10.17946 -10.17774
 Alpha  occ. eigenvalues --  -10.17768 -10.17730 -10.17600 -10.17544 -10.17510
 Alpha  occ. eigenvalues --  -10.17390 -10.16991 -10.16755  -1.01052  -0.85439
 Alpha  occ. eigenvalues --   -0.79595  -0.78051  -0.72709  -0.70348  -0.69030
 Alpha  occ. eigenvalues --   -0.66390  -0.61469  -0.58773  -0.57293  -0.55172
 Alpha  occ. eigenvalues --   -0.51756  -0.48121  -0.47442  -0.46085  -0.44632
 Alpha  occ. eigenvalues --   -0.43725  -0.42878  -0.41227  -0.40661  -0.40239
 Alpha  occ. eigenvalues --   -0.39200  -0.37199  -0.37091  -0.36309  -0.35040
 Alpha  occ. eigenvalues --   -0.33993  -0.33338  -0.33043  -0.32156  -0.31248
 Alpha  occ. eigenvalues --   -0.31012  -0.29869  -0.28460  -0.25895  -0.22514
 Alpha virt. eigenvalues --    0.02796   0.07620   0.08537   0.09381   0.10604
 Alpha virt. eigenvalues --    0.11620   0.12937   0.13590   0.13756   0.14897
 Alpha virt. eigenvalues --    0.16236   0.16403   0.16681   0.16920   0.17302

 Mulliken charges:
               1
     1  C   -0.370557
     2  C   -0.277856
     3  C    0.274627
     4  C   -0.135980
     5  C   -0.278212
     6  C   -0.076749
     7  C   -0.068869
     8  O   -0.420396
     9  C    0.047661
    10  C   -0.266727
    11  C   -0.216422
    12  C   -0.239645
    13  C   -0.054313
    14  H    0.108174
    15  H    0.120257
    16  H    0.116617
    17  H    0.093483
    18  H    0.099446
    19  H    0.071862
    20  H    0.117043
    21  H    0.097887
    22  H    0.049253
    23  H    0.085282
    24  H    0.116742
    25  H    0.278202
    26  H    0.069210
    27  H    0.097861
    28  H    0.092391
    29  H    0.100179
    30  H    0.098942
    31  H    0.092097
    32  H    0.100938
    33  H    0.077573
 Sum of Mulliken charges =  -0.00000

 Dipole moment (field-independent basis, Debye):
    X=             -0.1369    Y=              1.3243    Z=              0.8349  Tot=              1.5715
 Quadrupole moment (field-independent basis, Debye-Ang):
   XX=            -80.0828   YY=            -82.8222   ZZ=            -81.2671
   XY=              4.0353   XZ=              5.0476   YZ=             -1.7096

  Exact polarizability: 144.561  -2.903 133.542   8.549  -4.760 104.904
 Approx polarizability: 191.052 -10.815 187.157  14.547  -9.889 173.041

                      1                      2                      3
                      A                      A                      A
 Frequencies --     59.8016                72.1680                87.4111
 Red. masses --      2.9126                 2.3732                 2.4662
 Frc consts  --      0.0061                 0.0073                 0.0111
 IR Inten    --      0.3072                 0.0747                 0.2678

                      4                      5                      6
                      A                      A                      A
 Frequencies --    116.0292               136.1361               169.9468
 Red. masses --      2.2992                 2.2613                 2.7591
 Frc consts  --      0.0182                 0.0247                 0.0470
 IR Inten    --      3.2658                 0.0215                 1.4434

                      7                      8                      9
                      A                      A                      A
 Frequencies --    194.6105               208.5157               251.8477
 Red. masses --      2.0109                 1.9354                 2.2215
 Frc consts  --      0.0449                 0.0496                 0.0830
 IR Inten    --      0.0375                 0.0850                 1.1621

                     10                     11                     12
                      A                      A                      A
 Frequencies --    275.8756               300.2572               322.1749
 Red. masses --      2.1389                 1.5579                 1.5284
 Frc consts  --      0.0959                 0.0828                 0.0935
 IR Inten    --      5.2483                31.6074                62.2230

                     13                     14                     15
                      A                      A                      A
 Frequencies --    354.1884               380.4145               433.7034
 Red. masses --      3.9991                 2.4823                 3.1713
 Frc consts  --      0.2956                 0.2116                 0.3515
 IR Inten    --      0.8606                12.7959                 6.4170

                     16                     17                     18
                      A                      A                      A
 Frequencies --    463.2290               500.2635               570.3164
 Red. masses --      3.2103                 2.8796                 3.3021
 Frc consts  --      0.4059                 0.4246                 0.6328
 IR Inten    --      2.0101                 1.5333                 0.1941

                     19                     20                     21
                      A                      A                      A
 Frequencies --    613.3229               641.8093               729.2629
 Red. masses --      2.8137                 3.7245                 2.7944
 Frc consts  --      0.6236                 0.9039                 0.8756
 IR Inten    --      0.7213                 2.0533                 1.0229

                     22                     23                     24
                      A                      A                      A
 Frequencies --    767.5574               783.0013               805.9402
 Red. masses --      1.3214                 1.2372                 2.4068
 Frc consts  --      0.4587                 0.4469                 0.9211
 IR Inten    --      1.0601                 1.4523                 0.1554

                     25                     26                     27
                      A                      A                      A
 Frequencies --    833.3940               863.6402               888.6462
 Red. masses --      1.7700                 1.6308                 2.8502
 Frc consts  --      0.7243                 0.7167                 1.3261
 IR Inten    --      6.6063                 2.6140                 3.9878

                     28                     29                     30
                      A                      A                      A
 Frequencies --    904.0653               923.7253               944.9133
 Red. masses --      2.6685                 1.9401                 1.6283
 Frc consts  --      1.2851                 0.9753                 0.8566
 IR Inten    --      1.1811                 0.0509                 3.3987

                     31                     32                     33
                      A                      A                      A
 Frequencies --    955.6904               984.1625              1000.9215
 Red. masses --      2.1711                 1.4633                 2.5458
 Frc consts  --      1.1683                 0.8351                 1.5027
 IR Inten    --      3.3383                 3.4278                 1.3225

                     34                     35                     36
                      A                      A                      A
 Frequencies --   1020.6132              1032.8847              1063.9403
 Red. masses --      2.3169                 2.0207                 1.6302
 Frc consts  --      1.4219                 1.2701                 1.0872
 IR Inten    --     31.6868                19.0977                 3.6600

                     37                     38                     39
                      A                      A                      A
 Frequencies --   1075.0913              1078.6428              1088.8971
 Red. masses --      3.7227                 2.0862                 2.0645
 Frc consts  --      2.5351                 1.4301                 1.4422
 IR Inten    --     49.0143                14.2000                 3.9610

                     40                     41                     42
                      A                      A                      A
 Frequencies --   1100.0222              1116.1106              1139.1076
 Red. masses --      2.3699                 2.0771                 1.5748
 Frc consts  --      1.6896                 1.5245                 1.2039
 IR Inten    --      0.7898                 4.9388                 0.9170

                     43                     44                     45
                      A                      A                      A
 Frequencies --   1168.6627              1185.6623              1190.7442
 Red. masses --      1.3420                 1.4470                 1.5458
 Frc consts  --      1.0799                 1.1985                 1.2913
 IR Inten    --     21.1423                 1.9093                 9.1386

                     46                     47                     48
                      A                      A                      A
 Frequencies --   1199.0718              1245.3112              1259.8562
 Red. masses --      1.7113                 1.2758                 1.2667
 Frc consts  --      1.4497                 1.1657                 1.1846
 IR Inten    --      1.1522                 0.5451                 0.1035

                     49                     50                     51
                      A                      A                      A
 Frequencies --   1279.0775              1281.8104              1294.2493
 Red. masses --      1.3341                 1.3478                 1.3410
 Frc consts  --      1.2860                 1.3048                 1.3235
 IR Inten    --      0.2191                 0.7085                 1.5543

                     52                     53                     54
                      A                      A                      A
 Frequencies --   1301.5155              1316.0632              1326.8654
 Red. masses --      1.2987                 1.2913                 1.3215
 Frc consts  --      1.2961                 1.3177                 1.3708
 IR Inten    --      3.9072                 0.3609                 0.1759

                     55                     56                     57
                      A                      A                      A
 Frequencies --   1343.0730              1347.7201              1353.7490
 Red. masses --      1.2994                 1.2771                 1.4567
 Frc consts  --      1.3810                 1.3667                 1.5729
 IR Inten    --      2.5329                 4.3405                 9.9748

                     58                     59                     60
                      A                      A                      A
 Frequencies --   1367.0281              1376.5703              1394.4496
 Red. masses --      1.6038                 1.4147                 1.6530
 Frc consts  --      1.7658                 1.5795                 1.8938
 IR Inten    --      1.0363                 0.3099                 1.1810

                     61                     62                     63
                      A                      A                      A
 Frequencies --   1398.6364              1405.9563              1412.7300
 Red. masses --      1.3937                 1.2548                 1.3713
 Frc consts  --      1.6063                 1.4614                 1.6125
 IR Inten    --      2.0188                 3.5759                30.5919

                     64                     65                     66
                      A                      A                      A
 Frequencies --   1427.2240              1482.4764              1484.1881
 Red. masses --      1.3188                 1.0868                 1.0677
 Frc consts  --      1.5827                 1.4073                 1.3858
 IR Inten    --     10.1919                 3.5720                 2.7491

                     67                     68                     69
                      A                      A                      A
 Frequencies --   1489.2824              1495.3214              1500.6236
 Red. masses --      1.0779                 1.0606                 1.0699
 Frc consts  --      1.4086                 1.3972                 1.4195
 IR Inten    --      0.0816                 2.1079                 3.9533

                     70                     71                     72
                      A                      A                      A
 Frequencies --   1505.9062              1508.7708              1515.4986
 Red. masses --      1.0849                 1.0703                 1.1026
 Frc consts  --      1.4496                 1.4355                 1.4920
 IR Inten    --      1.5919                 2.2096                 0.2585

                     73                     74                     75
                      A                      A                      A
 Frequencies --   1713.7794              2941.8978              2974.5054
 Red. masses --      7.3101                 1.0789                 1.0815
 Frc consts  --     12.6498                 5.5014                 5.6376
 IR Inten    --      0.8800                11.3116                33.1438

                     76                     77                     78
                      A                      A                      A
 Frequencies --   2981.2143              2991.4121              3000.0864
 Red. masses --      1.0819                 1.0689                 1.0737
 Frc consts  --      5.6656                 5.6354                 5.6939
 IR Inten    --     17.5623                62.6440                51.5488

                     79                     80                     81
                      A                      A                      A
 Frequencies --   3013.8487              3036.3313              3039.2879
 Red. masses --      1.0627                 1.0410                 1.0571
 Frc consts  --      5.6871                 5.6546                 5.7533
 IR Inten    --     28.0220                 8.3453                56.1723

                     82                     83                     84
                      A                      A                      A
 Frequencies --   3043.8931              3056.1919              3057.1969
 Red. masses --      1.0605                 1.0885                 1.0918
 Frc consts  --      5.7892                 5.9901                 6.0122
 IR Inten    --     40.0393                25.2447                37.0693

                     85                     86                     87
                      A                      A                      A
 Frequencies --   3058.1258              3075.8631              3083.5646
 Red. masses --      1.0695                 1.1019                 1.0934
 Frc consts  --      5.8930                 6.1422                 6.1253
 IR Inten    --     18.3003                13.6732                27.4226

                     88                     89                     90
                      A                      A                      A
 Frequencies --   3088.3375              3102.3963              3104.5993
 Red. masses --      1.1016                 1.1015                 1.1051
 Frc consts  --      6.1902                 6.2466                 6.2757
 IR Inten    --     15.8200                21.3320                78.3699

                     91                     92                     93
                      A                      A                      A
 Frequencies --   3120.5266              3125.0981              3809.0764
 Red. masses --      1.1001                 1.0886                 1.0660
 Frc consts  --      6.3114                 6.2637                 9.1130
 IR Inten    --     21.7964                42.6623                16.3402

 - Thermochemistry -
 -------------------
 Temperature   298.150 Kelvin.  Pressure   1.00000 Atm.
 Atom     1 has atomic number  6 and mass  12.00000

 Molecular mass:   180.15142 amu.
 Principal axes and moments of inertia in atomic units:
                           1         2         3
     Eigenvalues --  1790.153632820.419944073.84710
           X            0.99952   0.02998   0.00728
           Y           -0.02993   0.99953  -0.00715
           Z           -0.00749   0.00693   0.99995
 This molecule is an asymmetric top.
 Rotational symmetry number  1.
 Warning -- assumption of classical behavior for rotation
           may cause significant error
 Rotational temperatures (Kelvin)      0.04838     0.03071     0.02126
 Rotational constants (GHZ):           1.00815     0.63988     0.44301
 Zero-point vibrational energy     786709.6 (Joules/Mol)
                                  188.02811 (Kcal/Mol)
 Warning -- explicit consideration of  19 degrees of freedom as
           vibrations may cause significant error
 Vibrational temperatures:     86.04   103.83   125.77   166.94   195.87
          (Kelvin)            244.52   280.00   300.01   362.35   396.92
                              432.00   463.54   509.60   547.33   624.00
                              666.48   719.77   820.56   882.43   923.42
                             1049.25  1104.34  1126.56  1159.57  1199.07
                             1242.59  1278.56  1300.75  1329.03  1359.52
                             1375.03  1415.99  1440.10  1468.43  1486.09
                             1530.77  1546.82  1551.93  1566.68  1582.69
                             1605.83  1638.92  1681.45  1705.90  1713.22
                             1725.20  1791.73  1812.65  1840.31  1844.24
                             1862.14  1872.59  1893.52  1909.06  1932.38
                             1939.07  1947.74  1966.85  1980.58  2006.30
                             2012.33  2022.86  2032.60  2053.46  2132.95
                             2135.42  2142.75  2151.43  2159.06  2166.66
                             2170.78  2180.46  2465.75  4232.73  4279.65
                             4289.30  4303.97  4316.46  4336.26  4368.60
                             4372.86  4379.48  4397.18  4398.62  4399.96
                             4425.48  4436.56  4443.43  4463.66  4466.83
                             4489.74  4496.32  5480.41

 Zero-point correction=                           0.299642 (Hartree/Particle)
 Thermal correction to Energy=                    0.312930
 Thermal correction to Enthalpy=                  0.313874
 Thermal correction to Gibbs Free Energy=         0.260175
 Sum of electronic and zero-point Energies=           -544.266679
 Sum of electronic and thermal Energies=              -544.253390
 Sum of electronic and thermal Enthalpies=            -544.252446
 Sum of electronic and thermal Free Energies=         -544.306146

                     E (Thermal)             CV                S
                      KCal/Mol        Cal/Mol-Kelvin    Cal/Mol-Kelvin
 Total                  196.367             51.776            113.020
 Electronic               0.000              0.000              0.000
 Translational            0.889              2.981             41.473
 Rotational               0.889              2.981             31.398
 Vibrational            194.589             45.814             40.149
 Vibration     1          0.597              1.973              4.464
 Vibration     2          0.598              1.967              4.093
 Vibration     3          0.601              1.958              3.717
 Vibration     4          0.608              1.936              3.165
 Vibration     5          0.614              1.917              2.857
 Vibration     6          0.625              1.879              2.436
 Vibration     7          0.635              1.847              2.183
 Vibration     8          0.642              1.828              2.057
 Vibration     9          0.664              1.760              1.718
 Vibration    10          0.678              1.718              1.559
 Vibration    11          0.693              1.673              1.415
 Vibration    12          0.707              1.631              1.299
 Vibration    13          0.730              1.567              1.148
 Vibration    14          0.750              1.512              1.038
 Vibration    15          0.794              1.397              0.847
 Vibration    16          0.821              1.332              0.757
 Vibration    17          0.856              1.249              0.657
 Vibration    18          0.926              1.095              0.504
 Vibration    19          0.973              1.004              0.427

                           ! Non-Optimized Parameters !
 Normal termination of Gaussian 16 at Tue May 30 00:50:28 2023.
