 Gaussian 16, Revision A.03,
 Gaussian 16:  ES64L-G16RevA.03 25-Dec-2016

 -----------------------------
 # opt freq b3lyp/6-31g(2df,p)
 -----------------------------

 -------------------
 Title Card Required
 -------------------
 Symbolic Z-matrix:
 Charge =  0 Multiplicity = 1

 SCF Done:  E(RB3LYP) =  -275.176223759     A.U. after   12 cycles
 SCF Done:  E(RB3LYP) =  -275.179070487     A.U. after   10 cycles
 SCF Done:  E(RB3LYP) =  -275.179749501     A.U. after    9 cycles
 SCF Done:  E(RB3LYP) =  -275.180167082     A.U. after    9 cycles
 SCF Done:  E(RB3LYP) =  -275.180441646     A.U. after    9 cycles
 SCF Done:  E(RB3LYP) =  -275.180924224     A.U. after   10 cycles
 SCF Done:  E(RB3LYP) =  -275.181999882     A.U. after   10 cycles
 SCF Done:  E(RB3LYP) =  -275.182954768     A.U. after   10 cycles
 SCF Done:  E(RB3LYP) =  -275.180949402     A.U. after   11 cycles
 SCF Done:  E(RB3LYP) =  -275.183272126     A.U. after   10 cycles
 SCF Done:  E(RB3LYP) =  -275.183250514     A.U. after    9 cycles
 SCF Done:  E(RB3LYP) =  -275.183276600     A.U. after    9 cycles
 SCF Done:  E(RB3LYP) =  -275.183277123     A.U. after    6 cycles
 SCF Done:  E(RB3LYP) =  -275.183276488     A.U. after    7 cycles
 SCF Done:  E(RB3LYP) =  -275.183277160     A.U. after    7 cycles
 Optimization completed.
    -- Stationary point found.
 Normal termination of Gaussian 16 at Sun May 28 23:01:04 2023.

 ----------------------------------------------------------------------
 #N Geom=AllCheck Guess=TCheck SCRF=Check GenChk RB3LYP/6-31G(2df,p) Fr
 eq
 ----------------------------------------------------------------------

 Structure from the checkpoint file:  "CCC1CCqCrC1.chk"
 -------------------
 Title Card Required
 -------------------
 Charge =  0 Multiplicity = 1

                         Standard orientation:
 ---------------------------------------------------------------------
 Center     Atomic      Atomic             Coordinates (Angstroms)
 Number     Number       Type             X           Y           Z
 ---------------------------------------------------------------------
      1          6           0        2.919560    0.500615   -0.078753
      2          6           0        1.810645   -0.501133   -0.417288
      3          6           0        0.553985   -0.313299    0.422505
      4          6           0       -0.701613   -1.173220    0.107979
      5          6           0       -1.588203    0.070327    0.399635
      6          6           0       -2.812244    0.328991   -0.464684
      7          6           0       -0.323500    0.954314    0.207795
      8          1           0        3.803712    0.346356   -0.705214
      9          1           0        3.231962    0.405819    0.967355
     10          1           0        2.580919    1.531502   -0.229197
     11          1           0        2.185872   -1.524714   -0.282156
     12          1           0        1.546393   -0.411970   -1.479974
     13          1           0        0.807741   -0.406611    1.486097
     14          1           0       -0.869790   -2.077717    0.698989
     15          1           0       -0.737890   -1.441762   -0.954735
     16          1           0       -1.875802    0.072006    1.457629
     17          1           0       -2.547942    0.330937   -1.528572
     18          1           0       -3.267114    1.299109   -0.233551
     19          1           0       -3.577932   -0.440696   -0.313914
     20          1           0       -0.183847    1.804904    0.880197
     21          1           0       -0.248060    1.313267   -0.826080
 ---------------------------------------------------------------------

 SCF Done:  E(RB3LYP) =  -275.183277160     A.U. after    1 cycles

 The electronic state is 1-A.
 Alpha  occ. eigenvalues --  -10.17988 -10.17735 -10.17301 -10.16974 -10.16938
 Alpha  occ. eigenvalues --  -10.16857 -10.16777  -0.84152  -0.76065  -0.70836
 Alpha  occ. eigenvalues --   -0.65021  -0.63150  -0.56372  -0.53855  -0.47595
 Alpha  occ. eigenvalues --   -0.44078  -0.43645  -0.40949  -0.39707  -0.38614
 Alpha  occ. eigenvalues --   -0.37695  -0.36641  -0.34621  -0.32944  -0.30845
 Alpha  occ. eigenvalues --   -0.30531  -0.28831  -0.27978
 Alpha virt. eigenvalues --    0.08903   0.10032   0.10880   0.12820   0.14689
 Alpha virt. eigenvalues --    0.15886   0.16028   0.17177   0.17272   0.17702
 Alpha virt. eigenvalues --    0.18287   0.18685   0.20044   0.20168   0.20773

 Mulliken charges:
               1
     1  C   -0.377115
     2  C   -0.194287
     3  C    0.072284
     4  C   -0.256606
     5  C    0.061746
     6  C   -0.406269
     7  C   -0.238555
     8  H    0.109464
     9  H    0.111837
    10  H    0.117438
    11  H    0.091435
    12  H    0.087404
    13  H    0.063239
    14  H    0.089346
    15  H    0.090210
    16  H    0.067638
    17  H    0.108213
    18  H    0.111263
    19  H    0.111386
    20  H    0.090063
    21  H    0.089868
 Sum of Mulliken charges =  -0.00000

 Dipole moment (field-independent basis, Debye):
    X=             -0.0077    Y=             -0.0287    Z=              0.1073  Tot=              0.1113
 Quadrupole moment (field-independent basis, Debye-Ang):
   XX=            -47.1341   YY=            -46.6701   ZZ=            -45.6246
   XY=             -0.2141   XZ=             -0.2893   YZ=             -0.1433

  Exact polarizability:  87.817   0.160  70.851   0.194   0.195  66.650
 Approx polarizability: 103.353  -0.136 102.059  -0.132  -0.102 102.012

                      1                      2                      3
                      A                      A                      A
 Frequencies --     78.4950               103.6349               186.7858
 Red. masses --      2.7244                 2.0684                 1.5878
 Frc consts  --      0.0099                 0.0131                 0.0326
 IR Inten    --      0.0030                 0.0044                 0.0499

                      4                      5                      6
                      A                      A                      A
 Frequencies --    231.7593               241.3511               303.2101
 Red. masses --      1.0829                 1.3555                 2.2042
 Frc consts  --      0.0343                 0.0465                 0.1194
 IR Inten    --      0.0155                 0.0067                 0.0658

                      7                      8                      9
                      A                      A                      A
 Frequencies --    385.9017               404.0527               428.3616
 Red. masses --      2.1942                 2.6509                 1.7602
 Frc consts  --      0.1925                 0.2550                 0.1903
 IR Inten    --      0.0051                 0.0685                 0.1605

                     10                     11                     12
                      A                      A                      A
 Frequencies --    580.6735               757.5081               789.1277
 Red. masses --      2.5422                 2.0996                 1.2494
 Frc consts  --      0.5050                 0.7098                 0.4584
 IR Inten    --      0.9978                 0.7073                 1.5457

                     13                     14                     15
                      A                      A                      A
 Frequencies --    810.2116               895.9947               902.0949
 Red. masses --      1.2315                 2.0914                 2.0217
 Frc consts  --      0.4763                 0.9892                 0.9693
 IR Inten    --      1.4431                 0.0074                 0.3349

                     16                     17                     18
                      A                      A                      A
 Frequencies --    940.9302               953.0157               972.4526
 Red. masses --      1.6491                 1.5670                 1.8645
 Frc consts  --      0.8602                 0.8385                 1.0388
 IR Inten    --      2.5939                 1.1190                 1.1943

                     19                     20                     21
                      A                      A                      A
 Frequencies --    996.0760              1021.7261              1081.6356
 Red. masses --      1.0913                 1.8524                 2.0941
 Frc consts  --      0.6379                 1.1393                 1.4435
 IR Inten    --      0.1822                 0.4110                 0.7608

                     22                     23                     24
                      A                      A                      A
 Frequencies --   1118.8675              1140.7016              1156.5017
 Red. masses --      1.8934                 2.1640                 2.0650
 Frc consts  --      1.3965                 1.6590                 1.6273
 IR Inten    --      0.4096                 0.4804                 0.9150

                     25                     26                     27
                      A                      A                      A
 Frequencies --   1200.6483              1231.9136              1242.3164
 Red. masses --      2.2469                 1.3754                 1.4738
 Frc consts  --      1.9084                 1.2298                 1.3401
 IR Inten    --      0.0416                 0.0939                 0.0714

                     28                     29                     30
                      A                      A                      A
 Frequencies --   1264.8740              1269.7301              1294.5587
 Red. masses --      1.1817                 1.3842                 1.3039
 Frc consts  --      1.1140                 1.3148                 1.2874
 IR Inten    --      0.0487                 0.1266                 0.2046

                     31                     32                     33
                      A                      A                      A
 Frequencies --   1310.0370              1345.8255              1370.3533
 Red. masses --      1.3082                 1.3778                 1.4716
 Frc consts  --      1.3228                 1.4703                 1.6282
 IR Inten    --      2.0302                11.4406                 6.4149

                     34                     35                     36
                      A                      A                      A
 Frequencies --   1397.8737              1409.9451              1412.7101
 Red. masses --      1.4733                 1.2573                 1.3195
 Frc consts  --      1.6962                 1.4726                 1.5515
 IR Inten    --      2.0997                 2.6274                 1.8976

                     37                     38                     39
                      A                      A                      A
 Frequencies --   1475.6174              1484.9227              1494.4462
 Red. masses --      1.0886                 1.0692                 1.0547
 Frc consts  --      1.3966                 1.3890                 1.3879
 IR Inten    --      0.4628                 0.3268                 3.1239

                     40                     41                     42
                      A                      A                      A
 Frequencies --   1496.4799              1499.5647              1503.0707
 Red. masses --      1.0504                 1.0413                 1.1092
 Frc consts  --      1.3859                 1.3796                 1.4764
 IR Inten    --      1.5595                 5.0139                 2.0239

                     43                     44                     45
                      A                      A                      A
 Frequencies --   1507.9343              3006.2940              3017.6702
 Red. masses --      1.0786                 1.0598                 1.0742
 Frc consts  --      1.4450                 5.6435                 5.7635
 IR Inten    --      5.4427                21.5305                15.4864

                     46                     47                     48
                      A                      A                      A
 Frequencies --   3019.4003              3027.6882              3028.9107
 Red. masses --      1.0443                 1.0665                 1.0489
 Frc consts  --      5.6093                 5.7604                 5.6697
 IR Inten    --     20.8473                12.0000                11.3465

                     49                     50                     51
                      A                      A                      A
 Frequencies --   3029.1735              3036.9560              3042.4232
 Red. masses --      1.0608                 1.0710                 1.0926
 Frc consts  --      5.7350                 5.8200                 5.9586
 IR Inten    --     56.6102                17.6152                42.1553

                     52                     53                     54
                      A                      A                      A
 Frequencies --   3085.9514              3086.2769              3089.9021
 Red. masses --      1.1018                 1.1009                 1.1044
 Frc consts  --      6.1822                 6.1781                 6.2124
 IR Inten    --     17.4396                32.0947                24.7481

                     55                     56                     57
                      A                      A                      A
 Frequencies --   3094.6030              3097.4873              3100.4791
 Red. masses --      1.1016                 1.1031                 1.1012
 Frc consts  --      6.2156                 6.2354                 6.2369
 IR Inten    --     24.2034               101.1812                49.1762

 - Thermochemistry -
 -------------------
 Temperature   298.150 Kelvin.  Pressure   1.00000 Atm.
 Atom     1 has atomic number  6 and mass  12.00000

 Molecular mass:    98.10955 amu.
 Principal axes and moments of inertia in atomic units:
                           1         2         3
     Eigenvalues --   277.831191340.945871454.53841
           X            0.99999   0.00285   0.00400
           Y           -0.00286   0.99999   0.00280
           Z           -0.00399  -0.00281   0.99999
 This molecule is an asymmetric top.
 Rotational symmetry number  1.
 Rotational temperatures (Kelvin)      0.31175     0.06459     0.05955
 Rotational constants (GHZ):           6.49582     1.34587     1.24077
 Zero-point vibrational energy     511147.0 (Joules/Mol)
                                  122.16707 (Kcal/Mol)
 Warning -- explicit consideration of  10 degrees of freedom as
           vibrations may cause significant error
 Vibrational temperatures:    112.94   149.11   268.74   333.45   347.25
          (Kelvin)            436.25   555.23   581.34   616.32   835.46
                             1089.89  1135.38  1165.71  1289.14  1297.91
                             1353.79  1371.18  1399.14  1433.13  1470.04
                             1556.23  1609.80  1641.22  1663.95  1727.47
                             1772.45  1787.42  1819.87  1826.86  1862.58
                             1884.85  1936.34  1971.63  2011.23  2028.60
                             2032.57  2123.08  2136.47  2150.17  2153.10
                             2157.54  2162.58  2169.58  4325.39  4341.75
                             4344.24  4356.17  4357.93  4358.31  4369.50
                             4377.37  4440.00  4440.46  4445.68  4452.44
                             4456.59  4460.90

 Zero-point correction=                           0.194686 (Hartree/Particle)
 Thermal correction to Energy=                    0.202933
 Thermal correction to Enthalpy=                  0.203877
 Thermal correction to Gibbs Free Energy=         0.162312
 Sum of electronic and zero-point Energies=           -274.988592
 Sum of electronic and thermal Energies=              -274.980344
 Sum of electronic and thermal Enthalpies=            -274.979400
 Sum of electronic and thermal Free Energies=         -275.020965

                     E (Thermal)             CV                S
                      KCal/Mol        Cal/Mol-Kelvin    Cal/Mol-Kelvin
 Total                  127.342             30.786             87.481
 Electronic               0.000              0.000              0.000
 Translational            0.889              2.981             39.661
 Rotational               0.889              2.981             27.785
 Vibrational            125.565             24.825             20.035
 Vibration     1          0.600              1.964              3.928
 Vibration     2          0.605              1.946              3.385
 Vibration     3          0.632              1.858              2.259
 Vibration     4          0.653              1.792              1.865
 Vibration     5          0.658              1.777              1.793
 Vibration     6          0.695              1.668              1.399
 Vibration     7          0.755              1.500              1.016
 Vibration     8          0.769              1.461              0.948
 Vibration     9          0.790              1.408              0.864
 Vibration    10          0.937              1.073              0.484

 Optimization completed.
    -- Stationary point found.
 Normal termination of Gaussian 16 at Sun May 28 23:23:25 2023.
