 Gaussian 16, Revision A.03,
 Gaussian 16:  ES64L-G16RevA.03 25-Dec-2016

 -----------------------------
 # opt freq b3lyp/6-31g(2df,p)
 -----------------------------

 -------------------
 Title Card Required
 -------------------
 Symbolic Z-matrix:
 Charge =  0 Multiplicity = 1

 SCF Done:  E(RB3LYP) =  -706.401516661     A.U. after   12 cycles
 SCF Done:  E(RB3LYP) =  -706.417028383     A.U. after   10 cycles
 SCF Done:  E(RB3LYP) =  -706.432138670     A.U. after   10 cycles
 SCF Done:  E(RB3LYP) =  -706.436304553     A.U. after   10 cycles
 SCF Done:  E(RB3LYP) =  -706.438334185     A.U. after   10 cycles
 SCF Done:  E(RB3LYP) =  -706.439666072     A.U. after   10 cycles
 SCF Done:  E(RB3LYP) =  -706.442098739     A.U. after   10 cycles
 SCF Done:  E(RB3LYP) =  -706.443612051     A.U. after   10 cycles
 SCF Done:  E(RB3LYP) =  -706.444733872     A.U. after    9 cycles
 SCF Done:  E(RB3LYP) =  -706.445199242     A.U. after    9 cycles
 SCF Done:  E(RB3LYP) =  -706.446906585     A.U. after    8 cycles
 SCF Done:  E(RB3LYP) =  -706.446923821     A.U. after    8 cycles
 SCF Done:  E(RB3LYP) =  -706.446923551     A.U. after    8 cycles
 SCF Done:  E(RB3LYP) =  -706.446927672     A.U. after    8 cycles
 SCF Done:  E(RB3LYP) =  -706.446928880     A.U. after    6 cycles
 SCF Done:  E(RB3LYP) =  -706.446929235     A.U. after    6 cycles
 SCF Done:  E(RB3LYP) =  -706.446929291     A.U. after    5 cycles
 SCF Done:  E(RB3LYP) =  -706.446929375     A.U. after    5 cycles
 SCF Done:  E(RB3LYP) =  -706.446929399     A.U. after    5 cycles
 Optimization completed.
    -- Stationary point found.
 Normal termination of Gaussian 16 at Mon May 22 17:46:25 2023.

 ----------------------------------------------------------------------
 #N Geom=AllCheck Guess=TCheck SCRF=Check GenChk RB3LYP/6-31G(2df,p) Fr
 eq
 ----------------------------------------------------------------------

 Structure from the checkpoint file:  "CCC1qCrCCCCCC1CqCrC1CCCqCrC1.chk"
 -------------------
 Title Card Required
 -------------------
 Charge =  0 Multiplicity = 1

                         Standard orientation:
 ---------------------------------------------------------------------
 Center     Atomic      Atomic             Coordinates (Angstroms)
 Number     Number       Type             X           Y           Z
 ---------------------------------------------------------------------
      1          6           0       -1.362857   -2.556733    1.735717
      2          6           0       -1.160409   -2.380025    0.225183
      3          6           0       -1.567178   -1.016706   -0.417073
      4          6           0       -1.127049   -1.099912   -1.894907
      5          6           0       -3.123017   -0.965541   -0.375567
      6          6           0       -3.874176    0.307542   -0.807144
      7          6           0       -3.838702    1.429778    0.241593
      8          6           0       -2.546832    2.273900    0.261982
      9          6           0       -1.277538    1.581324   -0.258980
     10          6           0       -0.935135    0.198983    0.359143
     11          6           0        0.602431    0.097451    0.654689
     12          6           0        0.897679    0.846691    1.968898
     13          6           0        1.524296    0.508921   -0.552550
     14          6           0        2.431575    1.758578   -0.352427
     15          6           0        3.821167    1.235765    0.112433
     16          6           0        3.738741   -0.311733    0.070911
     17          6           0        5.047497   -1.002132   -0.310001
     18          6           0        2.568613   -0.578274   -0.892284
     19          1           0       -1.100395   -3.578528    2.029054
     20          1           0       -2.400529   -2.391376    2.040462
     21          1           0       -0.734934   -1.880585    2.322869
     22          1           0       -1.731831   -3.161220   -0.292996
     23          1           0       -0.111444   -2.589647   -0.013616
     24          1           0       -1.605504   -1.962334   -2.372782
     25          1           0       -0.047523   -1.235573   -1.993525
     26          1           0       -1.407112   -0.217769   -2.476904
     27          1           0       -3.458522   -1.197096    0.642918
     28          1           0       -3.476200   -1.797815   -0.998214
     29          1           0       -4.920990    0.021099   -0.965394
     30          1           0       -3.519718    0.671700   -1.779327
     31          1           0       -3.999180    0.971686    1.225862
     32          1           0       -4.691674    2.100891    0.088977
     33          1           0       -2.370189    2.629424    1.284895
     34          1           0       -2.696267    3.176735   -0.343439
     35          1           0       -0.445799    2.270119   -0.078428
     36          1           0       -1.339562    1.500525   -1.347977
     37          1           0       -1.410956    0.172318    1.348512
     38          1           0        0.827741   -0.951594    0.865257
     39          1           0        0.579209    1.894056    1.932933
     40          1           0        1.961503    0.834772    2.221900
     41          1           0        0.359216    0.375707    2.798317
     42          1           0        0.885410    0.683278   -1.418457
     43          1           0        2.009433    2.489892    0.339023
     44          1           0        2.534069    2.272779   -1.313400
     45          1           0        4.089719    1.596841    1.110057
     46          1           0        4.607730    1.587098   -0.564924
     47          1           0        3.442010   -0.670297    1.065767
     48          1           0        5.379558   -0.686171   -1.306313
     49          1           0        4.936542   -2.091918   -0.326051
     50          1           0        5.848067   -0.761258    0.397993
     51          1           0        2.176449   -1.597861   -0.814450
     52          1           0        2.917025   -0.445149   -1.926305
 ---------------------------------------------------------------------

 SCF Done:  E(RB3LYP) =  -706.446929399     A.U. after    1 cycles

 The electronic state is 1-A.
 Alpha  occ. eigenvalues --  -10.18670 -10.17686 -10.17654 -10.17516 -10.17314
 Alpha  occ. eigenvalues --  -10.17181 -10.17151 -10.17060 -10.17001 -10.16891
 Alpha  occ. eigenvalues --  -10.16874 -10.16837 -10.16824 -10.16753 -10.16752
 Alpha  occ. eigenvalues --  -10.16745 -10.16665 -10.16310  -0.84078  -0.82561
 Alpha  occ. eigenvalues --   -0.78230  -0.77754  -0.73869  -0.72741  -0.72044
 Alpha  occ. eigenvalues --   -0.69945  -0.68092  -0.64760  -0.64248  -0.63107
 Alpha  occ. eigenvalues --   -0.59673  -0.59271  -0.54895  -0.54372  -0.52911
 Alpha  occ. eigenvalues --   -0.50926  -0.47318  -0.46878  -0.46187  -0.45392
 Alpha  occ. eigenvalues --   -0.44315  -0.43735  -0.43449  -0.41907  -0.40995
 Alpha  occ. eigenvalues --   -0.40402  -0.40202  -0.39718  -0.39399  -0.38429
 Alpha  occ. eigenvalues --   -0.37596  -0.37006  -0.36242  -0.35818  -0.35588
 Alpha  occ. eigenvalues --   -0.35217  -0.34803  -0.34359  -0.33874  -0.32677
 Alpha  occ. eigenvalues --   -0.31662  -0.31538  -0.31260  -0.30694  -0.30505
 Alpha  occ. eigenvalues --   -0.30269  -0.29895  -0.29405  -0.28544  -0.28205
 Alpha  occ. eigenvalues --   -0.27407
 Alpha virt. eigenvalues --    0.06807   0.08483   0.08617   0.09103   0.09416
 Alpha virt. eigenvalues --    0.10591   0.11854   0.12222   0.12718   0.13189
 Alpha virt. eigenvalues --    0.13508   0.13946   0.14432   0.14917   0.15455

 Mulliken charges:
               1
     1  C   -0.410335
     2  C   -0.190173
     3  C    0.233228
     4  C   -0.429338
     5  C   -0.196234
     6  C   -0.215065
     7  C   -0.179430
     8  C   -0.212812
     9  C   -0.208074
    10  C   -0.003638
    11  C   -0.007655
    12  C   -0.423709
    13  C    0.010395
    14  C   -0.229845
    15  C   -0.211580
    16  C    0.059753
    17  C   -0.412764
    18  C   -0.235007
    19  H    0.110298
    20  H    0.117609
    21  H    0.124463
    22  H    0.085007
    23  H    0.094776
    24  H    0.102845
    25  H    0.124602
    26  H    0.110042
    27  H    0.087501
    28  H    0.082500
    29  H    0.088351
    30  H    0.091226
    31  H    0.091261
    32  H    0.087661
    33  H    0.091936
    34  H    0.089569
    35  H    0.095192
    36  H    0.094869
    37  H    0.065398
    38  H    0.073180
    39  H    0.116723
    40  H    0.114933
    41  H    0.109110
    42  H    0.071877
    43  H    0.095043
    44  H    0.090317
    45  H    0.093812
    46  H    0.089910
    47  H    0.070625
    48  H    0.109481
    49  H    0.108788
    50  H    0.109678
    51  H    0.091163
    52  H    0.082543
 Sum of Mulliken charges =  -0.00000

 Dipole moment (field-independent basis, Debye):
    X=             -0.0945    Y=             -0.0475    Z=             -0.0003  Tot=              0.1058
 Quadrupole moment (field-independent basis, Debye-Ang):
   XX=           -118.7329   YY=           -118.1660   ZZ=           -117.9284
   XY=              0.3439   XZ=              0.2131   YZ=             -0.5608

  Exact polarizability: 217.618  -1.963 182.819   0.650   0.715 165.712
 Approx polarizability: 270.475   0.895 267.649  -0.581  -0.608 265.458

                      1                      2                      3
                      A                      A                      A
 Frequencies --     29.1697                46.1950                68.3212
 Red. masses --      3.3636                 3.0290                 2.3376
 Frc consts  --      0.0017                 0.0038                 0.0064
 IR Inten    --      0.0014                 0.0034                 0.0017

                      4                      5                      6
                      A                      A                      A
 Frequencies --     89.1167                93.3295                97.5350
 Red. masses --      2.0962                 2.6022                 2.4707
 Frc consts  --      0.0098                 0.0134                 0.0138
 IR Inten    --      0.0128                 0.0029                 0.0080

                      7                      8                      9
                      A                      A                      A
 Frequencies --    122.4452               142.4484               152.6429
 Red. masses --      2.3165                 3.5771                 2.5578
 Frc consts  --      0.0205                 0.0428                 0.0351
 IR Inten    --      0.0028                 0.0202                 0.0066

                     10                     11                     12
                      A                      A                      A
 Frequencies --    191.4902               237.5576               241.4724
 Red. masses --      1.4400                 2.2968                 1.2559
 Frc consts  --      0.0311                 0.0764                 0.0431
 IR Inten    --      0.0127                 0.0214                 0.0185

                     13                     14                     15
                      A                      A                      A
 Frequencies --    244.3302               251.7814               266.6436
 Red. masses --      1.2635                 1.5520                 1.8180
 Frc consts  --      0.0444                 0.0580                 0.0762
 IR Inten    --      0.0975                 0.0281                 0.0200

                     16                     17                     18
                      A                      A                      A
 Frequencies --    276.5573               283.4521               310.6496
 Red. masses --      2.2065                 1.1386                 2.3098
 Frc consts  --      0.0994                 0.0539                 0.1313
 IR Inten    --      0.0146                 0.0331                 0.0138

                     19                     20                     21
                      A                      A                      A
 Frequencies --    316.3179               329.5993               348.2416
 Red. masses --      2.8187                 2.2399                 2.3137
 Frc consts  --      0.1662                 0.1434                 0.1653
 IR Inten    --      0.0128                 0.0131                 0.1379

                     22                     23                     24
                      A                      A                      A
 Frequencies --    353.2846               373.3094               393.0717
 Red. masses --      2.1351                 2.3492                 2.9397
 Frc consts  --      0.1570                 0.1929                 0.2676
 IR Inten    --      0.0645                 0.1183                 0.0376

                     25                     26                     27
                      A                      A                      A
 Frequencies --    414.2976               435.2803               473.6237
 Red. masses --      2.5066                 1.7580                 2.1495
 Frc consts  --      0.2535                 0.1962                 0.2841
 IR Inten    --      0.4244                 0.1361                 0.1680

                     28                     29                     30
                      A                      A                      A
 Frequencies --    510.5767               519.2850               545.8070
 Red. masses --      2.0121                 2.4223                 3.0411
 Frc consts  --      0.3090                 0.3849                 0.5338
 IR Inten    --      0.3855                 0.3594                 1.7995

                     31                     32                     33
                      A                      A                      A
 Frequencies --    552.1225               612.9939               708.3586
 Red. masses --      2.8384                 3.0475                 2.5646
 Frc consts  --      0.5098                 0.6747                 0.7582
 IR Inten    --      0.1534                 0.2110                 0.7490

                     34                     35                     36
                      A                      A                      A
 Frequencies --    724.2812               759.1001               767.1208
 Red. masses --      2.6709                 1.4092                 1.8219
 Frc consts  --      0.8255                 0.4784                 0.6317
 IR Inten    --      0.0994                 1.1157                 1.7260

                     37                     38                     39
                      A                      A                      A
 Frequencies --    782.4241               783.8317               804.5910
 Red. masses --      1.4586                 1.9591                 2.2174
 Frc consts  --      0.5261                 0.7092                 0.8458
 IR Inten    --      1.2268                 1.3362                 2.7301

                     40                     41                     42
                      A                      A                      A
 Frequencies --    839.5070               854.0361               871.3793
 Red. masses --      2.3892                 1.9201                 2.0371
 Frc consts  --      0.9921                 0.8251                 0.9114
 IR Inten    --      0.1271                 1.4356                 0.8345

                     43                     44                     45
                      A                      A                      A
 Frequencies --    884.0202               895.4846               928.0896
 Red. masses --      2.0841                 1.9882                 1.9214
 Frc consts  --      0.9596                 0.9393                 0.9751
 IR Inten    --      1.6401                 0.2379                 0.2800

                     46                     47                     48
                      A                      A                      A
 Frequencies --    933.8284               935.6032               941.6616
 Red. masses --      1.6542                 2.1296                 1.8412
 Frc consts  --      0.8499                 1.0983                 0.9620
 IR Inten    --      0.5968                 0.5915                 0.6114

                     49                     50                     51
                      A                      A                      A
 Frequencies --    948.2717               964.9998               988.2119
 Red. masses --      1.6977                 1.9578                 1.9317
 Frc consts  --      0.8995                 1.0742                 1.1115
 IR Inten    --      0.5049                 0.6884                 0.9235

                     52                     53                     54
                      A                      A                      A
 Frequencies --    994.4798              1010.4998              1015.0060
 Red. masses --      1.8574                 1.6930                 1.8426
 Frc consts  --      1.0823                 1.0185                 1.1185
 IR Inten    --      6.9080                 1.5431                 1.1539

                     55                     56                     57
                      A                      A                      A
 Frequencies --   1017.5668              1035.2219              1046.1941
 Red. masses --      1.8562                 1.8475                 1.8562
 Frc consts  --      1.1324                 1.1666                 1.1970
 IR Inten    --      1.3278                 0.5315                 0.4335

                     58                     59                     60
                      A                      A                      A
 Frequencies --   1052.2926              1060.1306              1078.1977
 Red. masses --      1.7097                 1.7463                 2.0913
 Frc consts  --      1.1154                 1.1564                 1.4324
 IR Inten    --      1.0420                 0.8820                 1.2040

                     61                     62                     63
                      A                      A                      A
 Frequencies --   1096.8765              1107.8256              1114.9778
 Red. masses --      1.7932                 2.1041                 1.8133
 Frc consts  --      1.2711                 1.5214                 1.3282
 IR Inten    --      0.8206                 0.3223                 6.0264

                     64                     65                     66
                      A                      A                      A
 Frequencies --   1129.2606              1134.1431              1144.7490
 Red. masses --      2.2627                 1.9387                 2.0353
 Frc consts  --      1.7001                 1.4692                 1.5715
 IR Inten    --      2.2474                 0.9120                 2.2977

                     67                     68                     69
                      A                      A                      A
 Frequencies --   1155.1759              1185.4393              1195.7259
 Red. masses --      2.2282                 1.6635                 1.4341
 Frc consts  --      1.7518                 1.3773                 1.2081
 IR Inten    --      0.1939                 3.2207                 3.3577

                     70                     71                     72
                      A                      A                      A
 Frequencies --   1207.6902              1215.4883              1225.2542
 Red. masses --      1.6651                 2.0227                 1.7235
 Frc consts  --      1.4309                 1.7607                 1.5245
 IR Inten    --      1.3912                 1.7485                 1.5749

                     73                     74                     75
                      A                      A                      A
 Frequencies --   1238.8476              1251.9789              1254.6414
 Red. masses --      1.3508                 1.3722                 1.2996
 Frc consts  --      1.2214                 1.2672                 1.2053
 IR Inten    --      2.4569                 0.7296                 0.0438

                     76                     77                     78
                      A                      A                      A
 Frequencies --   1281.5136              1286.1446              1299.1368
 Red. masses --      1.1759                 1.2717                 1.2963
 Frc consts  --      1.1378                 1.2394                 1.2891
 IR Inten    --      3.8434                 1.2376                 1.2864

                     79                     80                     81
                      A                      A                      A
 Frequencies --   1307.0227              1317.1709              1323.6693
 Red. masses --      1.1904                 1.1900                 1.2921
 Frc consts  --      1.1981                 1.2164                 1.3339
 IR Inten    --      0.3678                 0.6098                 1.6777

                     82                     83                     84
                      A                      A                      A
 Frequencies --   1328.5448              1332.6559              1338.3560
 Red. masses --      1.2666                 1.3023                 1.2100
 Frc consts  --      1.3172                 1.3627                 1.2770
 IR Inten    --      1.1140                 1.7424                 2.6055

                     85                     86                     87
                      A                      A                      A
 Frequencies --   1353.7114              1357.0450              1368.8035
 Red. masses --      1.3359                 1.3660                 1.3757
 Frc consts  --      1.4424                 1.4822                 1.5186
 IR Inten    --      1.3567                 0.3225                 4.9819

                     88                     89                     90
                      A                      A                      A
 Frequencies --   1369.8766              1378.7006              1380.7319
 Red. masses --      1.3709                 1.3243                 1.3978
 Frc consts  --      1.5157                 1.4831                 1.5701
 IR Inten    --      2.0946                 0.4020                 0.6527

                     91                     92                     93
                      A                      A                      A
 Frequencies --   1383.6055              1389.2299              1391.0737
 Red. masses --      1.4157                 1.3523                 1.3908
 Frc consts  --      1.5968                 1.5377                 1.5856
 IR Inten    --      1.0027                 0.2978                 1.3742

                     94                     95                     96
                      A                      A                      A
 Frequencies --   1396.6530              1406.8880              1410.5736
 Red. masses --      1.3732                 1.3781                 1.2385
 Frc consts  --      1.5781                 1.6071                 1.4520
 IR Inten    --      4.8768                 2.4825                 0.2736

                     97                     98                     99
                      A                      A                      A
 Frequencies --   1414.2685              1416.0414              1419.9983
 Red. masses --      1.2347                 1.2377                 1.2471
 Frc consts  --      1.4550                 1.4623                 1.4816
 IR Inten    --      3.2392                14.6690                 1.6713

                    100                    101                    102
                      A                      A                      A
 Frequencies --   1476.6771              1482.0381              1485.1416
 Red. masses --      1.0773                 1.0777                 1.0746
 Frc consts  --      1.3841                 1.3946                 1.3964
 IR Inten    --      0.8595                 2.6177                 0.8936

                    103                    104                    105
                      A                      A                      A
 Frequencies --   1487.0486              1488.6162              1492.1330
 Red. masses --      1.0727                 1.0870                 1.0801
 Frc consts  --      1.3976                 1.4192                 1.4169
 IR Inten    --      0.8135                 2.2439                 0.8045

                    106                    107                    108
                      A                      A                      A
 Frequencies --   1494.7789              1496.8149              1499.0606
 Red. masses --      1.0615                 1.0531                 1.0532
 Frc consts  --      1.3975                 1.3901                 1.3944
 IR Inten    --      5.0987                 0.9374                 1.5861

                    109                    110                    111
                      A                      A                      A
 Frequencies --   1500.6979              1502.8426              1503.9807
 Red. masses --      1.0486                 1.0536                 1.0567
 Frc consts  --      1.3914                 1.4021                 1.4082
 IR Inten    --      6.3634                 0.2947                 2.6608

                    112                    113                    114
                      A                      A                      A
 Frequencies --   1505.1471              1506.7647              1508.9840
 Red. masses --      1.0702                 1.0564                 1.0778
 Frc consts  --      1.4285                 1.4131                 1.4460
 IR Inten    --      4.3405                 2.4854                 2.9401

                    115                    116                    117
                      A                      A                      A
 Frequencies --   1516.2830              1518.8052              3001.3267
 Red. masses --      1.0715                 1.0787                 1.0747
 Frc consts  --      1.4514                 1.4661                 5.7040
 IR Inten    --     14.3823                 0.5053                 6.6849

                    118                    119                    120
                      A                      A                      A
 Frequencies --   3002.8152              3008.3934              3011.5892
 Red. masses --      1.0808                 1.0633                 1.0604
 Frc consts  --      5.7420                 5.6697                 5.6664
 IR Inten    --      8.8346                16.5219                14.9402

                    121                    122                    123
                      A                      A                      A
 Frequencies --   3012.4758              3018.5708              3020.4805
 Red. masses --      1.0718                 1.0624                 1.0673
 Frc consts  --      5.7309                 5.7036                 5.7370
 IR Inten    --     26.8986                16.2893                40.0055

                    124                    125                    126
                      A                      A                      A
 Frequencies --   3021.0591              3022.5380              3031.6885
 Red. masses --      1.0380                 1.0629                 1.0378
 Frc consts  --      5.5816                 5.7210                 5.6201
 IR Inten    --     30.8081                27.0562                22.9092

                    127                    128                    129
                      A                      A                      A
 Frequencies --   3033.8850              3037.2193              3039.2740
 Red. masses --      1.0627                 1.0443                 1.0665
 Frc consts  --      5.7631                 5.6756                 5.8044
 IR Inten    --     38.8501                26.6944                17.0510

                    130                    131                    132
                      A                      A                      A
 Frequencies --   3041.5285              3046.4341              3049.4887
 Red. masses --      1.0660                 1.0904                 1.0949
 Frc consts  --      5.8104                 5.9625                 5.9990
 IR Inten    --     16.5618                20.0271                55.7560

                    133                    134                    135
                      A                      A                      A
 Frequencies --   3050.3420              3050.9322              3057.3871
 Red. masses --      1.0693                 1.0689                 1.0894
 Frc consts  --      5.8621                 5.8624                 5.9996
 IR Inten    --     39.0904                10.0849                53.4959

                    136                    137                    138
                      A                      A                      A
 Frequencies --   3058.4021              3064.1105              3069.1922
 Red. masses --      1.0970                 1.0991                 1.0951
 Frc consts  --      6.0455                 6.0800                 6.0776
 IR Inten    --     28.6086                69.9063                21.3223

                    139                    140                    141
                      A                      A                      A
 Frequencies --   3073.6953              3082.5724              3087.9337
 Red. masses --      1.0988                 1.0994                 1.1004
 Frc consts  --      6.1166                 6.1551                 6.1823
 IR Inten    --     14.2043                47.6478                33.5388

                    142                    143                    144
                      A                      A                      A
 Frequencies --   3091.1496              3092.4016              3094.8314
 Red. masses --      1.1011                 1.0995                 1.0918
 Frc consts  --      6.1988                 6.1949                 6.1613
 IR Inten    --     16.7967                84.2502                19.6808

                    145                    146                    147
                      A                      A                      A
 Frequencies --   3100.1907              3101.6743              3108.8019
 Red. masses --      1.0993                 1.0874                 1.0985
 Frc consts  --      6.2250                 6.1634                 6.2551
 IR Inten    --     30.7935                51.5810                32.4207

                    148                    149                    150
                      A                      A                      A
 Frequencies --   3109.1186              3112.5827              3124.7353
 Red. masses --      1.0978                 1.1006                 1.0988
 Frc consts  --      6.2524                 6.2826                 6.3209
 IR Inten    --     48.8178                43.6692                25.7478

 - Thermochemistry -
 -------------------
 Temperature   298.150 Kelvin.  Pressure   1.00000 Atm.
 Atom     1 has atomic number  6 and mass  12.00000

 Molecular mass:   250.26605 amu.
 Principal axes and moments of inertia in atomic units:
                           1         2         3
     Eigenvalues --  2620.081067289.207518226.01583
           X            1.00000  -0.00138  -0.00062
           Y            0.00138   1.00000  -0.00061
           Z            0.00062   0.00061   1.00000
 This molecule is an asymmetric top.
 Rotational symmetry number  1.
 Warning -- assumption of classical behavior for rotation
           may cause significant error
 Rotational temperatures (Kelvin)      0.03306     0.01188     0.01053
 Rotational constants (GHZ):           0.68881     0.24759     0.21939
 Zero-point vibrational energy    1283900.9 (Joules/Mol)
                                  306.85967 (Kcal/Mol)
 Warning -- explicit consideration of  32 degrees of freedom as
           vibrations may cause significant error
 Vibrational temperatures:     41.97    66.46    98.30   128.22   134.28
          (Kelvin)            140.33   176.17   204.95   219.62   275.51
                              341.79   347.42   351.54   362.26   383.64
                              397.90   407.82   446.96   455.11   474.22
                              501.04   508.30   537.11   565.54   596.08
                              626.27   681.44   734.61   747.14   785.29
                              794.38   881.96  1019.17  1042.08  1092.18
                             1103.72  1125.73  1127.76  1157.63  1207.86
                             1228.77  1253.72  1271.91  1288.40  1335.31
                             1343.57  1346.12  1354.84  1364.35  1388.42
                             1421.82  1430.83  1453.88  1460.37  1464.05
                             1489.45  1505.24  1514.01  1525.29  1551.29
                             1578.16  1593.91  1604.20  1624.75  1631.78
                             1647.04  1662.04  1705.58  1720.38  1737.60
                             1748.82  1762.87  1782.43  1801.32  1805.15
                             1843.81  1850.48  1869.17  1880.51  1895.12
                             1904.46  1911.48  1917.39  1925.60  1947.69
                             1952.49  1969.40  1970.95  1983.64  1986.57
                             1990.70  1998.79  2001.44  2009.47  2024.20
                             2029.50  2034.82  2037.37  2043.06  2124.61
                             2132.32  2136.79  2139.53  2141.79  2146.85
                             2150.65  2153.58  2156.81  2159.17  2162.26
                             2163.89  2165.57  2167.90  2171.09  2181.59
                             2185.22  4318.24  4320.38  4328.41  4333.01
                             4334.28  4343.05  4345.80  4346.63  4348.76
                             4361.92  4365.08  4369.88  4372.84  4376.08
                             4383.14  4387.53  4388.76  4389.61  4398.90
                             4400.36  4408.57  4415.88  4422.36  4435.13
                             4442.85  4447.47  4449.28  4452.77  4460.48
                             4462.62  4472.87  4473.33  4478.31  4495.80

 Zero-point correction=                           0.489012 (Hartree/Particle)
 Thermal correction to Energy=                    0.508972
 Thermal correction to Enthalpy=                  0.509916
 Thermal correction to Gibbs Free Energy=         0.441876
 Sum of electronic and zero-point Energies=           -705.957917
 Sum of electronic and thermal Energies=              -705.937958
 Sum of electronic and thermal Enthalpies=            -705.937013
 Sum of electronic and thermal Free Energies=         -706.005053

                     E (Thermal)             CV                S
                      KCal/Mol        Cal/Mol-Kelvin    Cal/Mol-Kelvin
 Total                  319.385             79.979            143.203
 Electronic               0.000              0.000              0.000
 Translational            0.889              2.981             42.452
 Rotational               0.889              2.981             33.418
 Vibrational            317.607             74.017             67.332
 Vibration     1          0.593              1.984              5.885
 Vibration     2          0.595              1.979              4.974
 Vibration     3          0.598              1.969              4.201
 Vibration     4          0.602              1.957              3.679
 Vibration     5          0.602              1.954              3.589
 Vibration     6          0.603              1.951              3.503
 Vibration     7          0.610              1.930              3.061
 Vibration     8          0.616              1.911              2.771
 Vibration     9          0.619              1.900              2.639
 Vibration    10          0.634              1.852              2.213
 Vibration    11          0.656              1.783              1.821
 Vibration    12          0.658              1.777              1.792
 Vibration    13          0.660              1.772              1.771
 Vibration    14          0.664              1.760              1.718
 Vibration    15          0.672              1.734              1.618
 Vibration    16          0.678              1.717              1.555
 Vibration    17          0.682              1.704              1.513
 Vibration    18          0.699              1.653              1.359
 Vibration    19          0.703              1.642              1.329
 Vibration    20          0.712              1.616              1.262
 Vibration    21          0.726              1.579              1.174
 Vibration    22          0.729              1.569              1.152
 Vibration    23          0.745              1.527              1.066
 Vibration    24          0.760              1.485              0.988
 Vibration    25          0.778              1.439              0.912
 Vibration    26          0.796              1.393              0.842
 Vibration    27          0.830              1.309              0.727
 Vibration    28          0.866              1.227              0.632
 Vibration    29          0.874              1.207              0.612
 Vibration    30          0.901              1.149              0.553
 Vibration    31          0.907              1.135              0.540
 Vibration    32          0.972              1.004              0.428

                           ! Non-Optimized Parameters !
 Normal termination of Gaussian 16 at Tue May 23 04:06:50 2023.
