 Gaussian 16, Revision A.03,
 Gaussian 16:  ES64L-G16RevA.03 25-Dec-2016

 -----------------------------
 # opt freq b3lyp/6-31g(2df,p)
 -----------------------------

 -------------------
 Title Card Required
 -------------------
 Symbolic Z-matrix:
 Charge =  0 Multiplicity = 1

 SCF Done:  E(RB3LYP) =  -353.833977055     A.U. after   12 cycles
 SCF Done:  E(RB3LYP) =  -353.837853319     A.U. after   10 cycles
 SCF Done:  E(RB3LYP) =  -353.838992131     A.U. after   10 cycles
 SCF Done:  E(RB3LYP) =  -353.839698729     A.U. after   10 cycles
 SCF Done:  E(RB3LYP) =  -353.839985547     A.U. after   10 cycles
 SCF Done:  E(RB3LYP) =  -353.840094288     A.U. after    9 cycles
 SCF Done:  E(RB3LYP) =  -353.840144796     A.U. after    8 cycles
 SCF Done:  E(RB3LYP) =  -353.840276930     A.U. after    9 cycles
 SCF Done:  E(RB3LYP) =  -353.840560144     A.U. after   10 cycles
 SCF Done:  E(RB3LYP) =  -353.840604806     A.U. after    9 cycles
 SCF Done:  E(RB3LYP) =  -353.840757527     A.U. after   10 cycles
 SCF Done:  E(RB3LYP) =  -353.840768468     A.U. after    9 cycles
 SCF Done:  E(RB3LYP) =  -353.840773792     A.U. after    8 cycles
 SCF Done:  E(RB3LYP) =  -353.840789838     A.U. after    9 cycles
 SCF Done:  E(RB3LYP) =  -353.840793703     A.U. after    8 cycles
 SCF Done:  E(RB3LYP) =  -353.840795523     A.U. after    8 cycles
 SCF Done:  E(RB3LYP) =  -353.840795234     A.U. after    7 cycles
 SCF Done:  E(RB3LYP) =  -353.840795964     A.U. after    8 cycles
 SCF Done:  E(RB3LYP) =  -353.840795867     A.U. after    6 cycles
 Optimization completed.
    -- Stationary point found.
 Normal termination of Gaussian 16 at Sun May 28 15:35:55 2023.

 ----------------------------------------------------------------------
 #N Geom=AllCheck Guess=TCheck SCRF=Check GenChk RB3LYP/6-31G(2df,p) Fr
 eq
 ----------------------------------------------------------------------

 Structure from the checkpoint file:  "CCC1CCCqCrqCrC1.chk"
 -------------------
 Title Card Required
 -------------------
 Charge =  0 Multiplicity = 1

                         Standard orientation:
 ---------------------------------------------------------------------
 Center     Atomic      Atomic             Coordinates (Angstroms)
 Number     Number       Type             X           Y           Z
 ---------------------------------------------------------------------
      1          6           0        3.004033    0.798270   -0.401330
      2          6           0        2.423370   -0.138453    0.665432
      3          6           0        0.935821   -0.499903    0.520835
      4          6           0        0.509391   -1.168345   -0.797785
      5          6           0       -1.023966   -1.167691   -0.704668
      6          6           0       -1.410592    0.163384    0.022783
      7          6           0       -2.453486   -0.100279    1.119927
      8          6           0       -1.969905    1.188551   -0.976492
      9          6           0       -0.063223    0.668955    0.635754
     10          1           0        4.060349    0.999651   -0.196802
     11          1           0        2.488596    1.763529   -0.427153
     12          1           0        2.943638    0.362536   -1.403513
     13          1           0        2.575911    0.311856    1.655221
     14          1           0        3.005393   -1.069456    0.669861
     15          1           0        0.706052   -1.211468    1.327998
     16          1           0        0.931909   -2.169709   -0.930887
     17          1           0        0.837434   -0.562453   -1.651569
     18          1           0       -1.352665   -2.025458   -0.106048
     19          1           0       -1.512795   -1.258278   -1.679824
     20          1           0       -3.357269   -0.560291    0.703611
     21          1           0       -2.752037    0.829822    1.617089
     22          1           0       -2.059765   -0.777622    1.886030
     23          1           0       -2.925699    0.853735   -1.395763
     24          1           0       -1.276951    1.348489   -1.810135
     25          1           0       -2.138343    2.158822   -0.495019
     26          1           0       -0.184902    1.011607    1.668748
     27          1           0        0.302482    1.527754    0.061427
 ---------------------------------------------------------------------

 SCF Done:  E(RB3LYP) =  -353.840795867     A.U. after    1 cycles

 The electronic state is 1-A.
 Alpha  occ. eigenvalues --  -10.18515 -10.17579 -10.17432 -10.16899 -10.16854
 Alpha  occ. eigenvalues --  -10.16775 -10.16564 -10.16564 -10.16550  -0.83967
 Alpha  occ. eigenvalues --   -0.77617  -0.73228  -0.69433  -0.67734  -0.64177
 Alpha  occ. eigenvalues --   -0.60645  -0.53890  -0.52289  -0.47321  -0.45215
 Alpha  occ. eigenvalues --   -0.43431  -0.42190  -0.41733  -0.40928  -0.40643
 Alpha  occ. eigenvalues --   -0.37617  -0.36661  -0.35857  -0.34757  -0.34380
 Alpha  occ. eigenvalues --   -0.32158  -0.31109  -0.30553  -0.30125  -0.29752
 Alpha  occ. eigenvalues --   -0.29335
 Alpha virt. eigenvalues --    0.07751   0.09865   0.10096   0.12556   0.14204
 Alpha virt. eigenvalues --    0.14917   0.15080   0.15701   0.15922   0.16654
 Alpha virt. eigenvalues --    0.16965   0.17676   0.18264   0.19361   0.19663

 Mulliken charges:
               1
     1  C   -0.378293
     2  C   -0.206469
     3  C    0.054788
     4  C   -0.214824
     5  C   -0.251248
     6  C    0.359349
     7  C   -0.433001
     8  C   -0.431021
     9  C   -0.262427
    10  H    0.110740
    11  H    0.117856
    12  H    0.117141
    13  H    0.090889
    14  H    0.090495
    15  H    0.063653
    16  H    0.086408
    17  H    0.094276
    18  H    0.089037
    19  H    0.086702
    20  H    0.107183
    21  H    0.106496
    22  H    0.106891
    23  H    0.106184
    24  H    0.107226
    25  H    0.107150
    26  H    0.085651
    27  H    0.089166
 Sum of Mulliken charges =  -0.00000

 Dipole moment (field-independent basis, Debye):
    X=              0.1098    Y=             -0.0705    Z=              0.0663  Tot=              0.1464
 Quadrupole moment (field-independent basis, Debye-Ang):
   XX=            -60.3340   YY=            -59.7371   ZZ=            -59.7671
   XY=             -0.0700   XZ=              0.2080   YZ=              0.0567

  Exact polarizability: 108.160  -0.114  89.530   0.015   0.389  88.421
 Approx polarizability: 134.297   0.218 132.460   0.199   0.367 131.886

                      1                      2                      3
                      A                      A                      A
 Frequencies --     23.7645                73.9137               143.5681
 Red. masses --      2.5380                 1.8008                 2.3369
 Frc consts  --      0.0008                 0.0058                 0.0284
 IR Inten    --      0.0013                 0.0006                 0.0225

                      4                      5                      6
                      A                      A                      A
 Frequencies --    200.3591               256.2337               261.5818
 Red. masses --      1.4420                 1.6105                 1.3467
 Frc consts  --      0.0341                 0.0623                 0.0543
 IR Inten    --      0.0084                 0.0194                 0.0069

                      7                      8                      9
                      A                      A                      A
 Frequencies --    277.3374               299.4068               334.0478
 Red. masses --      1.2572                 1.3192                 2.1037
 Frc consts  --      0.0570                 0.0697                 0.1383
 IR Inten    --      0.0209                 0.0106                 0.0341

                     10                     11                     12
                      A                      A                      A
 Frequencies --    339.5642               411.2285               422.8028
 Red. masses --      2.0278                 2.0807                 1.9656
 Frc consts  --      0.1378                 0.2073                 0.2070
 IR Inten    --      0.0316                 0.0235                 0.0500

                     13                     14                     15
                      A                      A                      A
 Frequencies --    478.5373               540.1671               579.3110
 Red. masses --      2.2000                 2.9017                 2.7557
 Frc consts  --      0.2968                 0.4988                 0.5449
 IR Inten    --      1.3064                 0.2859                 0.2864

                     16                     17                     18
                      A                      A                      A
 Frequencies --    733.6535               775.7305               819.5092
 Red. masses --      2.0953                 1.2653                 2.8429
 Frc consts  --      0.6645                 0.4486                 1.1249
 IR Inten    --      0.4612                 1.6149                 0.0274

                     19                     20                     21
                      A                      A                      A
 Frequencies --    862.2759               887.9183               913.3090
 Red. masses --      2.2832                 1.6972                 1.9275
 Frc consts  --      1.0002                 0.7884                 0.9473
 IR Inten    --      0.5700                 0.1350                 0.2245

                     22                     23                     24
                      A                      A                      A
 Frequencies --    933.0184               949.7829               958.6603
 Red. masses --      2.1583                 1.3893                 2.0255
 Frc consts  --      1.1070                 0.7384                 1.0968
 IR Inten    --      1.3492                 0.1396                 0.5770

                     25                     26                     27
                      A                      A                      A
 Frequencies --    979.3468               995.9883              1022.4611
 Red. masses --      1.9007                 1.4187                 1.7173
 Frc consts  --      1.0741                 0.8292                 1.0578
 IR Inten    --      1.1402                 1.2783                 0.1674

                     28                     29                     30
                      A                      A                      A
 Frequencies --   1034.2202              1057.8377              1102.0397
 Red. masses --      1.3266                 1.2509                 1.9693
 Frc consts  --      0.8360                 0.8247                 1.4092
 IR Inten    --      0.9068                 0.5424                 0.4597

                     31                     32                     33
                      A                      A                      A
 Frequencies --   1108.0530              1153.9639              1192.9460
 Red. masses --      1.7214                 1.8288                 1.8993
 Frc consts  --      1.2452                 1.4348                 1.5925
 IR Inten    --      0.4303                 0.6281                 5.3192

                     34                     35                     36
                      A                      A                      A
 Frequencies --   1221.6220              1240.8214              1254.1374
 Red. masses --      2.1904                 1.5676                 1.9463
 Frc consts  --      1.9260                 1.4220                 1.8036
 IR Inten    --      1.9210                 0.0568                 3.3086

                     37                     38                     39
                      A                      A                      A
 Frequencies --   1280.9398              1288.2826              1316.5397
 Red. masses --      1.5370                 1.3881                 1.2421
 Frc consts  --      1.4859                 1.3573                 1.2685
 IR Inten    --      0.8503                 0.6933                 0.0525

                     40                     41                     42
                      A                      A                      A
 Frequencies --   1324.6723              1345.8545              1366.2934
 Red. masses --      1.4770                 1.3963                 1.5631
 Frc consts  --      1.5270                 1.4901                 1.7192
 IR Inten    --      2.2303                 0.7945                 1.6213

                     43                     44                     45
                      A                      A                      A
 Frequencies --   1371.7978              1398.1987              1399.0621
 Red. masses --      1.3595                 1.2939                 1.2688
 Frc consts  --      1.5074                 1.4904                 1.4633
 IR Inten    --      1.3522                 4.3366                 4.8673

                     46                     47                     48
                      A                      A                      A
 Frequencies --   1417.4231              1421.8204              1484.4935
 Red. masses --      1.2818                 1.2575                 1.0596
 Frc consts  --      1.5173                 1.4978                 1.3757
 IR Inten    --     10.6657                 1.2892                 0.7497

                     49                     50                     51
                      A                      A                      A
 Frequencies --   1484.9415              1486.7354              1488.6428
 Red. masses --      1.0550                 1.0640                 1.0863
 Frc consts  --      1.3706                 1.3856                 1.4183
 IR Inten    --      0.5431                 0.6619                 0.5436

                     52                     53                     54
                      A                      A                      A
 Frequencies --   1496.0747              1502.1202              1503.9730
 Red. masses --      1.0673                 1.0545                 1.0585
 Frc consts  --      1.4075                 1.4019                 1.4107
 IR Inten    --      4.7044                 6.3793                 3.4194

                     55                     56                     57
                      A                      A                      A
 Frequencies --   1505.2855              1508.1116              1510.7758
 Red. masses --      1.0649                 1.0634                 1.0789
 Frc consts  --      1.4216                 1.4250                 1.4509
 IR Inten    --      1.0751                 1.8059                 2.6347

                     58                     59                     60
                      A                      A                      A
 Frequencies --   2983.4360              3014.4415              3015.1429
 Red. masses --      1.0803                 1.0608                 1.0355
 Frc consts  --      5.6655                 5.6796                 5.5466
 IR Inten    --     12.5472                36.1551                38.7358

                     61                     62                     63
                      A                      A                      A
 Frequencies --   3018.7512              3027.7695              3030.3397
 Red. masses --      1.0372                 1.0631                 1.0596
 Frc consts  --      5.5687                 5.7421                 5.7328
 IR Inten    --     18.5072                26.1131                42.5456

                     64                     65                     66
                      A                      A                      A
 Frequencies --   3033.6392              3040.0700              3041.3785
 Red. masses --      1.0534                 1.0441                 1.1012
 Frc consts  --      5.7120                 5.6853                 6.0017
 IR Inten    --      8.0070                27.3851                17.8857

                     67                     68                     69
                      A                      A                      A
 Frequencies --   3070.7255              3072.0906              3080.4511
 Red. masses --      1.0977                 1.1026                 1.1038
 Frc consts  --      6.0983                 6.1311                 6.1714
 IR Inten    --     37.5250                11.4541                26.3026

                     70                     71                     72
                      A                      A                      A
 Frequencies --   3084.1155              3088.0809              3088.3327
 Red. masses --      1.1018                 1.1020                 1.1006
 Frc consts  --      6.1749                 6.1917                 6.1849
 IR Inten    --      1.0527                59.9493                65.3958

                     73                     74                     75
                      A                      A                      A
 Frequencies --   3089.1737              3101.4175              3106.7863
 Red. masses --      1.1009                 1.1005                 1.1013
 Frc consts  --      6.1901                 6.2366                 6.2630
 IR Inten    --     55.8020                41.7313                37.2580

 - Thermochemistry -
 -------------------
 Temperature   298.150 Kelvin.  Pressure   1.00000 Atm.
 Atom     1 has atomic number  6 and mass  12.00000

 Molecular mass:   126.14085 amu.
 Principal axes and moments of inertia in atomic units:
                           1         2         3
     Eigenvalues --   644.859471869.758071914.74819
           X            0.99998   0.00237  -0.00554
           Y           -0.00299   0.99345  -0.11419
           Z            0.00524   0.11420   0.99344
 This molecule is an asymmetric top.
 Rotational symmetry number  1.
 Warning -- assumption of classical behavior for rotation
           may cause significant error
 Rotational temperatures (Kelvin)      0.13431     0.04632     0.04524
 Rotational constants (GHZ):           2.79866     0.96523     0.94255
 Zero-point vibrational energy     662296.3 (Joules/Mol)
                                  158.29262 (Kcal/Mol)
 Warning -- explicit consideration of  15 degrees of freedom as
           vibrations may cause significant error
 Vibrational temperatures:     34.19   106.35   206.56   288.27   368.66
          (Kelvin)            376.36   399.03   430.78   480.62   488.56
                              591.67   608.32   688.51   777.18   833.50
                             1055.56  1116.10  1179.09  1240.62  1277.52
                             1314.05  1342.41  1366.53  1379.30  1409.06
                             1433.01  1471.09  1488.01  1521.99  1585.59
                             1594.24  1660.30  1716.38  1757.64  1785.27
                             1804.42  1842.99  1853.55  1894.21  1905.91
                             1936.38  1965.79  1973.71  2011.70  2012.94
                             2039.36  2045.68  2135.86  2136.50  2139.08
                             2141.82  2152.52  2161.22  2163.88  2165.77
                             2169.84  2173.67  4292.50  4337.11  4338.12
                             4343.31  4356.29  4359.98  4364.73  4373.98
                             4375.87  4418.09  4420.05  4432.08  4437.35
                             4443.06  4443.42  4444.63  4462.25  4469.97

 Zero-point correction=                           0.252255 (Hartree/Particle)
 Thermal correction to Energy=                    0.262760
 Thermal correction to Enthalpy=                  0.263704
 Thermal correction to Gibbs Free Energy=         0.216292
 Sum of electronic and zero-point Energies=           -353.588541
 Sum of electronic and thermal Energies=              -353.578036
 Sum of electronic and thermal Enthalpies=            -353.577092
 Sum of electronic and thermal Free Energies=         -353.624504

                     E (Thermal)             CV                S
                      KCal/Mol        Cal/Mol-Kelvin    Cal/Mol-Kelvin
 Total                  164.884             40.555             99.788
 Electronic               0.000              0.000              0.000
 Translational            0.889              2.981             40.410
 Rotational               0.889              2.981             29.225
 Vibrational            163.107             34.593             30.153
 Vibration     1          0.593              1.985              6.292
 Vibration     2          0.599              1.966              4.046
 Vibration     3          0.616              1.910              2.756
 Vibration     4          0.638              1.839              2.130
 Vibration     5          0.666              1.752              1.687
 Vibration     6          0.669              1.743              1.651
 Vibration     7          0.678              1.715              1.550
 Vibration     8          0.692              1.675              1.420
 Vibration     9          0.716              1.608              1.240
 Vibration    10          0.719              1.596              1.214
 Vibration    11          0.775              1.446              0.922
 Vibration    12          0.785              1.421              0.882
 Vibration    13          0.835              1.298              0.714
 Vibration    14          0.895              1.161              0.565
 Vibration    15          0.936              1.076              0.487

 Optimization completed.
    -- Stationary point found.
 Normal termination of Gaussian 16 at Sun May 28 16:24:47 2023.
