 Gaussian 16, Revision A.03,
 Gaussian 16:  ES64L-G16RevA.03 25-Dec-2016

 -----------------------------
 # opt freq b3lyp/6-31g(2df,p)
 -----------------------------

 -------------------
 Title Card Required
 -------------------
 Symbolic Z-matrix:
 Charge =  0 Multiplicity = 1

 SCF Done:  E(RB3LYP) =  -353.831684232     A.U. after   12 cycles
 SCF Done:  E(RB3LYP) =  -353.835274982     A.U. after   10 cycles
 SCF Done:  E(RB3LYP) =  -353.836383183     A.U. after    9 cycles
 SCF Done:  E(RB3LYP) =  -353.836774631     A.U. after    9 cycles
 SCF Done:  E(RB3LYP) =  -353.836930763     A.U. after    9 cycles
 SCF Done:  E(RB3LYP) =  -353.836954768     A.U. after    8 cycles
 SCF Done:  E(RB3LYP) =  -353.836963906     A.U. after    8 cycles
 SCF Done:  E(RB3LYP) =  -353.836971284     A.U. after    8 cycles
 SCF Done:  E(RB3LYP) =  -353.836979359     A.U. after    8 cycles
 SCF Done:  E(RB3LYP) =  -353.836996813     A.U. after    9 cycles
 SCF Done:  E(RB3LYP) =  -353.838032791     A.U. after   10 cycles
 SCF Done:  E(RB3LYP) =  -353.838643569     A.U. after    9 cycles
 SCF Done:  E(RB3LYP) =  -353.838646602     A.U. after   10 cycles
 SCF Done:  E(RB3LYP) =  -353.838676491     A.U. after   10 cycles
 SCF Done:  E(RB3LYP) =  -353.838718665     A.U. after    9 cycles
 SCF Done:  E(RB3LYP) =  -353.838720731     A.U. after    9 cycles
 SCF Done:  E(RB3LYP) =  -353.838740929     A.U. after    9 cycles
 SCF Done:  E(RB3LYP) =  -353.838741143     A.U. after    6 cycles
 SCF Done:  E(RB3LYP) =  -353.838741159     A.U. after    6 cycles
 Optimization completed.
    -- Stationary point found.
 Normal termination of Gaussian 16 at Sun May 28 18:53:06 2023.

 ----------------------------------------------------------------------
 #N Geom=AllCheck Guess=TCheck SCRF=Check GenChk RB3LYP/6-31G(2df,p) Fr
 eq
 ----------------------------------------------------------------------

 Structure from the checkpoint file:  "CCC1CCCC1CC.chk"
 -------------------
 Title Card Required
 -------------------
 Charge =  0 Multiplicity = 1

                         Standard orientation:
 ---------------------------------------------------------------------
 Center     Atomic      Atomic             Coordinates (Angstroms)
 Number     Number       Type             X           Y           Z
 ---------------------------------------------------------------------
      1          6           0        1.567572    1.925542    0.839869
      2          6           0        0.639176    1.739760   -0.366961
      3          6           0        0.269484    0.284744   -0.728582
      4          6           0        1.505934   -0.628898   -0.978867
      5          6           0        1.573554   -1.573125    0.233318
      6          6           0        0.094907   -1.826029    0.550506
      7          6           0       -0.587134   -0.453045    0.354840
      8          6           0       -2.078669   -0.580627    0.013751
      9          6           0       -2.843494    0.745187   -0.046226
     10          1           0        1.772167    2.988248    1.004735
     11          1           0        2.531199    1.427230    0.692623
     12          1           0        1.129175    1.532065    1.762600
     13          1           0        1.112369    2.199849   -1.244469
     14          1           0       -0.284485    2.305577   -0.193117
     15          1           0       -0.317572    0.339345   -1.653585
     16          1           0        2.427099   -0.057820   -1.131272
     17          1           0        1.350837   -1.220191   -1.888551
     18          1           0        2.057967   -1.072894    1.080599
     19          1           0        2.136943   -2.489535    0.032604
     20          1           0       -0.074773   -2.240687    1.549311
     21          1           0       -0.317220   -2.546096   -0.169911
     22          1           0       -0.508328    0.102041    1.299387
     23          1           0       -2.553423   -1.232298    0.759369
     24          1           0       -2.176830   -1.103034   -0.948275
     25          1           0       -2.776302    1.285240    0.905080
     26          1           0       -3.904527    0.578432   -0.258307
     27          1           0       -2.452272    1.403470   -0.828710
 ---------------------------------------------------------------------

 SCF Done:  E(RB3LYP) =  -353.838741159     A.U. after    1 cycles

 The electronic state is 1-A.
 Alpha  occ. eigenvalues --  -10.17440 -10.17330 -10.17322 -10.17309 -10.16987
 Alpha  occ. eigenvalues --  -10.16872 -10.16861 -10.16855 -10.16846  -0.83469
 Alpha  occ. eigenvalues --   -0.76330  -0.75709  -0.69216  -0.68398  -0.61911
 Alpha  occ. eigenvalues --   -0.58726  -0.56222  -0.52653  -0.47421  -0.46131
 Alpha  occ. eigenvalues --   -0.43628  -0.43043  -0.41839  -0.39885  -0.39548
 Alpha  occ. eigenvalues --   -0.37357  -0.36465  -0.35557  -0.34783  -0.33574
 Alpha  occ. eigenvalues --   -0.32361  -0.31238  -0.30831  -0.30207  -0.29735
 Alpha  occ. eigenvalues --   -0.28934
 Alpha virt. eigenvalues --    0.08011   0.09349   0.10285   0.11564   0.13269
 Alpha virt. eigenvalues --    0.14493   0.15024   0.16041   0.16201   0.16360
 Alpha virt. eigenvalues --    0.17520   0.17848   0.18594   0.19747   0.20351

 Mulliken charges:
               1
     1  C   -0.377407
     2  C   -0.199191
     3  C    0.036120
     4  C   -0.221471
     5  C   -0.206250
     6  C   -0.218927
     7  C    0.049404
     8  C   -0.187313
     9  C   -0.386073
    10  H    0.110257
    11  H    0.118034
    12  H    0.116836
    13  H    0.089744
    14  H    0.094774
    15  H    0.061028
    16  H    0.088947
    17  H    0.090931
    18  H    0.096064
    19  H    0.087914
    20  H    0.087911
    21  H    0.089281
    22  H    0.062088
    23  H    0.089081
    24  H    0.089405
    25  H    0.111203
    26  H    0.108518
    27  H    0.119093
 Sum of Mulliken charges =  -0.00000

 Dipole moment (field-independent basis, Debye):
    X=             -0.0397    Y=              0.0135    Z=             -0.0286  Tot=              0.0508
 Quadrupole moment (field-independent basis, Debye-Ang):
   XX=            -60.1714   YY=            -60.0043   ZZ=            -59.2142
   XY=              0.3299   XZ=             -0.1464   YZ=              0.2031

  Exact polarizability: 102.069  -0.371  98.168  -0.201  -0.200  84.889
 Approx polarizability: 133.028   0.910 132.706  -0.276   0.731 131.662

                      1                      2                      3
                      A                      A                      A
 Frequencies --     56.2783               108.9998               130.0279
 Red. masses --      2.6553                 2.0930                 1.8749
 Frc consts  --      0.0050                 0.0147                 0.0187
 IR Inten    --      0.0050                 0.0121                 0.0151

                      4                      5                      6
                      A                      A                      A
 Frequencies --    177.9319               205.1306               224.6667
 Red. masses --      2.2603                 1.7184                 1.3630
 Frc consts  --      0.0422                 0.0426                 0.0405
 IR Inten    --      0.0173                 0.0054                 0.0146

                      7                      8                      9
                      A                      A                      A
 Frequencies --    259.7095               272.1967               338.5017
 Red. masses --      1.3711                 1.6694                 1.9931
 Frc consts  --      0.0545                 0.0729                 0.1346
 IR Inten    --      0.0294                 0.0372                 0.0450

                     10                     11                     12
                      A                      A                      A
 Frequencies --    384.2831               394.3076               511.5978
 Red. masses --      2.1009                 2.8301                 2.3632
 Frc consts  --      0.1828                 0.2592                 0.3644
 IR Inten    --      0.2279                 0.0629                 0.4781

                     13                     14                     15
                      A                      A                      A
 Frequencies --    552.4774               630.5487               742.6672
 Red. masses --      2.0903                 2.6704                 1.8934
 Frc consts  --      0.3759                 0.6256                 0.6153
 IR Inten    --      0.7263                 0.1022                 0.2677

                     16                     17                     18
                      A                      A                      A
 Frequencies --    781.2059               791.8269               859.7134
 Red. masses --      1.2832                 1.2982                 1.8872
 Frc consts  --      0.4614                 0.4796                 0.8218
 IR Inten    --      2.0841                 1.4095                 0.7919

                     19                     20                     21
                      A                      A                      A
 Frequencies --    876.6970               899.6440               917.5410
 Red. masses --      1.8821                 1.6560                 2.4935
 Frc consts  --      0.8523                 0.7897                 1.2369
 IR Inten    --      2.3815                 1.1286                 0.7092

                     22                     23                     24
                      A                      A                      A
 Frequencies --    937.9514               948.0010              1004.6362
 Red. masses --      1.8564                 2.0184                 1.6139
 Frc consts  --      0.9622                 1.0688                 0.9597
 IR Inten    --      0.3891                 1.4255                 0.1769

                     25                     26                     27
                      A                      A                      A
 Frequencies --   1019.7969              1036.7243              1045.4787
 Red. masses --      1.8514                 1.7109                 2.0252
 Frc consts  --      1.1344                 1.0835                 1.3042
 IR Inten    --      1.9540                 1.9496                 0.2935

                     28                     29                     30
                      A                      A                      A
 Frequencies --   1059.9822              1086.9351              1106.7127
 Red. masses --      1.3228                 2.0175                 1.6104
 Frc consts  --      0.8756                 1.4043                 1.1621
 IR Inten    --      0.2222                 0.6957                 0.1345

                     31                     32                     33
                      A                      A                      A
 Frequencies --   1147.8314              1166.3718              1189.2496
 Red. masses --      2.1706                 1.8804                 1.6454
 Frc consts  --      1.6849                 1.5072                 1.3711
 IR Inten    --      0.5346                 0.7760                 1.0725

                     34                     35                     36
                      A                      A                      A
 Frequencies --   1205.7016              1257.8182              1269.0913
 Red. masses --      1.6806                 1.3132                 1.3253
 Frc consts  --      1.4394                 1.2241                 1.2576
 IR Inten    --      0.4634                 0.8440                 0.4079

                     37                     38                     39
                      A                      A                      A
 Frequencies --   1291.7588              1304.7547              1320.9845
 Red. masses --      1.2577                 1.2323                 1.3039
 Frc consts  --      1.2365                 1.2360                 1.3406
 IR Inten    --      1.6279                 0.7787                 0.1705

                     40                     41                     42
                      A                      A                      A
 Frequencies --   1326.9752              1332.8652              1346.6413
 Red. masses --      1.2618                 1.3886                 1.2229
 Frc consts  --      1.3090                 1.4535                 1.3066
 IR Inten    --      1.5473                 1.0986                 1.4185

                     43                     44                     45
                      A                      A                      A
 Frequencies --   1360.1477              1368.9022              1383.4901
 Red. masses --      1.3970                 1.4120                 1.5198
 Frc consts  --      1.5227                 1.5589                 1.7139
 IR Inten    --      1.3410                 1.6437                 2.7250

                     46                     47                     48
                      A                      A                      A
 Frequencies --   1396.3524              1411.3429              1415.8652
 Red. masses --      1.3573                 1.2450                 1.2768
 Frc consts  --      1.5592                 1.4612                 1.5081
 IR Inten    --      1.4305                 2.3966                 7.9967

                     49                     50                     51
                      A                      A                      A
 Frequencies --   1482.2605              1484.6902              1489.7746
 Red. masses --      1.0658                 1.0771                 1.0777
 Frc consts  --      1.3796                 1.3988                 1.4093
 IR Inten    --      0.6938                 0.4837                 0.4742

                     52                     53                     54
                      A                      A                      A
 Frequencies --   1491.7797              1500.0994              1502.2182
 Red. masses --      1.0820                 1.0431                 1.0669
 Frc consts  --      1.4187                 1.3830                 1.4186
 IR Inten    --      2.0217                 5.4426                 2.6151

                     55                     56                     57
                      A                      A                      A
 Frequencies --   1507.0075              1508.7756              1513.1623
 Red. masses --      1.0651                 1.0618                 1.0876
 Frc consts  --      1.4252                 1.4241                 1.4672
 IR Inten    --      6.9115                 4.2310                 2.6601

                     58                     59                     60
                      A                      A                      A
 Frequencies --   3001.2276              3004.4696              3008.1456
 Red. masses --      1.0726                 1.0676                 1.0735
 Frc consts  --      5.6925                 5.6778                 5.7234
 IR Inten    --      6.9515                 5.8889                 2.9112

                     61                     62                     63
                      A                      A                      A
 Frequencies --   3016.7384              3021.1800              3029.0862
 Red. masses --      1.0676                 1.0700                 1.0382
 Frc consts  --      5.7245                 5.7542                 5.6123
 IR Inten    --     69.6374                31.8001                28.4259

                     64                     65                     66
                      A                      A                      A
 Frequencies --   3032.6603              3035.7809              3038.3889
 Red. masses --      1.0602                 1.0453                 1.0726
 Frc consts  --      5.7451                 5.6759                 5.8342
 IR Inten    --      5.8197                41.2688                 2.8450

                     67                     68                     69
                      A                      A                      A
 Frequencies --   3040.1894              3049.7394              3074.8222
 Red. masses --      1.0856                 1.0993                 1.0979
 Frc consts  --      5.9119                 6.0239                 6.1156
 IR Inten    --     61.8540                27.3793                36.8085

                     70                     71                     72
                      A                      A                      A
 Frequencies --   3075.3074              3087.5642              3094.5773
 Red. masses --      1.0947                 1.1048                 1.1010
 Frc consts  --      6.0997                 6.2052                 6.2119
 IR Inten    --     31.5643                76.2981                45.9881

                     73                     74                     75
                      A                      A                      A
 Frequencies --   3099.4842              3100.9208              3103.8587
 Red. masses --      1.1006                 1.1009                 1.1012
 Frc consts  --      6.2298                 6.2373                 6.2503
 IR Inten    --     23.7336                63.2049                31.6266

 - Thermochemistry -
 -------------------
 Temperature   298.150 Kelvin.  Pressure   1.00000 Atm.
 Atom     1 has atomic number  6 and mass  12.00000

 Molecular mass:   126.14085 amu.
 Principal axes and moments of inertia in atomic units:
                           1         2         3
     Eigenvalues --   987.169591325.689881912.71991
           X            0.99998   0.00190   0.00629
           Y           -0.00194   0.99997   0.00692
           Z           -0.00628  -0.00693   0.99996
 This molecule is an asymmetric top.
 Rotational symmetry number  1.
 Warning -- assumption of classical behavior for rotation
           may cause significant error
 Rotational temperatures (Kelvin)      0.08774     0.06533     0.04528
 Rotational constants (GHZ):           1.82820     1.36136     0.94355
 Zero-point vibrational energy     665436.1 (Joules/Mol)
                                  159.04304 (Kcal/Mol)
 Warning -- explicit consideration of  13 degrees of freedom as
           vibrations may cause significant error
 Vibrational temperatures:     80.97   156.83   187.08   256.00   295.14
          (Kelvin)            323.25   373.66   391.63   487.03   552.90
                              567.32   736.08   794.89   907.22  1068.53
                             1123.98  1139.26  1236.94  1261.37  1294.39
                             1320.14  1349.50  1363.96  1445.45  1467.26
                             1491.62  1504.21  1525.08  1563.86  1592.31
                             1651.47  1678.15  1711.06  1734.74  1809.72
                             1825.94  1858.55  1877.25  1900.60  1909.22
                             1917.70  1937.52  1956.95  1969.54  1990.53
                             2009.04  2030.61  2037.11  2132.64  2136.14
                             2143.45  2146.34  2158.31  2161.36  2168.25
                             2170.79  2177.10  4318.10  4322.76  4328.05
                             4340.41  4346.80  4358.18  4363.32  4367.81
                             4371.56  4374.15  4387.89  4423.98  4424.68
                             4442.32  4452.41  4459.47  4461.53  4465.76

 Zero-point correction=                           0.253451 (Hartree/Particle)
 Thermal correction to Energy=                    0.263710
 Thermal correction to Enthalpy=                  0.264654
 Thermal correction to Gibbs Free Energy=         0.218281
 Sum of electronic and zero-point Energies=           -353.585290
 Sum of electronic and thermal Energies=              -353.575031
 Sum of electronic and thermal Enthalpies=            -353.574087
 Sum of electronic and thermal Free Energies=         -353.620461

                     E (Thermal)             CV                S
                      KCal/Mol        Cal/Mol-Kelvin    Cal/Mol-Kelvin
 Total                  165.481             39.409             97.602
 Electronic               0.000              0.000              0.000
 Translational            0.889              2.981             40.410
 Rotational               0.889              2.981             29.305
 Vibrational            163.703             33.448             27.886
 Vibration     1          0.596              1.975              4.584
 Vibration     2          0.606              1.942              3.287
 Vibration     3          0.612              1.923              2.946
 Vibration     4          0.628              1.869              2.350
 Vibration     5          0.640              1.833              2.087
 Vibration     6          0.649              1.803              1.921
 Vibration     7          0.668              1.746              1.664
 Vibration     8          0.675              1.725              1.582
 Vibration     9          0.719              1.599              1.219
 Vibration    10          0.753              1.504              1.022
 Vibration    11          0.761              1.482              0.984
 Vibration    12          0.867              1.224              0.630
 Vibration    13          0.908              1.134              0.539

 Optimization completed.
    -- Stationary point found.
 Normal termination of Gaussian 16 at Sun May 28 19:40:49 2023.
