 Gaussian 16, Revision A.03,
 Gaussian 16:  ES64L-G16RevA.03 25-Dec-2016

 -----------------------------
 # opt freq b3lyp/6-31g(2df,p)
 -----------------------------

 -------------------
 Title Card Required
 -------------------
 Symbolic Z-matrix:
 Charge =  0 Multiplicity = 1

 SCF Done:  E(RB3LYP) =  -275.203057868     A.U. after   11 cycles
 SCF Done:  E(RB3LYP) =  -275.205355965     A.U. after   10 cycles
 SCF Done:  E(RB3LYP) =  -275.205529008     A.U. after    9 cycles
 SCF Done:  E(RB3LYP) =  -275.205557091     A.U. after    8 cycles
 SCF Done:  E(RB3LYP) =  -275.205560455     A.U. after    7 cycles
 SCF Done:  E(RB3LYP) =  -275.205560704     A.U. after    6 cycles
 SCF Done:  E(RB3LYP) =  -275.205560790     A.U. after    6 cycles
 SCF Done:  E(RB3LYP) =  -275.205560812     A.U. after    5 cycles
 SCF Done:  E(RB3LYP) =  -275.205560833     A.U. after    5 cycles
 SCF Done:  E(RB3LYP) =  -275.205560866     A.U. after    6 cycles
 SCF Done:  E(RB3LYP) =  -275.205562602     A.U. after    8 cycles
 SCF Done:  E(RB3LYP) =  -275.205563117     A.U. after    8 cycles
 SCF Done:  E(RB3LYP) =  -275.205563744     A.U. after    8 cycles
 SCF Done:  E(RB3LYP) =  -275.205564131     A.U. after    8 cycles
 SCF Done:  E(RB3LYP) =  -275.205564234     A.U. after    7 cycles
 SCF Done:  E(RB3LYP) =  -275.205564303     A.U. after    7 cycles
 SCF Done:  E(RB3LYP) =  -275.205564349     A.U. after    6 cycles
 SCF Done:  E(RB3LYP) =  -275.205564359     A.U. after    6 cycles
 SCF Done:  E(RB3LYP) =  -275.205564361     A.U. after    5 cycles
 Optimization completed.
    -- Stationary point found.
 Normal termination of Gaussian 16 at Sun May 28 02:34:17 2023.

 ----------------------------------------------------------------------
 #N Geom=AllCheck Guess=TCheck SCRF=Check GenChk RB3LYP/6-31G(2df,p) Fr
 eq
 ----------------------------------------------------------------------

 Structure from the checkpoint file:  "CCC1CCCC1.chk"
 -------------------
 Title Card Required
 -------------------
 Charge =  0 Multiplicity = 1

                         Standard orientation:
 ---------------------------------------------------------------------
 Center     Atomic      Atomic             Coordinates (Angstroms)
 Number     Number       Type             X           Y           Z
 ---------------------------------------------------------------------
      1          6           0       -2.466230    0.000044   -0.714800
      2          6           0       -1.772793   -0.000055    0.653460
      3          6           0       -0.235434   -0.000032    0.641171
      4          6           0        0.446127   -1.198866   -0.045031
      5          6           0        1.928697   -0.780015   -0.169101
      6          6           0        1.928677    0.780051   -0.169094
      7          6           0        0.446099    1.198864   -0.044947
      8          1           0       -3.553739   -0.000048   -0.590157
      9          1           0       -2.206628   -0.883502   -1.306266
     10          1           0       -2.206756    0.883759   -1.306068
     11          1           0       -2.113903   -0.875144    1.222184
     12          1           0       -2.113934    0.874930    1.222327
     13          1           0        0.089636   -0.000070    1.692838
     14          1           0        0.015074   -1.348496   -1.042063
     15          1           0        0.313390   -2.136001    0.504842
     16          1           0        2.395117   -1.194240   -1.067301
     17          1           0        2.503726   -1.158407    0.682010
     18          1           0        2.395030    1.194289   -1.067322
     19          1           0        2.503747    1.158455    0.681982
     20          1           0        0.015020    1.348570   -1.041955
     21          1           0        0.313363    2.135954    0.505003
 ---------------------------------------------------------------------

 SCF Done:  E(RB3LYP) =  -275.205564361     A.U. after    1 cycles

 The electronic state is 1-A.
 Alpha  occ. eigenvalues --  -10.17533 -10.17393 -10.17086 -10.17069 -10.16842
 Alpha  occ. eigenvalues --  -10.16841 -10.16819  -0.82908  -0.75812  -0.69846
 Alpha  occ. eigenvalues --   -0.68596  -0.61415  -0.55618  -0.53681  -0.47319
 Alpha  occ. eigenvalues --   -0.45582  -0.43319  -0.42249  -0.40737  -0.37404
 Alpha  occ. eigenvalues --   -0.35941  -0.34907  -0.32906  -0.32595  -0.31114
 Alpha  occ. eigenvalues --   -0.30844  -0.30210  -0.29863
 Alpha virt. eigenvalues --    0.08115   0.09717   0.11086   0.12938   0.14570
 Alpha virt. eigenvalues --    0.15817   0.16584   0.16770   0.17581   0.18691
 Alpha virt. eigenvalues --    0.18809   0.19862   0.20933   0.21538   0.23553

 Mulliken charges:
               1
     1  C   -0.377353
     2  C   -0.204446
     3  C    0.061017
     4  C   -0.203276
     5  C   -0.201742
     6  C   -0.201742
     7  C   -0.203277
     8  H    0.110518
     9  H    0.117034
    10  H    0.117035
    11  H    0.090488
    12  H    0.090488
    13  H    0.062955
    14  H    0.094325
    15  H    0.087023
    16  H    0.093646
    17  H    0.096156
    18  H    0.093647
    19  H    0.096156
    20  H    0.094326
    21  H    0.087022
 Sum of Mulliken charges =  -0.00000

 Dipole moment (field-independent basis, Debye):
    X=             -0.0352    Y=             -0.0000    Z=              0.0856  Tot=              0.0925
 Quadrupole moment (field-independent basis, Debye-Ang):
   XX=            -46.8789   YY=            -46.4823   ZZ=            -45.7599
   XY=              0.0000   XZ=             -0.0155   YZ=              0.0000

  Exact polarizability:  83.123   0.000  70.962  -0.301   0.000  66.934
 Approx polarizability: 102.421  -0.000 100.874   0.157   0.000 101.238

                      1                      2                      3
                      A                      A                      A
 Frequencies --     17.0474                75.7191               145.7424
 Red. masses --      1.5568                 1.7439                 2.3719
 Frc consts  --      0.0003                 0.0059                 0.0297
 IR Inten    --      0.0020                 0.0013                 0.0172

                      4                      5                      6
                      A                      A                      A
 Frequencies --    220.4641               284.0412               312.6001
 Red. masses --      1.3062                 2.4827                 1.8043
 Frc consts  --      0.0374                 0.1180                 0.1039
 IR Inten    --      0.0088                 0.0247                 0.0111

                      7                      8                      9
                      A                      A                      A
 Frequencies --    476.5308               562.3745               628.3626
 Red. masses --      2.0017                 2.8467                 2.5696
 Frc consts  --      0.2678                 0.5305                 0.5978
 IR Inten    --      1.5129                 0.4429                 0.2156

                     10                     11                     12
                      A                      A                      A
 Frequencies --    754.1342               769.1375               823.9092
 Red. masses --      1.2536                 1.2519                 1.5107
 Frc consts  --      0.4200                 0.4364                 0.6042
 IR Inten    --      0.7189                 1.7756                 0.0358

                     13                     14                     15
                      A                      A                      A
 Frequencies --    851.5419               891.0859               927.4094
 Red. masses --      3.3252                 2.6491                 2.1544
 Frc consts  --      1.4206                 1.2393                 1.0917
 IR Inten    --      0.3735                 0.5883                 0.4218

                     16                     17                     18
                      A                      A                      A
 Frequencies --    943.5033               962.8177               978.8172
 Red. masses --      2.0874                 1.5370                 1.2556
 Frc consts  --      1.0948                 0.8395                 0.7088
 IR Inten    --      1.9811                 1.5459                 0.2274

                     19                     20                     21
                      A                      A                      A
 Frequencies --   1022.2559              1046.4678              1055.1898
 Red. masses --      1.7474                 2.4389                 1.3502
 Frc consts  --      1.0759                 1.5736                 0.8857
 IR Inten    --      0.1274                 0.6456                 0.9860

                     22                     23                     24
                      A                      A                      A
 Frequencies --   1109.9278              1161.5667              1198.0105
 Red. masses --      2.0542                 1.9924                 1.4158
 Frc consts  --      1.4910                 1.5838                 1.1972
 IR Inten    --      0.2094                 0.1642                 1.7081

                     25                     26                     27
                      A                      A                      A
 Frequencies --   1205.9788              1241.6002              1256.3434
 Red. masses --      1.4927                 1.5550                 1.2634
 Frc consts  --      1.2791                 1.4124                 1.1749
 IR Inten    --      0.2197                 0.0735                 0.2826

                     28                     29                     30
                      A                      A                      A
 Frequencies --   1296.5231              1311.2561              1311.9492
 Red. masses --      1.1862                 1.2568                 1.2108
 Frc consts  --      1.1748                 1.2732                 1.2279
 IR Inten    --      0.0346                 0.3758                 0.1352

                     31                     32                     33
                      A                      A                      A
 Frequencies --   1330.1744              1337.2231              1367.0623
 Red. masses --      1.3155                 1.3136                 1.5843
 Frc consts  --      1.3714                 1.3839                 1.7444
 IR Inten    --      0.8481                 0.0358                 2.6757

                     34                     35                     36
                      A                      A                      A
 Frequencies --   1371.7009              1399.7552              1418.2909
 Red. masses --      1.3767                 1.3348                 1.3056
 Frc consts  --      1.5261                 1.5409                 1.5473
 IR Inten    --      1.6563                 2.9182                 9.5898

                     37                     38                     39
                      A                      A                      A
 Frequencies --   1485.4614              1486.0684              1495.4382
 Red. masses --      1.0679                 1.0791                 1.0889
 Frc consts  --      1.3883                 1.4041                 1.4347
 IR Inten    --      0.6878                 0.0177                 0.3813

                     40                     41                     42
                      A                      A                      A
 Frequencies --   1496.0646              1503.2703              1507.6545
 Red. masses --      1.0856                 1.0400                 1.0655
 Frc consts  --      1.4316                 1.3847                 1.4270
 IR Inten    --      2.3491                 4.3318                 3.6986

                     43                     44                     45
                      A                      A                      A
 Frequencies --   1519.6761              2980.9292              3014.5681
 Red. masses --      1.1026                 1.0806                 1.0618
 Frc consts  --      1.5003                 5.6573                 5.6851
 IR Inten    --      0.1997                16.4137                47.7364

                     46                     47                     48
                      A                      A                      A
 Frequencies --   3031.3296              3034.3027              3040.7827
 Red. masses --      1.0617                 1.0504                 1.0758
 Frc consts  --      5.7480                 5.6982                 5.8609
 IR Inten    --     22.8498                 7.7465                37.3160

                     49                     50                     51
                      A                      A                      A
 Frequencies --   3041.0087              3041.7119              3054.3848
 Red. masses --      1.0458                 1.0898                 1.0659
 Frc consts  --      5.6979                 5.9408                 5.8591
 IR Inten    --     59.5364                 0.7942                35.6770

                     52                     53                     54
                      A                      A                      A
 Frequencies --   3069.1347              3078.9285              3083.9286
 Red. masses --      1.0966                 1.0979                 1.1048
 Frc consts  --      6.0861                 6.1319                 6.1909
 IR Inten    --     45.6569                18.2850                15.8950

                     55                     56                     57
                      A                      A                      A
 Frequencies --   3100.1433              3102.9644              3107.4906
 Red. masses --      1.1028                 1.1028                 1.1013
 Frc consts  --      6.2445                 6.2560                 6.2659
 IR Inten    --     32.9968                92.9312                36.1359

 - Thermochemistry -
 -------------------
 Temperature   298.150 Kelvin.  Pressure   1.00000 Atm.
 Atom     1 has atomic number  6 and mass  12.00000

 Molecular mass:    98.10955 amu.
 Principal axes and moments of inertia in atomic units:
                           1         2         3
     Eigenvalues --   368.489481049.487711185.63399
           X            0.99998  -0.00000   0.00628
           Y            0.00000   1.00000  -0.00000
           Z           -0.00628   0.00000   0.99998
 This molecule is an asymmetric top.
 Rotational symmetry number  1.
 Rotational temperatures (Kelvin)      0.23505     0.08253     0.07305
 Rotational constants (GHZ):           4.89767     1.71964     1.52217
 Zero-point vibrational energy     516438.4 (Joules/Mol)
                                  123.43174 (Kcal/Mol)
 Warning -- explicit consideration of   8 degrees of freedom as
           vibrations may cause significant error
 Vibrational temperatures:     24.53   108.94   209.69   317.20   408.67
          (Kelvin)            449.76   685.62   809.13   904.07  1085.03
                             1106.62  1185.42  1225.18  1282.07  1334.34
                             1357.49  1385.28  1408.30  1470.80  1505.63
                             1518.18  1596.94  1671.24  1723.67  1735.13
                             1786.39  1807.60  1865.41  1886.61  1887.60
                             1913.82  1923.97  1966.90  1973.57  2013.94
                             2040.60  2137.25  2138.12  2151.60  2152.50
                             2162.87  2169.18  2186.47  4288.89  4337.29
                             4361.41  4365.68  4375.01  4375.33  4376.34
                             4394.58  4415.80  4429.89  4437.09  4460.41
                             4464.47  4470.99

 Zero-point correction=                           0.196701 (Hartree/Particle)
 Thermal correction to Energy=                    0.204682
 Thermal correction to Enthalpy=                  0.205626
 Thermal correction to Gibbs Free Energy=         0.163040
 Sum of electronic and zero-point Energies=           -275.008863
 Sum of electronic and thermal Energies=              -275.000882
 Sum of electronic and thermal Enthalpies=            -274.999938
 Sum of electronic and thermal Free Energies=         -275.042525

                     E (Thermal)             CV                S
                      KCal/Mol        Cal/Mol-Kelvin    Cal/Mol-Kelvin
 Total                  128.440             29.156             89.631
 Electronic               0.000              0.000              0.000
 Translational            0.889              2.981             39.661
 Rotational               0.889              2.981             27.619
 Vibrational            126.663             23.194             22.351
 Vibration     1          0.593              1.986              6.951
 Vibration     2          0.599              1.965              3.999
 Vibration     3          0.617              1.907              2.727
 Vibration     4          0.647              1.810              1.955
 Vibration     5          0.682              1.703              1.509
 Vibration     6          0.701              1.650              1.349
 Vibration     7          0.833              1.302              0.719
 Vibration     8          0.918              1.113              0.519

 Optimization completed.
    -- Stationary point found.
 Normal termination of Gaussian 16 at Sun May 28 02:56:23 2023.
