 Gaussian 16, Revision A.03,
 Gaussian 16:  ES64L-G16RevA.03 25-Dec-2016

 -----------------------------
 # opt freq b3lyp/6-31g(2df,p)
 -----------------------------

 -------------------
 Title Card Required
 -------------------
 Symbolic Z-matrix:
 Charge =  0 Multiplicity = 1

 SCF Done:  E(RB3LYP) =  -865.182622392     A.U. after   14 cycles
 SCF Done:  E(RB3LYP) =  -865.243781313     A.U. after   12 cycles
 SCF Done:  E(RB3LYP) =  -865.288366583     A.U. after   12 cycles
 SCF Done:  E(RB3LYP) =  -865.323150912     A.U. after   11 cycles
 SCF Done:  E(RB3LYP) =  -865.344283526     A.U. after   11 cycles
 SCF Done:  E(RB3LYP) =  -865.349819473     A.U. after   11 cycles
 SCF Done:  E(RB3LYP) =  -865.354155049     A.U. after   11 cycles
 SCF Done:  E(RB3LYP) =  -865.356862978     A.U. after   11 cycles
 SCF Done:  E(RB3LYP) =  -865.357674957     A.U. after   11 cycles
 SCF Done:  E(RB3LYP) =  -865.358302181     A.U. after   11 cycles
 SCF Done:  E(RB3LYP) =  -865.358597604     A.U. after   10 cycles
 SCF Done:  E(RB3LYP) =  -865.358706064     A.U. after    9 cycles
 SCF Done:  E(RB3LYP) =  -865.358728840     A.U. after    9 cycles
 SCF Done:  E(RB3LYP) =  -865.358739152     A.U. after    9 cycles
 SCF Done:  E(RB3LYP) =  -865.358741761     A.U. after    7 cycles
 SCF Done:  E(RB3LYP) =  -865.358743084     A.U. after    9 cycles
 SCF Done:  E(RB3LYP) =  -865.358743276     A.U. after    6 cycles
 Optimization completed.
    -- Stationary point found.
 Normal termination of Gaussian 16 at Mon May 29 09:24:09 2023.

 ----------------------------------------------------------------------
 #N Geom=AllCheck Guess=TCheck SCRF=Check GenChk RB3LYP/6-31G(2df,p) Fr
 eq
 ----------------------------------------------------------------------

 Structure from the checkpoint file:  "CCC12CCCqOrCqS1rCqCrC2.chk"
 -------------------
 Title Card Required
 -------------------
 Charge =  0 Multiplicity = 1

                         Standard orientation:
 ---------------------------------------------------------------------
 Center     Atomic      Atomic             Coordinates (Angstroms)
 Number     Number       Type             X           Y           Z
 ---------------------------------------------------------------------
      1          6           0       -3.599394   -0.374902   -0.380798
      2          6           0       -2.480246   -0.383838    0.669704
      3          6           0       -1.069991   -0.171348    0.100040
      4          6           0       -0.643803   -1.316282   -0.872980
      5          6           0        0.794756   -1.835449   -0.700613
      6          6           0        1.885194   -0.760402   -0.530608
      7          8           0        3.034205   -1.317760    0.090256
      8          6           0        1.378657    0.484613    0.237321
      9         16           0        0.152093   -0.035492    1.505198
     10          6           0        0.634419    1.509441   -0.664408
     11          6           0        0.953132    2.957042   -0.277749
     12          6           0       -0.882951    1.203217   -0.570049
     13          1           0       -4.567156   -0.555026    0.096816
     14          1           0       -3.456642   -1.152384   -1.137824
     15          1           0       -3.660661    0.587877   -0.897336
     16          1           0       -2.500256   -1.338502    1.209434
     17          1           0       -2.677897    0.397553    1.412992
     18          1           0       -0.795518   -0.968001   -1.902036
     19          1           0       -1.317831   -2.169595   -0.742478
     20          1           0        1.057641   -2.493942   -1.534442
     21          1           0        0.823058   -2.455085    0.201848
     22          1           0        2.244569   -0.422330   -1.510739
     23          1           0        2.753237   -1.660158    0.947672
     24          1           0        2.237503    0.938324    0.735926
     25          1           0        0.971972    1.353139   -1.696765
     26          1           0        0.699176    3.138364    0.772334
     27          1           0        0.377472    3.660911   -0.888207
     28          1           0        2.015329    3.183525   -0.416871
     29          1           0       -1.355772    1.227038   -1.558490
     30          1           0       -1.373997    1.965699    0.043794
 ---------------------------------------------------------------------

 SCF Done:  E(RB3LYP) =  -865.358743276     A.U. after    1 cycles

 The electronic state is 1-A.
 Alpha  occ. eigenvalues --  -88.85642 -19.13040 -10.23078 -10.22113 -10.20696
 Alpha  occ. eigenvalues --  -10.19429 -10.18775 -10.18667 -10.18290 -10.18009
 Alpha  occ. eigenvalues --  -10.17931 -10.17557  -7.91995  -5.88423  -5.88163
 Alpha  occ. eigenvalues --   -5.87548  -1.01470  -0.86404  -0.79276  -0.77194
 Alpha  occ. eigenvalues --   -0.73102  -0.72657  -0.67678  -0.64000  -0.63046
 Alpha  occ. eigenvalues --   -0.59446  -0.55242  -0.52425  -0.49559  -0.47802
 Alpha  occ. eigenvalues --   -0.46650  -0.44677  -0.44490  -0.43200  -0.40821
 Alpha  occ. eigenvalues --   -0.40678  -0.40287  -0.38826  -0.38527  -0.37201
 Alpha  occ. eigenvalues --   -0.35957  -0.34797  -0.34123  -0.33408  -0.32463
 Alpha  occ. eigenvalues --   -0.31809  -0.31227  -0.30112  -0.29292  -0.26380
 Alpha  occ. eigenvalues --   -0.21873
 Alpha virt. eigenvalues --    0.02122   0.07009   0.08196   0.09177   0.09414
 Alpha virt. eigenvalues --    0.10607   0.11688   0.12953   0.13454   0.14243
 Alpha virt. eigenvalues --    0.14488   0.15517   0.16118   0.16173   0.16824

 Mulliken charges:
               1
     1  C   -0.395867
     2  C   -0.257897
     3  C    0.288237
     4  C   -0.257916
     5  C   -0.210525
     6  C    0.118599
     7  O   -0.439052
     8  C   -0.045852
     9  S   -0.255762
    10  C    0.019880
    11  C   -0.415727
    12  C   -0.241713
    13  H    0.118305
    14  H    0.120261
    15  H    0.121379
    16  H    0.105736
    17  H    0.110788
    18  H    0.100648
    19  H    0.103560
    20  H    0.097966
    21  H    0.110948
    22  H    0.086568
    23  H    0.282586
    24  H    0.100494
    25  H    0.074543
    26  H    0.131899
    27  H    0.112936
    28  H    0.113858
    29  H    0.097514
    30  H    0.103607
 Sum of Mulliken charges =   0.00000

 Dipole moment (field-independent basis, Debye):
    X=             -1.6881    Y=              0.2708    Z=             -1.2612  Tot=              2.1246
 Quadrupole moment (field-independent basis, Debye-Ang):
   XX=            -86.1616   YY=            -80.8067   ZZ=            -82.9944
   XY=              2.7363   XZ=              1.4382   YZ=             -1.7000

  Exact polarizability: 136.385   2.255 120.734   0.998  -0.902 113.008
 Approx polarizability: 191.376   1.800 173.508   1.478  -3.850 192.905

                      1                      2                      3
                      A                      A                      A
 Frequencies --     58.3414               104.9185               126.0098
 Red. masses --      2.9041                 2.3572                 3.4226
 Frc consts  --      0.0058                 0.0153                 0.0320
 IR Inten    --      1.2388                 0.0101                 1.3036

                      4                      5                      6
                      A                      A                      A
 Frequencies --    164.6016               185.7179               226.4423
 Red. masses --      2.0552                 3.0932                 1.2956
 Frc consts  --      0.0328                 0.0629                 0.0391
 IR Inten    --      0.6385                 0.9972                 0.1834

                      7                      8                      9
                      A                      A                      A
 Frequencies --    244.5034               268.6379               276.1408
 Red. masses --      1.9652                 1.4882                 2.1512
 Frc consts  --      0.0692                 0.0633                 0.0966
 IR Inten    --      0.3499                 1.3324                 0.8954

                     10                     11                     12
                      A                      A                      A
 Frequencies --    312.6615               335.9840               364.4230
 Red. masses --      3.1634                 3.3270                 1.2173
 Frc consts  --      0.1822                 0.2213                 0.0952
 IR Inten    --      0.8938                 2.2239                59.2212

                     13                     14                     15
                      A                      A                      A
 Frequencies --    382.8894               398.4103               426.3623
 Red. masses --      3.3339                 2.9064                 2.7064
 Frc consts  --      0.2880                 0.2718                 0.2899
 IR Inten    --     12.9467                14.9230                 5.8624

                     16                     17                     18
                      A                      A                      A
 Frequencies --    457.7216               489.6514               537.9201
 Red. masses --      2.6078                 4.1479                 3.7659
 Frc consts  --      0.3219                 0.5859                 0.6420
 IR Inten    --      0.9185                 1.0051                 1.0567

                     19                     20                     21
                      A                      A                      A
 Frequencies --    577.0477               588.3298               636.7484
 Red. masses --      3.8833                 2.4253                 3.2424
 Frc consts  --      0.7619                 0.4946                 0.7745
 IR Inten    --      1.2694                 2.5476                 1.2935

                     22                     23                     24
                      A                      A                      A
 Frequencies --    761.6478               785.8681               812.9041
 Red. masses --      3.1519                 1.3709                 2.0226
 Frc consts  --      1.0773                 0.4988                 0.7875
 IR Inten    --      8.5459                 1.1845                 3.4761

                     25                     26                     27
                      A                      A                      A
 Frequencies --    838.7338               870.2988               888.6989
 Red. masses --      2.0620                 2.8410                 2.1872
 Frc consts  --      0.8547                 1.2678                 1.0178
 IR Inten    --      6.7580                 3.2892                 0.1809

                     28                     29                     30
                      A                      A                      A
 Frequencies --    938.0488               956.3920               966.4743
 Red. masses --      1.6899                 2.3944                 2.1607
 Frc consts  --      0.8761                 1.2904                 1.1891
 IR Inten    --      4.2026                 0.6876                 1.3732

                     31                     32                     33
                      A                      A                      A
 Frequencies --    975.5184              1016.3946              1042.4246
 Red. masses --      1.9953                 1.6611                 2.0858
 Frc consts  --      1.1188                 1.0111                 1.3354
 IR Inten    --      3.4698                 2.0598                 8.2298

                     34                     35                     36
                      A                      A                      A
 Frequencies --   1046.6466              1063.7458              1074.8987
 Red. masses --      2.4558                 2.5015                 2.7211
 Frc consts  --      1.5851                 1.6677                 1.8523
 IR Inten    --     17.6172                35.1830                35.0120

                     37                     38                     39
                      A                      A                      A
 Frequencies --   1087.9267              1100.8943              1136.9835
 Red. masses --      1.9943                 1.6928                 1.6756
 Frc consts  --      1.3907                 1.2088                 1.2763
 IR Inten    --     22.2936                 2.7247                33.4895

                     40                     41                     42
                      A                      A                      A
 Frequencies --   1158.2645              1182.1806              1192.1326
 Red. masses --      2.0869                 1.3762                 2.1658
 Frc consts  --      1.6496                 1.1332                 1.8135
 IR Inten    --      4.8656                 1.4068                 1.3576

                     43                     44                     45
                      A                      A                      A
 Frequencies --   1213.4201              1244.6613              1266.3373
 Red. masses --      1.4523                 1.4668                 1.2849
 Frc consts  --      1.2599                 1.3388                 1.2140
 IR Inten    --     12.7724                 1.7829                 0.0318

                     46                     47                     48
                      A                      A                      A
 Frequencies --   1275.2333              1291.9588              1316.8251
 Red. masses --      1.3568                 1.3615                 1.3028
 Frc consts  --      1.3000                 1.3389                 1.3311
 IR Inten    --      4.2751                 3.3208                 1.1252

                     49                     50                     51
                      A                      A                      A
 Frequencies --   1326.4294              1331.8700              1346.5178
 Red. masses --      1.3023                 1.3802                 1.3518
 Frc consts  --      1.3499                 1.4425                 1.4441
 IR Inten    --      5.2217                 2.6791                 2.7737

                     52                     53                     54
                      A                      A                      A
 Frequencies --   1361.4268              1368.2863              1374.7594
 Red. masses --      1.3261                 1.4133                 1.4717
 Frc consts  --      1.4482                 1.5590                 1.6388
 IR Inten    --      2.4773                 1.7117                 6.2957

                     55                     56                     57
                      A                      A                      A
 Frequencies --   1393.2008              1408.1321              1411.7582
 Red. masses --      1.3619                 1.2275                 1.2260
 Frc consts  --      1.5575                 1.4341                 1.4396
 IR Inten    --      0.4869                 2.2327                 2.6606

                     58                     59                     60
                      A                      A                      A
 Frequencies --   1429.8208              1476.1621              1483.3279
 Red. masses --      1.2117                 1.0776                 1.0859
 Frc consts  --      1.4595                 1.3835                 1.4077
 IR Inten    --     71.1512                 4.6934                 4.2276

                     61                     62                     63
                      A                      A                      A
 Frequencies --   1486.5280              1497.8953              1499.5878
 Red. masses --      1.0693                 1.0450                 1.0593
 Frc consts  --      1.3922                 1.3814                 1.4036
 IR Inten    --      1.6596                 4.4400                 2.0318

                     64                     65                     66
                      A                      A                      A
 Frequencies --   1501.2923              1502.8289              1508.8442
 Red. masses --      1.0654                 1.0451                 1.0720
 Frc consts  --      1.4148                 1.3907                 1.4379
 IR Inten    --      1.0887                 3.1503                 3.3767

                     67                     68                     69
                      A                      A                      A
 Frequencies --   3012.0005              3022.3413              3025.3806
 Red. masses --      1.0832                 1.0615                 1.0594
 Frc consts  --      5.7899                 5.7127                 5.7130
 IR Inten    --      7.0980                13.0079                10.9791

                     70                     71                     72
                      A                      A                      A
 Frequencies --   3027.2597              3029.9210              3033.1804
 Red. masses --      1.0374                 1.0804                 1.0595
 Frc consts  --      5.6016                 5.8440                 5.7429
 IR Inten    --     31.8437                31.7368                23.3747

                     73                     74                     75
                      A                      A                      A
 Frequencies --   3039.8189              3043.3909              3060.4000
 Red. masses --      1.0374                 1.0648                 1.1013
 Frc consts  --      5.6479                 5.8108                 6.0774
 IR Inten    --     42.3769                14.6426                 1.1168

                     76                     77                     78
                      A                      A                      A
 Frequencies --   3066.5502              3075.6564              3087.8304
 Red. masses --      1.0972                 1.1036                 1.1031
 Frc consts  --      6.0791                 6.1511                 6.1968
 IR Inten    --     39.7602                13.8091                40.2492

                     79                     80                     81
                      A                      A                      A
 Frequencies --   3091.6251              3098.3863              3102.2718
 Red. masses --      1.0889                 1.0989                 1.1017
 Frc consts  --      6.1321                 6.2158                 6.2473
 IR Inten    --      5.3945                26.4974                31.6252

                     82                     83                     84
                      A                      A                      A
 Frequencies --   3107.2484              3109.8461              3779.1029
 Red. masses --      1.1010                 1.1019                 1.0655
 Frc consts  --      6.2630                 6.2788                 8.9659
 IR Inten    --     32.7907                35.0937                11.4721

 - Thermochemistry -
 -------------------
 Temperature   298.150 Kelvin.  Pressure   1.00000 Atm.
 Atom     1 has atomic number  6 and mass  12.00000

 Molecular mass:   186.10784 amu.
 Principal axes and moments of inertia in atomic units:
                           1         2         3
     Eigenvalues --  1608.044252561.177463228.82818
           X            0.99943   0.03339   0.00426
           Y           -0.03339   0.99944  -0.00078
           Z           -0.00428   0.00064   0.99999
 This molecule is an asymmetric top.
 Rotational symmetry number  1.
 Warning -- assumption of classical behavior for rotation
           may cause significant error
 Rotational temperatures (Kelvin)      0.05386     0.03382     0.02683
 Rotational constants (GHZ):           1.12232     0.70465     0.55895
 Zero-point vibrational energy     700951.0 (Joules/Mol)
                                  167.53131 (Kcal/Mol)
 Warning -- explicit consideration of  20 degrees of freedom as
           vibrations may cause significant error
 Vibrational temperatures:     83.94   150.95   181.30   236.83   267.21
          (Kelvin)            325.80   351.79   386.51   397.30   449.85
                              483.41   524.32   550.89   573.22   613.44
                              658.56   704.50   773.95   830.24   846.48
                              916.14  1095.84  1130.69  1169.59  1206.75
                             1252.17  1278.64  1349.64  1376.03  1390.54
                             1403.55  1462.37  1499.82  1505.89  1530.49
                             1546.54  1565.28  1583.94  1635.87  1666.48
                             1700.89  1715.21  1745.84  1790.79  1821.98
                             1834.78  1858.84  1894.62  1908.44  1916.26
                             1937.34  1958.79  1968.66  1977.97  2004.51
                             2025.99  2031.21  2057.19  2123.87  2134.18
                             2138.78  2155.14  2157.57  2160.02  2162.24
                             2170.89  4333.60  4348.48  4352.85  4355.55
                             4359.38  4364.07  4373.62  4378.76  4403.23
                             4412.08  4425.18  4442.70  4448.16  4457.89
                             4463.48  4470.64  4474.37  5437.29

 Zero-point correction=                           0.266978 (Hartree/Particle)
 Thermal correction to Energy=                    0.279470
 Thermal correction to Enthalpy=                  0.280414
 Thermal correction to Gibbs Free Energy=         0.229234
 Sum of electronic and zero-point Energies=           -865.091765
 Sum of electronic and thermal Energies=              -865.079274
 Sum of electronic and thermal Enthalpies=            -865.078329
 Sum of electronic and thermal Free Energies=         -865.129509

                     E (Thermal)             CV                S
                      KCal/Mol        Cal/Mol-Kelvin    Cal/Mol-Kelvin
 Total                  175.370             49.886            107.717
 Electronic               0.000              0.000              0.000
 Translational            0.889              2.981             41.570
 Rotational               0.889              2.981             30.965
 Vibrational            173.592             43.924             35.182
 Vibration     1          0.596              1.974              4.513
 Vibration     2          0.605              1.945              3.361
 Vibration     3          0.611              1.927              3.006
 Vibration     4          0.623              1.886              2.496
 Vibration     5          0.632              1.859              2.270
 Vibration     6          0.650              1.801              1.907
 Vibration     7          0.660              1.772              1.770
 Vibration     8          0.673              1.731              1.605
 Vibration     9          0.678              1.718              1.557
 Vibration    10          0.701              1.650              1.348
 Vibration    11          0.717              1.604              1.231
 Vibration    12          0.738              1.545              1.103
 Vibration    13          0.752              1.507              1.028
 Vibration    14          0.765              1.474              0.969
 Vibration    15          0.788              1.413              0.871
 Vibration    16          0.816              1.344              0.773
 Vibration    17          0.845              1.273              0.685
 Vibration    18          0.893              1.166              0.570
 Vibration    19          0.934              1.081              0.491
 Vibration    20          0.946              1.057              0.470

 Optimization completed.
    -- Stationary point found.
 Normal termination of Gaussian 16 at Mon May 29 11:02:58 2023.
