 Gaussian 16, Revision A.03,
 Gaussian 16:  ES64L-G16RevA.03 25-Dec-2016

 -----------------------------
 # opt freq b3lyp/6-31g(2df,p)
 -----------------------------

 -------------------
 Title Card Required
 -------------------
 Symbolic Z-matrix:
 Charge =  0 Multiplicity = 1

 SCF Done:  E(RB3LYP) =  -533.591394071     A.U. after   12 cycles
 SCF Done:  E(RB3LYP) =  -533.597526577     A.U. after   10 cycles
 SCF Done:  E(RB3LYP) =  -533.598057741     A.U. after   10 cycles
 SCF Done:  E(RB3LYP) =  -533.598443305     A.U. after   10 cycles
 SCF Done:  E(RB3LYP) =  -533.599185575     A.U. after   10 cycles
 SCF Done:  E(RB3LYP) =  -533.599761848     A.U. after    9 cycles
 SCF Done:  E(RB3LYP) =  -533.600673113     A.U. after   10 cycles
 SCF Done:  E(RB3LYP) =  -533.600859290     A.U. after   10 cycles
 SCF Done:  E(RB3LYP) =  -533.600941226     A.U. after    9 cycles
 SCF Done:  E(RB3LYP) =  -533.600972623     A.U. after    8 cycles
 SCF Done:  E(RB3LYP) =  -533.600992762     A.U. after    9 cycles
 SCF Done:  E(RB3LYP) =  -533.601001088     A.U. after    9 cycles
 SCF Done:  E(RB3LYP) =  -533.601004054     A.U. after    8 cycles
 SCF Done:  E(RB3LYP) =  -533.601004364     A.U. after    6 cycles
 SCF Done:  E(RB3LYP) =  -533.601004416     A.U. after    6 cycles
 Optimization completed.
    -- Stationary point found.
 Normal termination of Gaussian 16 at Sun May 28 03:28:06 2023.

 ----------------------------------------------------------------------
 #N Geom=AllCheck Guess=TCheck SCRF=Check GenChk RB3LYP/6-31G(2df,p) Fr
 eq
 ----------------------------------------------------------------------

 Structure from the checkpoint file:  "CCC1qCqFrqFrFrCC1.chk"
 -------------------
 Title Card Required
 -------------------
 Charge =  0 Multiplicity = 1

                         Standard orientation:
 ---------------------------------------------------------------------
 Center     Atomic      Atomic             Coordinates (Angstroms)
 Number     Number       Type             X           Y           Z
 ---------------------------------------------------------------------
      1          6           0        2.801169   -0.645169   -0.000033
      2          6           0        1.306983   -0.975003    0.000067
      3          6           0        0.349011    0.215019    0.000006
      4          6           0       -1.093368   -0.226087   -0.000015
      5          9           0       -1.381965   -0.975353   -1.079918
      6          9           0       -1.382029   -0.975225    1.079976
      7          9           0       -1.951282    0.809682   -0.000102
      8          6           0        0.641670    1.490100    0.753665
      9          6           0        0.641738    1.490092   -0.753639
     10          1           0        3.381760   -1.572131    0.000159
     11          1           0        3.098816   -0.075840    0.885704
     12          1           0        3.098740   -0.076237   -0.886053
     13          1           0        1.076341   -1.592064    0.876272
     14          1           0        1.076321   -1.592206   -0.876029
     15          1           0        1.592250    1.561312    1.268007
     16          1           0       -0.181275    1.980135    1.259423
     17          1           0        1.592404    1.561233   -1.267834
     18          1           0       -0.181096    1.980154   -1.259546
 ---------------------------------------------------------------------

 SCF Done:  E(RB3LYP) =  -533.601004416     A.U. after    1 cycles

 The electronic state is 1-A.
 Alpha  occ. eigenvalues --  -24.71555 -24.70977 -24.70977 -10.41025 -10.21594
 Alpha  occ. eigenvalues --  -10.19757 -10.19731 -10.19495 -10.18550  -1.29831
 Alpha  occ. eigenvalues --   -1.21094  -1.20684  -0.88406  -0.76801  -0.71766
 Alpha  occ. eigenvalues --   -0.65186  -0.61724  -0.59452  -0.57314  -0.57099
 Alpha  occ. eigenvalues --   -0.53124  -0.48844  -0.46359  -0.44936  -0.44527
 Alpha  occ. eigenvalues --   -0.43457  -0.41875  -0.41560  -0.39859  -0.39365
 Alpha  occ. eigenvalues --   -0.37360  -0.37073  -0.36203  -0.34529  -0.30643
 Alpha  occ. eigenvalues --   -0.29461
 Alpha virt. eigenvalues --    0.08135   0.10683   0.11333   0.11894   0.13086
 Alpha virt. eigenvalues --    0.14531   0.15832   0.16502   0.17112   0.17919
 Alpha virt. eigenvalues --    0.20156   0.21989   0.24058   0.25345   0.26397

 Mulliken charges:
               1
     1  C   -0.414210
     2  C   -0.258587
     3  C    0.180350
     4  C    0.255599
     5  F   -0.084991
     6  F   -0.085005
     7  F   -0.086204
     8  C   -0.307141
     9  C   -0.307144
    10  H    0.123874
    11  H    0.123409
    12  H    0.123413
    13  H    0.116895
    14  H    0.116896
    15  H    0.119754
    16  H    0.131670
    17  H    0.119752
    18  H    0.131669
 Sum of Mulliken charges =  -0.00000

 Dipole moment (field-independent basis, Debye):
    X=              2.0996    Y=              0.5831    Z=             -0.0000  Tot=              2.1791
 Quadrupole moment (field-independent basis, Debye-Ang):
   XX=            -52.4188   YY=            -51.8794   ZZ=            -52.0800
   XY=             -1.1777   XZ=              0.0002   YZ=              0.0000

  Exact polarizability:  67.890  -1.985  65.835  -0.000  -0.000  58.802
 Approx polarizability:  87.447  -0.539  93.644  -0.000  -0.000  90.780

                      1                      2                      3
                      A                      A                      A
 Frequencies --     42.0371                67.3787               192.4665
 Red. masses --      1.7942                 6.2266                 4.6420
 Frc consts  --      0.0019                 0.0167                 0.1013
 IR Inten    --      0.1157                 0.0101                 1.0744

                      4                      5                      6
                      A                      A                      A
 Frequencies --    208.2409               271.5025               284.8289
 Red. masses --      2.5035                 1.4509                 3.6227
 Frc consts  --      0.0640                 0.0630                 0.1732
 IR Inten    --      0.0673                 0.0000                 0.6133

                      7                      8                      9
                      A                      A                      A
 Frequencies --    327.5640               350.8077               386.2204
 Red. masses --      1.9974                 4.1677                 8.5717
 Frc consts  --      0.1263                 0.3022                 0.7533
 IR Inten    --      0.4848                 3.0277                 3.5118

                     10                     11                     12
                      A                      A                      A
 Frequencies --    456.0573               561.5252               573.4030
 Red. masses --      5.3822                 4.0065                 6.3512
 Frc consts  --      0.6596                 0.7443                 1.2303
 IR Inten    --      0.4002                 8.2399                 2.0752

                     13                     14                     15
                      A                      A                      A
 Frequencies --    591.1449               724.3180               783.4500
 Red. masses --      7.0905                 6.6645                 1.2350
 Frc consts  --      1.4599                 2.0601                 0.4466
 IR Inten    --      0.1704                 3.4489                 1.1418

                     16                     17                     18
                      A                      A                      A
 Frequencies --    784.3235               857.0034               921.8867
 Red. masses --      1.0655                 2.3837                 2.2505
 Frc consts  --      0.3862                 1.0315                 1.1269
 IR Inten    --      0.0082                 0.7498                 5.0722

                     19                     20                     21
                      A                      A                      A
 Frequencies --    950.6797               957.3101              1035.0847
 Red. masses --      2.1310                 1.4196                 1.9297
 Frc consts  --      1.1348                 0.7665                 1.2181
 IR Inten    --      0.7812                 7.7611                15.5248

                     22                     23                     24
                      A                      A                      A
 Frequencies --   1063.2103              1085.6646              1094.0430
 Red. masses --      1.5405                 2.0021                 1.3731
 Frc consts  --      1.0260                 1.3903                 0.9683
 IR Inten    --      0.3390                 3.5595                 2.5326

                     25                     26                     27
                      A                      A                      A
 Frequencies --   1150.1358              1153.4752              1173.2896
 Red. masses --      1.7782                 2.7923                 3.7020
 Frc consts  --      1.3859                 2.1889                 3.0026
 IR Inten    --     18.7080               133.0225               130.3116

                     28                     29                     30
                      A                      A                      A
 Frequencies --   1188.3341              1200.4112              1315.5194
 Red. masses --     11.2582                 1.6635                 1.1516
 Frc consts  --      9.3669                 1.4124                 1.1742
 IR Inten    --    192.0673                47.5514                 2.6818

                     31                     32                     33
                      A                      A                      A
 Frequencies --   1325.9787              1354.9347              1401.0384
 Red. masses --      2.6232                 2.7532                 1.7066
 Frc consts  --      2.7174                 2.9780                 1.9737
 IR Inten    --     40.8698                73.5110                24.7502

                     34                     35                     36
                      A                      A                      A
 Frequencies --   1421.0769              1460.5589              1494.8622
 Red. masses --      1.4446                 1.0833                 1.0663
 Frc consts  --      1.7188                 1.3616                 1.4039
 IR Inten    --     22.2005                 1.8490                 3.0974

                     37                     38                     39
                      A                      A                      A
 Frequencies --   1500.6229              1508.0678              1514.9943
 Red. masses --      1.2517                 1.0412                 1.1788
 Frc consts  --      1.6607                 1.3952                 1.5941
 IR Inten    --      3.0237                 8.6381                 0.5170

                     40                     41                     42
                      A                      A                      A
 Frequencies --   3034.4299              3043.0204              3067.0829
 Red. masses --      1.0590                 1.0357                 1.1018
 Frc consts  --      5.7452                 5.6508                 6.1066
 IR Inten    --     18.9106                21.8724                 7.1473

                     43                     44                     45
                      A                      A                      A
 Frequencies --   3110.7612              3112.3470              3151.0661
 Red. masses --      1.1004                 1.1018                 1.0508
 Frc consts  --      6.2736                 6.2883                 6.1475
 IR Inten    --     26.6786                28.6571                13.9628

                     46                     47                     48
                      A                      A                      A
 Frequencies --   3152.7711              3230.8461              3243.4589
 Red. masses --      1.0584                 1.1177                 1.1157
 Frc consts  --      6.1983                 6.8741                 6.9152
 IR Inten    --      6.0132                 0.1024                 8.2290

 - Thermochemistry -
 -------------------
 Temperature   298.150 Kelvin.  Pressure   1.00000 Atm.
 Atom     1 has atomic number  6 and mass  12.00000

 Molecular mass:   138.06564 amu.
 Principal axes and moments of inertia in atomic units:
                           1         2         3
     Eigenvalues --   739.743771387.990511645.54125
           X            0.99953  -0.03075  -0.00000
           Y            0.03075   0.99953  -0.00000
           Z            0.00000   0.00000   1.00000
 This molecule is an asymmetric top.
 Rotational symmetry number  1.
 Warning -- assumption of classical behavior for rotation
           may cause significant error
 Rotational temperatures (Kelvin)      0.11709     0.06240     0.05264
 Rotational constants (GHZ):           2.43968     1.30025     1.09675
 Zero-point vibrational energy     376101.3 (Joules/Mol)
                                   89.89038 (Kcal/Mol)
 Warning -- explicit consideration of  13 degrees of freedom as
           vibrations may cause significant error
 Vibrational temperatures:     60.48    96.94   276.92   299.61   390.63
          (Kelvin)            409.81   471.29   504.73   555.69   656.16
                              807.91   825.00   850.53  1042.13  1127.21
                             1128.47  1233.04  1326.39  1367.82  1377.36
                             1489.26  1529.72  1562.03  1574.08  1654.79
                             1659.59  1688.10  1709.75  1727.12  1892.74
                             1907.79  1949.45  2015.78  2044.61  2101.42
                             2150.77  2159.06  2169.77  2179.74  4365.87
                             4378.23  4412.85  4475.69  4477.97  4533.68
                             4536.13  4648.47  4666.61

 Zero-point correction=                           0.143249 (Hartree/Particle)
 Thermal correction to Energy=                    0.152347
 Thermal correction to Enthalpy=                  0.153291
 Thermal correction to Gibbs Free Energy=         0.108644
 Sum of electronic and zero-point Energies=           -533.457755
 Sum of electronic and thermal Energies=              -533.448657
 Sum of electronic and thermal Enthalpies=            -533.447713
 Sum of electronic and thermal Free Energies=         -533.492361

                     E (Thermal)             CV                S
                      KCal/Mol        Cal/Mol-Kelvin    Cal/Mol-Kelvin
 Total                   95.599             33.678             93.969
 Electronic               0.000              0.000              0.000
 Translational            0.889              2.981             40.679
 Rotational               0.889              2.981             28.915
 Vibrational             93.822             27.717             24.374
 Vibration     1          0.595              1.980              5.161
 Vibration     2          0.598              1.970              4.229
 Vibration     3          0.634              1.850              2.204
 Vibration     4          0.642              1.828              2.059
 Vibration     5          0.675              1.726              1.587
 Vibration     6          0.683              1.702              1.504
 Vibration     7          0.711              1.620              1.272
 Vibration     8          0.728              1.574              1.163
 Vibration     9          0.755              1.500              1.015
 Vibration    10          0.814              1.347              0.778
 Vibration    11          0.917              1.115              0.521
 Vibration    12          0.930              1.089              0.498
 Vibration    13          0.949              1.051              0.465

 Optimization completed.
    -- Stationary point found.
 Normal termination of Gaussian 16 at Sun May 28 03:53:49 2023.
