 Gaussian 16, Revision A.03,
 Gaussian 16:  ES64L-G16RevA.03 25-Dec-2016

 -----------------------------
 # opt freq b3lyp/6-31g(2df,p)
 -----------------------------

 -------------------
 Title Card Required
 -------------------
 Symbolic Z-matrix:
 Charge =  0 Multiplicity = 1

 SCF Done:  E(RB3LYP) =  -677.486046531     A.U. after   12 cycles
 SCF Done:  E(RB3LYP) =  -677.502150498     A.U. after   11 cycles
 SCF Done:  E(RB3LYP) =  -677.512481471     A.U. after   11 cycles
 SCF Done:  E(RB3LYP) =  -677.518268207     A.U. after   10 cycles
 SCF Done:  E(RB3LYP) =  -677.520497990     A.U. after   10 cycles
 SCF Done:  E(RB3LYP) =  -677.521490035     A.U. after   10 cycles
 SCF Done:  E(RB3LYP) =  -677.521653574     A.U. after    9 cycles
 SCF Done:  E(RB3LYP) =  -677.521772077     A.U. after    9 cycles
 SCF Done:  E(RB3LYP) =  -677.521794128     A.U. after    9 cycles
 SCF Done:  E(RB3LYP) =  -677.521815931     A.U. after    8 cycles
 SCF Done:  E(RB3LYP) =  -677.521818566     A.U. after    7 cycles
 SCF Done:  E(RB3LYP) =  -677.521818949     A.U. after    7 cycles
 SCF Done:  E(RB3LYP) =  -677.521819121     A.U. after    6 cycles
 SCF Done:  E(RB3LYP) =  -677.521819166     A.U. after    5 cycles
 Optimization completed.
    -- Stationary point found.
 Normal termination of Gaussian 16 at Mon May 22 21:19:14 2023.

 ----------------------------------------------------------------------
 #N Geom=AllCheck Guess=TCheck SCRF=Check GenChk RB3LYP/6-31G(2df,p) Fr
 eq
 ----------------------------------------------------------------------

 Structure from the checkpoint file:  "CCC1qCrCCOCCNqCrCC1CO.chk"
 -------------------
 Title Card Required
 -------------------
 Charge =  0 Multiplicity = 1

                         Standard orientation:
 ---------------------------------------------------------------------
 Center     Atomic      Atomic             Coordinates (Angstroms)
 Number     Number       Type             X           Y           Z
 ---------------------------------------------------------------------
      1          6           0       -0.991155    2.896926   -0.775489
      2          6           0       -0.583066    1.486480   -1.229796
      3          6           0       -1.274795    0.287130   -0.515885
      4          6           0       -2.808469    0.521005   -0.576587
      5          6           0       -1.058243   -1.008670   -1.368260
      6          6           0        0.276647   -1.762384   -1.437699
      7          8           0        1.392500   -0.927136   -1.695813
      8          6           0        2.504126   -1.152242   -0.855780
      9          6           0        2.225062   -0.788768    0.611202
     10          7           0        1.710911    0.566862    0.722188
     11          6           0        2.743681    1.539829    1.025800
     12          6           0        0.495680    0.777190    1.492678
     13          6           0       -0.866229    0.168399    1.010498
     14          6           0       -1.113738   -1.219886    1.647708
     15          8           0       -2.466400   -1.655920    1.611423
     16          1           0       -0.361174    3.643226   -1.271067
     17          1           0       -0.880852    3.049108    0.303290
     18          1           0       -2.028907    3.132134   -1.030111
     19          1           0        0.495800    1.365875   -1.148552
     20          1           0       -0.820952    1.403489   -2.297997
     21          1           0       -3.131397    0.666791   -1.613920
     22          1           0       -3.102093    1.412083   -0.013742
     23          1           0       -3.351416   -0.332560   -0.167864
     24          1           0       -1.337416   -0.738116   -2.393653
     25          1           0       -1.795329   -1.756967   -1.050838
     26          1           0        0.194534   -2.503952   -2.248097
     27          1           0        0.440515   -2.341551   -0.523386
     28          1           0        3.301884   -0.514307   -1.250960
     29          1           0        2.853810   -2.197163   -0.917550
     30          1           0        3.152199   -0.928795    1.193130
     31          1           0        1.506769   -1.491920    1.038435
     32          1           0        3.594096    1.402736    0.350667
     33          1           0        3.124735    1.468188    2.063636
     34          1           0        2.364524    2.555688    0.875150
     35          1           0        0.362449    1.861414    1.526602
     36          1           0        0.622448    0.468959    2.551489
     37          1           0       -1.579351    0.816735    1.544268
     38          1           0       -0.752586   -1.187004    2.687763
     39          1           0       -0.558770   -2.014636    1.147672
     40          1           0       -2.995691   -1.013087    2.095111
 ---------------------------------------------------------------------

 SCF Done:  E(RB3LYP) =  -677.521819166     A.U. after    1 cycles

 The electronic state is 1-A.
 Alpha  occ. eigenvalues --  -19.13738 -19.12845 -14.31588 -10.22468 -10.22199
 Alpha  occ. eigenvalues --  -10.21855 -10.20658 -10.20440 -10.20096 -10.19000
 Alpha  occ. eigenvalues --  -10.18807 -10.16898 -10.16240 -10.15799 -10.15521
 Alpha  occ. eigenvalues --   -1.02247  -1.01713  -0.91830  -0.81812  -0.75527
 Alpha  occ. eigenvalues --   -0.75233  -0.73087  -0.70272  -0.68316  -0.64874
 Alpha  occ. eigenvalues --   -0.62891  -0.61804  -0.58805  -0.56192  -0.53170
 Alpha  occ. eigenvalues --   -0.50107  -0.49105  -0.47283  -0.46898  -0.45857
 Alpha  occ. eigenvalues --   -0.45166  -0.44857  -0.43157  -0.42464  -0.42088
 Alpha  occ. eigenvalues --   -0.40219  -0.39695  -0.39444  -0.38807  -0.37853
 Alpha  occ. eigenvalues --   -0.37480  -0.36667  -0.35948  -0.35757  -0.34400
 Alpha  occ. eigenvalues --   -0.33370  -0.32604  -0.32000  -0.31413  -0.30210
 Alpha  occ. eigenvalues --   -0.29515  -0.28979  -0.25900  -0.24155  -0.20117
 Alpha virt. eigenvalues --    0.06692   0.07502   0.08751   0.10155   0.10655
 Alpha virt. eigenvalues --    0.11560   0.12186   0.13115   0.13698   0.14087
 Alpha virt. eigenvalues --    0.14733   0.15008   0.16139   0.16242   0.16754

 Mulliken charges:
               1
     1  C   -0.406591
     2  C   -0.192499
     3  C    0.266980
     4  C   -0.422353
     5  C   -0.237815
     6  C   -0.098031
     7  O   -0.223831
     8  C   -0.059345
     9  C   -0.192728
    10  N   -0.013188
    11  C   -0.328447
    12  C   -0.192314
    13  C   -0.069885
    14  C   -0.072681
    15  O   -0.419416
    16  H    0.108307
    17  H    0.105630
    18  H    0.112674
    19  H    0.134186
    20  H    0.077769
    21  H    0.101976
    22  H    0.101245
    23  H    0.123139
    24  H    0.096786
    25  H    0.110979
    26  H    0.090924
    27  H    0.084585
    28  H    0.103580
    29  H    0.080118
    30  H    0.083263
    31  H    0.106106
    32  H    0.118150
    33  H    0.089678
    34  H    0.121042
    35  H    0.104057
    36  H    0.068532
    37  H    0.066476
    38  H    0.083612
    39  H    0.109051
    40  H    0.280277
 Sum of Mulliken charges =  -0.00000

 Dipole moment (field-independent basis, Debye):
    X=              0.7094    Y=              0.4204    Z=              1.8684  Tot=              2.0423
 Quadrupole moment (field-independent basis, Debye-Ang):
   XX=            -92.5718   YY=            -97.0201   ZZ=            -95.4470
   XY=             -3.4915   XZ=              0.2099   YZ=              2.3604

  Exact polarizability: 155.569  -1.026 141.288   3.679   2.451 134.182
 Approx polarizability: 209.776   0.290 203.207   1.425   1.310 201.505

                      1                      2                      3
                      A                      A                      A
 Frequencies --     67.7523                75.8949                95.6367
 Red. masses --      2.9900                 3.8064                 3.4726
 Frc consts  --      0.0081                 0.0129                 0.0187
 IR Inten    --      0.4666                 0.9025                 1.7378

                      4                      5                      6
                      A                      A                      A
 Frequencies --    124.4821               149.7777               164.5618
 Red. masses --      2.7627                 2.3208                 1.6037
 Frc consts  --      0.0252                 0.0307                 0.0256
 IR Inten    --      0.5019                 0.5348                 0.7129

                      7                      8                      9
                      A                      A                      A
 Frequencies --    172.3281               189.7767               211.4734
 Red. masses --      3.1967                 2.9975                 2.4318
 Frc consts  --      0.0559                 0.0636                 0.0641
 IR Inten    --      2.3943                 2.8700                 0.5264

                     10                     11                     12
                      A                      A                      A
 Frequencies --    221.1636               243.7750               257.6333
 Red. masses --      1.2351                 1.9940                 2.1530
 Frc consts  --      0.0356                 0.0698                 0.0842
 IR Inten    --      0.3922                 6.6324                 1.1407

                     13                     14                     15
                      A                      A                      A
 Frequencies --    284.6052               292.5378               311.3479
 Red. masses --      1.7909                 1.9302                 2.5862
 Frc consts  --      0.0855                 0.0973                 0.1477
 IR Inten    --      5.9800                 2.5231                13.0624

                     16                     17                     18
                      A                      A                      A
 Frequencies --    321.0560               333.9938               338.9510
 Red. masses --      2.5873                 2.2499                 1.9284
 Frc consts  --      0.1571                 0.1479                 0.1305
 IR Inten    --      1.6169                18.8528                 5.6094

                     19                     20                     21
                      A                      A                      A
 Frequencies --    356.6334               370.7272               385.2587
 Red. masses --      1.6125                 1.9448                 2.3174
 Frc consts  --      0.1208                 0.1575                 0.2027
 IR Inten    --     53.1520                 5.4326                 1.1362

                     22                     23                     24
                      A                      A                      A
 Frequencies --    407.2235               442.3957               462.7429
 Red. masses --      2.1253                 1.9797                 2.1037
 Frc consts  --      0.2077                 0.2283                 0.2654
 IR Inten    --     25.7179                 6.1945                 4.1543

                     25                     26                     27
                      A                      A                      A
 Frequencies --    479.8256               551.4745               609.2977
 Red. masses --      2.3737                 2.6385                 2.7208
 Frc consts  --      0.3220                 0.4728                 0.5951
 IR Inten    --     16.8507                 6.3258                 0.3414

                     28                     29                     30
                      A                      A                      A
 Frequencies --    616.7137               719.1154               762.9744
 Red. masses --      3.0344                 3.6630                 2.1358
 Frc consts  --      0.6800                 1.1161                 0.7325
 IR Inten    --      2.8116                 3.1708                11.7497

                     31                     32                     33
                      A                      A                      A
 Frequencies --    783.7713               811.5208               843.9552
 Red. masses --      1.3782                 2.3085                 2.3664
 Frc consts  --      0.4988                 0.8957                 0.9931
 IR Inten    --      0.4520                 3.0441                 9.2188

                     34                     35                     36
                      A                      A                      A
 Frequencies --    857.5209               883.2195               907.8946
 Red. masses --      1.8911                 2.2539                 2.0350
 Frc consts  --      0.8193                 1.0359                 0.9883
 IR Inten    --      1.4971                 1.6103                 1.0066

                     37                     38                     39
                      A                      A                      A
 Frequencies --    928.6800               967.6851               987.2547
 Red. masses --      1.9130                 2.2511                 2.0082
 Frc consts  --      0.9721                 1.2420                 1.1532
 IR Inten    --      5.6964                 6.1069                 2.1713

                     40                     41                     42
                      A                      A                      A
 Frequencies --    992.3979              1019.5865              1029.1726
 Red. masses --      1.8163                 1.8946                 2.5589
 Frc consts  --      1.0539                 1.1604                 1.5969
 IR Inten    --      6.7375                11.7867                71.0522

                     43                     44                     45
                      A                      A                      A
 Frequencies --   1055.6351              1059.5691              1068.4511
 Red. masses --      1.8936                 1.8894                 2.5602
 Frc consts  --      1.2433                 1.2498                 1.7220
 IR Inten    --      6.9291                 1.2492                10.3476

                     46                     47                     48
                      A                      A                      A
 Frequencies --   1079.1524              1083.7482              1089.4275
 Red. masses --      2.2879                 2.1161                 2.7913
 Frc consts  --      1.5699                 1.4644                 1.9519
 IR Inten    --     16.2412                57.5075                 4.5685

                     49                     50                     51
                      A                      A                      A
 Frequencies --   1105.5796              1144.3212              1154.2490
 Red. masses --      2.4191                 1.4997                 2.4726
 Frc consts  --      1.7421                 1.1570                 1.9409
 IR Inten    --     40.0992                15.7677                51.1557

                     52                     53                     54
                      A                      A                      A
 Frequencies --   1164.7438              1176.6846              1201.9445
 Red. masses --      2.0540                 1.6152                 2.2772
 Frc consts  --      1.6417                 1.3176                 1.9383
 IR Inten    --     52.6701                 1.1008                 7.3662

                     55                     56                     57
                      A                      A                      A
 Frequencies --   1211.9555              1224.6767              1261.8654
 Red. masses --      2.4723                 1.9817                 1.8435
 Frc consts  --      2.1395                 1.7512                 1.7295
 IR Inten    --     19.2891                 7.3280                18.4632

                     58                     59                     60
                      A                      A                      A
 Frequencies --   1288.4212              1297.3737              1301.9851
 Red. masses --      1.1888                 1.1732                 1.1706
 Frc consts  --      1.1627                 1.1634                 1.1692
 IR Inten    --     14.8754                 3.3059                16.5513

                     61                     62                     63
                      A                      A                      A
 Frequencies --   1324.6679              1332.8064              1338.0439
 Red. masses --      1.3294                 1.2812                 1.3584
 Frc consts  --      1.3745                 1.3409                 1.4330
 IR Inten    --     10.1277                 4.4117                12.3575

                     64                     65                     66
                      A                      A                      A
 Frequencies --   1353.8042              1367.3298              1376.9437
 Red. masses --      1.2988                 1.3546                 1.3263
 Frc consts  --      1.4025                 1.4922                 1.4815
 IR Inten    --     17.8542                 5.4810                 1.5821

                     67                     68                     69
                      A                      A                      A
 Frequencies --   1389.4307              1393.8697              1395.5960
 Red. masses --      1.3268                 1.3362                 1.2592
 Frc consts  --      1.5092                 1.5296                 1.4450
 IR Inten    --      9.6346                 0.4180                 1.2290

                     70                     71                     72
                      A                      A                      A
 Frequencies --   1403.6105              1409.8648              1416.3289
 Red. masses --      1.2722                 1.2326                 1.2782
 Frc consts  --      1.4767                 1.4435                 1.5107
 IR Inten    --     11.8653                13.4744                 9.1557

                     73                     74                     75
                      A                      A                      A
 Frequencies --   1417.4296              1431.4188              1437.3889
 Red. masses --      1.2201                 1.2582                 1.2464
 Frc consts  --      1.4442                 1.5189                 1.5172
 IR Inten    --     33.1095                 4.0088                12.7643

                     76                     77                     78
                      A                      A                      A
 Frequencies --   1461.3200              1477.4064              1483.3095
 Red. masses --      1.1466                 1.0766                 1.0804
 Frc consts  --      1.4426                 1.3846                 1.4005
 IR Inten    --      2.0090                 2.2576                 1.4181

                     79                     80                     81
                      A                      A                      A
 Frequencies --   1489.9679              1490.1792              1492.2152
 Red. masses --      1.0628                 1.0753                 1.0796
 Frc consts  --      1.3901                 1.4069                 1.4164
 IR Inten    --      3.7920                 8.4521                 5.4694

                     82                     83                     84
                      A                      A                      A
 Frequencies --   1494.7227              1498.7574              1503.0085
 Red. masses --      1.0521                 1.0855                 1.0545
 Frc consts  --      1.3849                 1.4366                 1.4035
 IR Inten    --      0.3782                 4.9998                 3.6086

                     85                     86                     87
                      A                      A                      A
 Frequencies --   1507.3886              1510.6773              1517.2783
 Red. masses --      1.0797                 1.0723                 1.0934
 Frc consts  --      1.4454                 1.4418                 1.4831
 IR Inten    --      4.6616                 3.8261                12.4257

                     88                     89                     90
                      A                      A                      A
 Frequencies --   1523.5016              1526.5078              2875.8242
 Red. masses --      1.0744                 1.0647                 1.0742
 Frc consts  --      1.4693                 1.4618                 5.2341
 IR Inten    --      4.1709                 1.4212                72.1074

                     91                     92                     93
                      A                      A                      A
 Frequencies --   2912.4788              2953.5438              2963.3071
 Red. masses --      1.0619                 1.0707                 1.0815
 Frc consts  --      5.3072                 5.5030                 5.5953
 IR Inten    --    121.2900                17.1588                34.0167

                     94                     95                     96
                      A                      A                      A
 Frequencies --   2966.2823              2976.8653              2977.7661
 Red. masses --      1.0731                 1.0738                 1.0742
 Frc consts  --      5.5629                 5.6065                 5.6121
 IR Inten    --    111.3357               105.5801                71.8401

                     97                     98                     99
                      A                      A                      A
 Frequencies --   3019.8642              3025.3758              3032.9696
 Red. masses --      1.0683                 1.0600                 1.0427
 Frc consts  --      5.7400                 5.7161                 5.6511
 IR Inten    --      7.7919                23.0743                36.9610

                    100                    101                    102
                      A                      A                      A
 Frequencies --   3035.5966              3047.6795              3056.0348
 Red. masses --      1.0393                 1.0911                 1.0699
 Frc consts  --      5.6425                 5.9710                 5.8873
 IR Inten    --     31.6348                 6.6713                17.7559

                    103                    104                    105
                      A                      A                      A
 Frequencies --   3066.5957              3068.3370              3076.8247
 Red. masses --      1.0928                 1.0940                 1.0851
 Frc consts  --      6.0548                 6.0683                 6.0524
 IR Inten    --     42.7017                25.6243                32.3305

                    106                    107                    108
                      A                      A                      A
 Frequencies --   3091.4135              3095.9926              3099.1254
 Red. masses --      1.1004                 1.0985                 1.0984
 Frc consts  --      6.1960                 6.2035                 6.2159
 IR Inten    --     19.7954                62.1556                36.2635

                    109                    110                    111
                      A                      A                      A
 Frequencies --   3100.7283              3103.5474              3121.7209
 Red. masses --      1.0976                 1.0906                 1.0863
 Frc consts  --      6.2176                 6.1894                 6.2372
 IR Inten    --     11.0871                49.5895                32.3989

                    112                    113                    114
                      A                      A                      A
 Frequencies --   3136.2365              3147.5676              3807.7959
 Red. masses --      1.0982                 1.0895                 1.0661
 Frc consts  --      6.3642                 6.3595                 9.1071
 IR Inten    --     13.9628                 4.1980                16.5866

 - Thermochemistry -
 -------------------
 Temperature   298.150 Kelvin.  Pressure   1.00000 Atm.
 Atom     1 has atomic number  6 and mass  12.00000

 Molecular mass:   215.18853 amu.
 Principal axes and moments of inertia in atomic units:
                           1         2         3
     Eigenvalues --  2624.756343612.903483877.36779
           X            0.99909  -0.02322   0.03589
           Y            0.02278   0.99966   0.01262
           Z           -0.03617  -0.01179   0.99928
 This molecule is an asymmetric top.
 Rotational symmetry number  1.
 Warning -- assumption of classical behavior for rotation
           may cause significant error
 Rotational temperatures (Kelvin)      0.03300     0.02397     0.02234
 Rotational constants (GHZ):           0.68758     0.49953     0.46546
 Zero-point vibrational energy     960169.6 (Joules/Mol)
                                  229.48604 (Kcal/Mol)
 Warning -- explicit consideration of  28 degrees of freedom as
           vibrations may cause significant error
 Vibrational temperatures:     97.48   109.20   137.60   179.10   215.50
          (Kelvin)            236.77   247.94   273.05   304.26   318.21
                              350.74   370.68   409.48   420.90   447.96
                              461.93   480.54   487.67   513.12   533.39
                              554.30   585.90   636.51   665.78   690.36
                              793.45   876.64   887.31  1034.65  1097.75
                             1127.67  1167.60  1214.26  1233.78  1270.76
                             1306.26  1336.16  1392.28  1420.44  1427.84
                             1466.96  1480.75  1518.82  1524.48  1537.26
                             1552.66  1559.27  1567.44  1590.68  1646.42
                             1660.71  1675.81  1692.99  1729.33  1743.73
                             1762.04  1815.54  1853.75  1866.63  1873.27
                             1905.90  1917.61  1925.15  1947.82  1967.28
                             1981.11  1999.08  2005.47  2007.95  2019.48
                             2028.48  2037.78  2039.37  2059.49  2068.08
                             2102.51  2125.66  2134.15  2143.73  2144.04
                             2146.96  2150.57  2156.38  2162.49  2168.80
                             2173.53  2183.03  2191.98  2196.30  4137.67
                             4190.41  4249.49  4263.54  4267.82  4283.05
                             4284.34  4344.91  4352.84  4363.77  4367.55
                             4384.93  4396.95  4412.15  4414.65  4426.86
                             4447.85  4454.44  4458.95  4461.26  4465.31
                             4491.46  4512.34  4528.65  5478.57

 Zero-point correction=                           0.365709 (Hartree/Particle)
 Thermal correction to Energy=                    0.382421
 Thermal correction to Enthalpy=                  0.383366
 Thermal correction to Gibbs Free Energy=         0.323752
 Sum of electronic and zero-point Energies=           -677.156110
 Sum of electronic and thermal Energies=              -677.139398
 Sum of electronic and thermal Enthalpies=            -677.138454
 Sum of electronic and thermal Free Energies=         -677.198067

                     E (Thermal)             CV                S
                      KCal/Mol        Cal/Mol-Kelvin    Cal/Mol-Kelvin
 Total                  239.973             65.836            125.468
 Electronic               0.000              0.000              0.000
 Translational            0.889              2.981             42.002
 Rotational               0.889              2.981             31.975
 Vibrational            238.196             59.875             51.490
 Vibration     1          0.598              1.970              4.218
 Vibration     2          0.599              1.965              3.994
 Vibration     3          0.603              1.952              3.541
 Vibration     4          0.610              1.929              3.030
 Vibration     5          0.618              1.903              2.675
 Vibration     6          0.623              1.886              2.497
 Vibration     7          0.626              1.877              2.410
 Vibration     8          0.633              1.854              2.230
 Vibration     9          0.643              1.823              2.031
 Vibration    10          0.648              1.809              1.950
 Vibration    11          0.659              1.773              1.775
 Vibration    12          0.667              1.750              1.678
 Vibration    13          0.683              1.702              1.506
 Vibration    14          0.688              1.688              1.459
 Vibration    15          0.700              1.652              1.355
 Vibration    16          0.707              1.633              1.305
 Vibration    17          0.716              1.608              1.241
 Vibration    18          0.719              1.598              1.217
 Vibration    19          0.732              1.562              1.137
 Vibration    20          0.743              1.532              1.077
 Vibration    21          0.754              1.502              1.018
 Vibration    22          0.772              1.455              0.936
 Vibration    23          0.802              1.378              0.819
 Vibration    24          0.820              1.333              0.758
 Vibration    25          0.836              1.295              0.711
 Vibration    26          0.907              1.136              0.541
 Vibration    27          0.968              1.012              0.434
 Vibration    28          0.976              0.997              0.422

                           ! Non-Optimized Parameters !
 Normal termination of Gaussian 16 at Tue May 23 01:49:20 2023.
