 Gaussian 16, Revision A.03,
 Gaussian 16:  ES64L-G16RevA.03 25-Dec-2016

 -----------------------------
 # opt freq b3lyp/6-31g(2df,p)
 -----------------------------

 -------------------
 Title Card Required
 -------------------
 Symbolic Z-matrix:
 Charge =  0 Multiplicity = 1

 SCF Done:  E(RB3LYP) =  -585.950707295     A.U. after   13 cycles
 SCF Done:  E(RB3LYP) =  -585.992070294     A.U. after   12 cycles
 SCF Done:  E(RB3LYP) =  -586.026776428     A.U. after   12 cycles
 SCF Done:  E(RB3LYP) =  -586.043398794     A.U. after   11 cycles
 SCF Done:  E(RB3LYP) =  -586.051257427     A.U. after   12 cycles
 SCF Done:  E(RB3LYP) =  -586.053888106     A.U. after   11 cycles
 SCF Done:  E(RB3LYP) =  -586.055492704     A.U. after   11 cycles
 SCF Done:  E(RB3LYP) =  -586.056048455     A.U. after   10 cycles
 SCF Done:  E(RB3LYP) =  -586.056194283     A.U. after   10 cycles
 SCF Done:  E(RB3LYP) =  -586.056216704     A.U. after    9 cycles
 SCF Done:  E(RB3LYP) =  -586.056225974     A.U. after    8 cycles
 SCF Done:  E(RB3LYP) =  -586.056231995     A.U. after    8 cycles
 SCF Done:  E(RB3LYP) =  -586.056237674     A.U. after    8 cycles
 SCF Done:  E(RB3LYP) =  -586.056240374     A.U. after    8 cycles
 SCF Done:  E(RB3LYP) =  -586.056241389     A.U. after    8 cycles
 Optimization completed.
    -- Stationary point found.
 Normal termination of Gaussian 16 at Tue May 23 14:56:40 2023.

 ----------------------------------------------------------------------
 #N Geom=AllCheck Guess=TCheck SCRF=Check GenChk RB3LYP/6-31G(2df,p) Fr
 eq
 ----------------------------------------------------------------------

 Structure from the checkpoint file:  "CCC1dCCC2CdCCCCCC2CC1.chk"
 -------------------
 Title Card Required
 -------------------
 Charge =  0 Multiplicity = 1

                         Standard orientation:
 ---------------------------------------------------------------------
 Center     Atomic      Atomic             Coordinates (Angstroms)
 Number     Number       Type             X           Y           Z
 ---------------------------------------------------------------------
      1          6           0        4.918422   -0.492065   -0.589583
      2          6           0        4.053745    0.401283    0.317569
      3          6           0        2.569238    0.266518    0.057106
      4          6           0        1.879824    1.278099   -0.478230
      5          6           0        0.407530    1.311152   -0.817784
      6          6           0       -0.549832    0.992210    0.366491
      7          6           0       -1.862845    1.731102    0.185501
      8          6           0       -3.143271    1.373332    0.319804
      9          6           0       -3.733136    0.021140    0.643028
     10          6           0       -3.673184   -0.989146   -0.528434
     11          6           0       -2.329617   -1.068254   -1.263503
     12          6           0       -1.097906   -1.459260   -0.429811
     13          6           0       -0.625751   -0.517484    0.707110
     14          6           0        0.702335   -1.039591    1.309229
     15          6           0        1.953041   -1.076833    0.408645
     16          1           0        5.980776   -0.376529   -0.352227
     17          1           0        4.773945   -0.229200   -1.642397
     18          1           0        4.666772   -1.551209   -0.473344
     19          1           0        4.355578    1.446015    0.185442
     20          1           0        4.263333    0.144664    1.366156
     21          1           0        2.427650    2.191967   -0.702836
     22          1           0        0.190546    0.632028   -1.653056
     23          1           0        0.169018    2.311491   -1.192771
     24          1           0       -0.086980    1.469792    1.244924
     25          1           0       -1.694357    2.779181   -0.067395
     26          1           0       -3.874576    2.160260    0.141772
     27          1           0       -4.782588    0.153710    0.927634
     28          1           0       -3.247901   -0.414160    1.520203
     29          1           0       -4.442922   -0.724489   -1.264290
     30          1           0       -3.946905   -1.980260   -0.143530
     31          1           0       -2.144250   -0.113176   -1.765265
     32          1           0       -2.431745   -1.811060   -2.065127
     33          1           0       -0.272942   -1.606415   -1.135928
     34          1           0       -1.270903   -2.447435    0.019666
     35          1           0       -1.340781   -0.605482    1.529289
     36          1           0        0.520365   -2.063343    1.661482
     37          1           0        0.937427   -0.447213    2.202323
     38          1           0        1.733255   -1.633182   -0.512116
     39          1           0        2.706641   -1.679173    0.928565
 ---------------------------------------------------------------------

 SCF Done:  E(RB3LYP) =  -586.056241389     A.U. after    1 cycles

 The electronic state is 1-A.
 Alpha  occ. eigenvalues --  -10.18399 -10.17918 -10.17780 -10.17700 -10.17555
 Alpha  occ. eigenvalues --  -10.17547 -10.17544 -10.17541 -10.17478 -10.17236
 Alpha  occ. eigenvalues --  -10.17216 -10.17130 -10.17048 -10.16993 -10.16478
 Alpha  occ. eigenvalues --   -0.83648  -0.80752  -0.77900  -0.77301  -0.74331
 Alpha  occ. eigenvalues --   -0.73324  -0.68737  -0.66989  -0.64375  -0.61995
 Alpha  occ. eigenvalues --   -0.59611  -0.56658  -0.54729  -0.50889  -0.49763
 Alpha  occ. eigenvalues --   -0.47725  -0.46366  -0.45869  -0.44397  -0.43412
 Alpha  occ. eigenvalues --   -0.42776  -0.41882  -0.41590  -0.40229  -0.38994
 Alpha  occ. eigenvalues --   -0.38460  -0.37377  -0.36440  -0.36192  -0.35629
 Alpha  occ. eigenvalues --   -0.35322  -0.34469  -0.33801  -0.33026  -0.32373
 Alpha  occ. eigenvalues --   -0.31591  -0.30207  -0.29888  -0.29432  -0.28665
 Alpha  occ. eigenvalues --   -0.23442  -0.22231
 Alpha virt. eigenvalues --    0.02257   0.02988   0.07504   0.09661   0.09956
 Alpha virt. eigenvalues --    0.10487   0.11943   0.13042   0.13786   0.14067
 Alpha virt. eigenvalues --    0.14441   0.15083   0.15718   0.16172   0.16981

 Mulliken charges:
               1
     1  C   -0.369570
     2  C   -0.275372
     3  C    0.338221
     4  C   -0.171175
     5  C   -0.274045
     6  C   -0.017410
     7  C   -0.047282
     8  C   -0.083125
     9  C   -0.260344
    10  C   -0.181829
    11  C   -0.202512
    12  C   -0.193021
    13  C   -0.002909
    14  C   -0.226766
    15  C   -0.300108
    16  H    0.110677
    17  H    0.118027
    18  H    0.116936
    19  H    0.095655
    20  H    0.095449
    21  H    0.071742
    22  H    0.111562
    23  H    0.093213
    24  H    0.083191
    25  H    0.076877
    26  H    0.080416
    27  H    0.089523
    28  H    0.112291
    29  H    0.093270
    30  H    0.089048
    31  H    0.106586
    32  H    0.086652
    33  H    0.094847
    34  H    0.086311
    35  H    0.073077
    36  H    0.085604
    37  H    0.090399
    38  H    0.111527
    39  H    0.094366
 Sum of Mulliken charges =  -0.00000

 Dipole moment (field-independent basis, Debye):
    X=              0.1064    Y=             -0.4409    Z=              0.1192  Tot=              0.4689
 Quadrupole moment (field-independent basis, Debye-Ang):
   XX=            -93.3280   YY=            -93.4254   ZZ=            -95.4413
   XY=              0.3802   XZ=              0.6693   YZ=             -1.1708

  Exact polarizability: 203.976  -2.073 147.366   2.818  -5.463 121.238
 Approx polarizability: 253.913  -2.432 228.603   5.240 -13.507 196.721

                      1                      2                      3
                      A                      A                      A
 Frequencies --     32.3334                74.7045                77.9043
 Red. masses --      3.1067                 2.6337                 2.5520
 Frc consts  --      0.0019                 0.0087                 0.0091
 IR Inten    --      0.0376                 0.0433                 0.0209

                      4                      5                      6
                      A                      A                      A
 Frequencies --    126.5454               161.6730               179.2967
 Red. masses --      2.9528                 2.3564                 2.9959
 Frc consts  --      0.0279                 0.0363                 0.0567
 IR Inten    --      0.2314                 0.1431                 0.1486

                      7                      8                      9
                      A                      A                      A
 Frequencies --    197.5852               225.7337               237.6786
 Red. masses --      2.9145                 1.3891                 2.2461
 Frc consts  --      0.0670                 0.0417                 0.0748
 IR Inten    --      0.0207                 0.0193                 0.1185

                     10                     11                     12
                      A                      A                      A
 Frequencies --    269.1348               273.2553               294.8203
 Red. masses --      2.1158                 3.3727                 2.3709
 Frc consts  --      0.0903                 0.1484                 0.1214
 IR Inten    --      0.1203                 0.0239                 0.1725

                     13                     14                     15
                      A                      A                      A
 Frequencies --    316.9838               335.7405               368.8193
 Red. masses --      2.2936                 2.5907                 2.0683
 Frc consts  --      0.1358                 0.1721                 0.1658
 IR Inten    --      0.0468                 0.1133                 0.4112

                     16                     17                     18
                      A                      A                      A
 Frequencies --    377.8769               428.8149               472.3575
 Red. masses --      2.3100                 2.3212                 2.2180
 Frc consts  --      0.1943                 0.2515                 0.2916
 IR Inten    --      0.4001                 0.1863                 1.3690

                     19                     20                     21
                      A                      A                      A
 Frequencies --    504.3066               529.9641               557.7970
 Red. masses --      2.4930                 2.2765                 3.2996
 Frc consts  --      0.3736                 0.3767                 0.6049
 IR Inten    --      1.2967                 3.4478                 1.5662

                     22                     23                     24
                      A                      A                      A
 Frequencies --    586.6082               639.4808               672.1552
 Red. masses --      2.7362                 2.6264                 2.3204
 Frc consts  --      0.5547                 0.6328                 0.6177
 IR Inten    --      1.2624                 2.4060                 2.8999

                     25                     26                     27
                      A                      A                      A
 Frequencies --    714.6973               739.9161               790.3078
 Red. masses --      1.8742                 1.9664                 1.2325
 Frc consts  --      0.5640                 0.6343                 0.4536
 IR Inten    --      6.8013                 6.5105                 3.0996

                     28                     29                     30
                      A                      A                      A
 Frequencies --    799.3828               809.5258               816.3758
 Red. masses --      1.8723                 2.0062                 2.2684
 Frc consts  --      0.7049                 0.7746                 0.8908
 IR Inten    --      6.1760                 0.6608                 2.9865

                     31                     32                     33
                      A                      A                      A
 Frequencies --    843.0056               873.9850               886.8865
 Red. masses --      1.6584                 1.9912                 2.2704
 Frc consts  --      0.6944                 0.8961                 1.0522
 IR Inten    --      7.2094                 2.4135                 0.9713

                     34                     35                     36
                      A                      A                      A
 Frequencies --    892.9642               909.1723               943.9934
 Red. masses --      2.0704                 2.1108                 2.1600
 Frc consts  --      0.9727                 1.0280                 1.1341
 IR Inten    --      1.7887                 2.2363                 2.8345

                     37                     38                     39
                      A                      A                      A
 Frequencies --    957.2183               977.6164               997.7672
 Red. masses --      2.4695                 2.0576                 2.3387
 Frc consts  --      1.3331                 1.1586                 1.3718
 IR Inten    --      2.1254                 2.7375                 0.1590

                     40                     41                     42
                      A                      A                      A
 Frequencies --   1015.3801              1024.6053              1028.3153
 Red. masses --      1.2671                 1.9984                 1.9685
 Frc consts  --      0.7697                 1.2361                 1.2264
 IR Inten    --      0.0651                 0.4241                 2.9192

                     43                     44                     45
                      A                      A                      A
 Frequencies --   1044.3470              1055.0706              1074.7122
 Red. masses --      2.0641                 1.9601                 2.2976
 Frc consts  --      1.3264                 1.2856                 1.5635
 IR Inten    --      2.6861                 1.7786                 5.5252

                     46                     47                     48
                      A                      A                      A
 Frequencies --   1094.9305              1104.8834              1115.6330
 Red. masses --      2.3676                 2.3790                 2.0299
 Frc consts  --      1.6723                 1.7111                 1.4885
 IR Inten    --      1.5525                 0.8310                 1.6522

                     49                     50                     51
                      A                      A                      A
 Frequencies --   1122.9186              1132.8178              1164.5090
 Red. masses --      1.8567                 2.0538                 1.3366
 Frc consts  --      1.3794                 1.5529                 1.0679
 IR Inten    --      1.3110                 0.5968                 0.8067

                     52                     53                     54
                      A                      A                      A
 Frequencies --   1178.1415              1201.2353              1227.5840
 Red. masses --      1.3826                 1.2987                 1.3301
 Frc consts  --      1.1307                 1.1041                 1.1810
 IR Inten    --      0.3823                 4.1699                 3.2825

                     55                     56                     57
                      A                      A                      A
 Frequencies --   1238.4463              1261.3758              1278.3920
 Red. masses --      1.3976                 1.2512                 1.1823
 Frc consts  --      1.2630                 1.1729                 1.1384
 IR Inten    --      2.3434                 2.8592                 3.3129

                     58                     59                     60
                      A                      A                      A
 Frequencies --   1284.4489              1301.4413              1304.1324
 Red. masses --      1.1760                 1.1972                 1.1261
 Frc consts  --      1.1431                 1.1947                 1.1284
 IR Inten    --      0.3217                 2.3722                 1.3695

                     61                     62                     63
                      A                      A                      A
 Frequencies --   1307.4607              1328.8535              1340.4798
 Red. masses --      1.2116                 1.2345                 1.4225
 Frc consts  --      1.2203                 1.2844                 1.5060
 IR Inten    --      5.4347                 4.9419                 1.0105

                     64                     65                     66
                      A                      A                      A
 Frequencies --   1347.3855              1354.2562              1365.0458
 Red. masses --      1.4483                 1.2900                 1.3526
 Frc consts  --      1.5492                 1.3939                 1.4850
 IR Inten    --      7.8524                 1.1697                 0.7178

                     67                     68                     69
                      A                      A                      A
 Frequencies --   1369.9299              1379.1665              1386.0342
 Red. masses --      1.2552                 1.3374                 1.3669
 Frc consts  --      1.3879                 1.4988                 1.5471
 IR Inten    --      0.3902                 3.6266                 1.3647

                     70                     71                     72
                      A                      A                      A
 Frequencies --   1394.3165              1404.3957              1406.1708
 Red. masses --      1.4638                 1.4781                 1.2424
 Frc consts  --      1.6767                 1.7176                 1.4475
 IR Inten    --      6.2723                 1.0595                 1.3082

                     73                     74                     75
                      A                      A                      A
 Frequencies --   1411.4155              1416.7095              1438.6201
 Red. masses --      1.4085                 1.4189                 1.3476
 Frc consts  --      1.6532                 1.6779                 1.6432
 IR Inten    --      1.9791                 1.3115                 3.1060

                     76                     77                     78
                      A                      A                      A
 Frequencies --   1475.6683              1477.5268              1481.6239
 Red. masses --      1.0855                 1.0763                 1.0871
 Frc consts  --      1.3927                 1.3843                 1.4061
 IR Inten    --      1.6920                 4.3134                 5.0150

                     79                     80                     81
                      A                      A                      A
 Frequencies --   1483.8495              1487.9932              1491.8740
 Red. masses --      1.0804                 1.0840                 1.0906
 Frc consts  --      1.4016                 1.4141                 1.4301
 IR Inten    --      0.8546                 0.5420                 2.9916

                     82                     83                     84
                      A                      A                      A
 Frequencies --   1498.1464              1499.5862              1507.9641
 Red. masses --      1.0528                 1.0769                 1.0706
 Frc consts  --      1.3922                 1.4268                 1.4343
 IR Inten    --      3.7062                 6.6289                 2.0322

                     85                     86                     87
                      A                      A                      A
 Frequencies --   1509.3569              1719.5325              1732.8717
 Red. masses --      1.0990                 7.3666                 7.3172
 Frc consts  --      1.4752                12.8334                12.9457
 IR Inten    --      5.7567                 2.2919                 0.6661

                     88                     89                     90
                      A                      A                      A
 Frequencies --   2965.8535              3000.9637              3004.7790
 Red. masses --      1.0807                 1.0662                 1.0660
 Frc consts  --      5.6008                 5.6572                 5.6708
 IR Inten    --     15.7267                32.0519                 9.2388

                     91                     92                     93
                      A                      A                      A
 Frequencies --   3010.9982              3011.4924              3017.4962
 Red. masses --      1.0617                 1.0614                 1.0691
 Frc consts  --      5.6714                 5.6713                 5.7352
 IR Inten    --     38.3750                21.5036                16.8383

                     94                     95                     96
                      A                      A                      A
 Frequencies --   3021.0807              3026.6634              3033.5199
 Red. masses --      1.0654                 1.0666                 1.0347
 Frc consts  --      5.7293                 5.7569                 5.6100
 IR Inten    --     25.0072                50.0517                32.2793

                     97                     98                     99
                      A                      A                      A
 Frequencies --   3042.8031              3046.8910              3050.4302
 Red. masses --      1.0767                 1.0907                 1.0953
 Frc consts  --      5.8734                 5.9658                 6.0048
 IR Inten    --     21.7217                33.0193                42.3811

                    100                    101                    102
                      A                      A                      A
 Frequencies --   3051.7799              3055.4756              3060.1455
 Red. masses --      1.0871                 1.0963                 1.0949
 Frc consts  --      5.9650                 6.0304                 6.0409
 IR Inten    --      0.1698                55.8622                17.5976

                    103                    104                    105
                      A                      A                      A
 Frequencies --   3063.1629              3067.5332              3077.4573
 Red. masses --      1.0939                 1.0931                 1.0946
 Frc consts  --      6.0475                 6.0602                 6.1078
 IR Inten    --     19.1927                56.8718                36.4735

                    106                    107                    108
                      A                      A                      A
 Frequencies --   3091.3136              3100.6885              3102.9331
 Red. masses --      1.0894                 1.0852                 1.1012
 Frc consts  --      6.1339                 6.1471                 6.2466
 IR Inten    --     47.8220                 9.7399                41.0843

                    109                    110                    111
                      A                      A                      A
 Frequencies --   3106.4854              3129.7966              3136.3885
 Red. masses --      1.1024                 1.0883                 1.0918
 Frc consts  --      6.2679                 6.2813                 6.3279
 IR Inten    --     34.0114                37.8931                51.1693

 - Thermochemistry -
 -------------------
 Temperature   298.150 Kelvin.  Pressure   1.00000 Atm.
 Atom     1 has atomic number  6 and mass  12.00000

 Molecular mass:   204.18780 amu.
 Principal axes and moments of inertia in atomic units:
                           1         2         3
     Eigenvalues --  1314.423205681.800486184.38717
           X            1.00000   0.00054   0.00007
           Y           -0.00054   0.99996  -0.00910
           Z           -0.00007   0.00910   0.99996
 This molecule is an asymmetric top.
 Rotational symmetry number  1.
 Warning -- assumption of classical behavior for rotation
           may cause significant error
 Rotational temperatures (Kelvin)      0.06590     0.01524     0.01401
 Rotational constants (GHZ):           1.37303     0.31764     0.29182
 Zero-point vibrational energy     941700.7 (Joules/Mol)
                                  225.07188 (Kcal/Mol)
 Warning -- explicit consideration of  22 degrees of freedom as
           vibrations may cause significant error
 Vibrational temperatures:     46.52   107.48   112.09   182.07   232.61
          (Kelvin)            257.97   284.28   324.78   341.97   387.22
                              393.15   424.18   456.07   483.06   530.65
                              543.68   616.97   679.62   725.58   762.50
                              802.55   844.00   920.07   967.08  1028.29
                             1064.57  1137.08  1150.13  1164.73  1174.58
                             1212.90  1257.47  1276.03  1284.78  1308.10
                             1358.20  1377.22  1406.57  1435.56  1460.91
                             1474.18  1479.52  1502.58  1518.01  1546.27
                             1575.36  1589.68  1605.15  1615.63  1629.87
                             1675.47  1695.08  1728.31  1766.22  1781.85
                             1814.84  1839.32  1848.04  1872.48  1876.36
                             1881.14  1911.92  1928.65  1938.59  1948.47
                             1964.00  1971.02  1984.31  1994.19  2006.11
                             2020.61  2023.17  2030.71  2038.33  2069.85
                             2123.16  2125.83  2131.73  2134.93  2140.89
                             2146.47  2155.50  2157.57  2169.62  2171.63
                             2474.02  2493.22  4267.20  4317.72  4323.21
                             4332.15  4332.87  4341.50  4346.66  4354.69
                             4364.56  4377.91  4383.80  4388.89  4390.83
                             4396.15  4402.87  4407.21  4413.50  4427.77
                             4447.71  4461.20  4464.43  4469.54  4503.08
                             4512.56

 Zero-point correction=                           0.358675 (Hartree/Particle)
 Thermal correction to Energy=                    0.373393
 Thermal correction to Enthalpy=                  0.374337
 Thermal correction to Gibbs Free Energy=         0.317595
 Sum of electronic and zero-point Energies=           -585.697567
 Sum of electronic and thermal Energies=              -585.682849
 Sum of electronic and thermal Enthalpies=            -585.681904
 Sum of electronic and thermal Free Energies=         -585.738647

                     E (Thermal)             CV                S
                      KCal/Mol        Cal/Mol-Kelvin    Cal/Mol-Kelvin
 Total                  234.308             59.724            119.425
 Electronic               0.000              0.000              0.000
 Translational            0.889              2.981             41.846
 Rotational               0.889              2.981             32.202
 Vibrational            232.530             53.763             45.377
 Vibration     1          0.594              1.983              5.681
 Vibration     2          0.599              1.966              4.025
 Vibration     3          0.599              1.964              3.943
 Vibration     4          0.611              1.927              2.998
 Vibration     5          0.622              1.889              2.530
 Vibration     6          0.629              1.868              2.336
 Vibration     7          0.637              1.843              2.155
 Vibration     8          0.650              1.802              1.913
 Vibration     9          0.656              1.783              1.820
 Vibration    10          0.674              1.730              1.602
 Vibration    11          0.676              1.723              1.576
 Vibration    12          0.689              1.683              1.446
 Vibration    13          0.704              1.641              1.326
 Vibration    14          0.717              1.604              1.232
 Vibration    15          0.741              1.536              1.085
 Vibration    16          0.748              1.517              1.048
 Vibration    17          0.790              1.408              0.863
 Vibration    18          0.829              1.311              0.731
 Vibration    19          0.860              1.240              0.647
 Vibration    20          0.885              1.184              0.587
 Vibration    21          0.913              1.123              0.528
 Vibration    22          0.944              1.060              0.473

                           ! Non-Optimized Parameters !
 Normal termination of Gaussian 16 at Tue May 23 18:57:59 2023.
