 Gaussian 16, Revision A.03,
 Gaussian 16:  ES64L-G16RevA.03 25-Dec-2016

 -----------------------------
 # opt freq b3lyp/6-31g(2df,p)
 -----------------------------

 -------------------
 Title Card Required
 -------------------
 Symbolic Z-matrix:
 Charge =  0 Multiplicity = 1

 SCF Done:  E(RB3LYP) =  -196.536157624     A.U. after   12 cycles
 SCF Done:  E(RB3LYP) =  -196.539151704     A.U. after   10 cycles
 SCF Done:  E(RB3LYP) =  -196.539598454     A.U. after    9 cycles
 SCF Done:  E(RB3LYP) =  -196.540033069     A.U. after    9 cycles
 SCF Done:  E(RB3LYP) =  -196.540129455     A.U. after    9 cycles
 SCF Done:  E(RB3LYP) =  -196.540258962     A.U. after    9 cycles
 SCF Done:  E(RB3LYP) =  -196.540282839     A.U. after    8 cycles
 SCF Done:  E(RB3LYP) =  -196.540291061     A.U. after    8 cycles
 SCF Done:  E(RB3LYP) =  -196.540292794     A.U. after    7 cycles
 SCF Done:  E(RB3LYP) =  -196.540293059     A.U. after    6 cycles
 Optimization completed.
    -- Stationary point found.
 Normal termination of Gaussian 16 at Sun May 28 16:18:30 2023.

 ----------------------------------------------------------------------
 #N Geom=AllCheck Guess=TCheck SCRF=Check GenChk RB3LYP/6-31G(2df,p) Fr
 eq
 ----------------------------------------------------------------------

 Structure from the checkpoint file:  "CCC1CC1.chk"
 -------------------
 Title Card Required
 -------------------
 Charge =  0 Multiplicity = 1

                         Standard orientation:
 ---------------------------------------------------------------------
 Center     Atomic      Atomic             Coordinates (Angstroms)
 Number     Number       Type             X           Y           Z
 ---------------------------------------------------------------------
      1          6           0        1.752364    0.616809   -0.000233
      2          6           0        1.031738   -0.734896    0.000214
      3          6           0       -0.489501   -0.695389    0.000515
      4          6           0       -1.292136    0.334411    0.755353
      5          6           0       -1.292215    0.333222   -0.755753
      6          1           0        2.836404    0.467708   -0.000975
      7          1           0        1.506219    1.211783    0.884974
      8          1           0        1.505051    1.211889   -0.885047
      9          1           0        1.360993   -1.309899    0.876223
     10          1           0        1.360639   -1.310398   -0.875591
     11          1           0       -0.926533   -1.691363    0.001427
     12          1           0       -0.765093    1.140448    1.253897
     13          1           0       -2.187167    0.008967    1.274409
     14          1           0       -0.764729    1.138366   -1.255303
     15          1           0       -2.187285    0.007557   -1.274589
 ---------------------------------------------------------------------

 SCF Done:  E(RB3LYP) =  -196.540293059     A.U. after    1 cycles

 The electronic state is 1-A.
 Alpha  occ. eigenvalues --  -10.18359 -10.17895 -10.17603 -10.17579 -10.17154
 Alpha  occ. eigenvalues --   -0.84837  -0.74921  -0.64050  -0.59157  -0.54335
 Alpha  occ. eigenvalues --   -0.48743  -0.45073  -0.43789  -0.39710  -0.35995
 Alpha  occ. eigenvalues --   -0.35503  -0.34672  -0.32918  -0.28029  -0.26974
 Alpha virt. eigenvalues --    0.09236   0.10297   0.13273   0.13558   0.14906
 Alpha virt. eigenvalues --    0.17308   0.17462   0.18100   0.18994   0.20783
 Alpha virt. eigenvalues --    0.21634   0.25009   0.25668   0.27704   0.32691

 Mulliken charges:
               1
     1  C   -0.383701
     2  C   -0.188621
     3  C    0.036274
     4  C   -0.259538
     5  C   -0.259535
     6  H    0.113671
     7  H    0.118295
     8  H    0.118292
     9  H    0.096642
    10  H    0.096648
    11  H    0.078950
    12  H    0.109691
    13  H    0.106623
    14  H    0.109681
    15  H    0.106629
 Sum of Mulliken charges =  -0.00000

 Dipole moment (field-independent basis, Debye):
    X=              0.1336    Y=             -0.1374    Z=              0.0001  Tot=              0.1917
 Quadrupole moment (field-independent basis, Debye-Ang):
   XX=            -32.5200   YY=            -32.8612   ZZ=            -33.1649
   XY=              0.7785   XZ=             -0.0006   YZ=             -0.0002

  Exact polarizability:  58.177  -0.537  49.819  -0.000   0.001  49.258
 Approx polarizability:  73.149  -1.803  71.171   0.001   0.001  72.432

                      1                      2                      3
                      A                      A                      A
 Frequencies --     72.5782               252.9042               254.4024
 Red. masses --      1.6384                 1.1709                 2.8068
 Frc consts  --      0.0051                 0.0441                 0.1070
 IR Inten    --      0.0087                 0.0274                 0.0509

                      4                      5                      6
                      A                      A                      A
 Frequencies --    345.1660               490.6550               732.8033
 Red. masses --      1.9453                 2.2180                 2.3488
 Frc consts  --      0.1366                 0.3146                 0.7431
 IR Inten    --      0.3787                 0.5485                 2.5874

                      7                      8                      9
                      A                      A                      A
 Frequencies --    758.5445               792.0925               841.1333
 Red. masses --      1.1345                 1.1223                 1.2956
 Frc consts  --      0.3846                 0.4149                 0.5401
 IR Inten    --      1.6497                 0.3975                 3.8990

                     10                     11                     12
                      A                      A                      A
 Frequencies --    897.5790               924.4160              1010.0867
 Red. masses --      2.3988                 2.2220                 1.8058
 Frc consts  --      1.1386                 1.1188                 1.0855
 IR Inten    --      7.9289                 2.4220                 0.3808

                     13                     14                     15
                      A                      A                      A
 Frequencies --   1038.6145              1068.5845              1077.7250
 Red. masses --      1.2626                 1.7873                 1.3894
 Frc consts  --      0.8025                 1.2024                 0.9508
 IR Inten    --     12.0671                 0.8895                 0.9952

                     16                     17                     18
                      A                      A                      A
 Frequencies --   1128.4685              1157.6449              1157.8017
 Red. masses --      1.2740                 1.7171                 1.3660
 Frc consts  --      0.9559                 1.3558                 1.0789
 IR Inten    --      0.8885                 3.2332                 0.0151

                     19                     20                     21
                      A                      A                      A
 Frequencies --   1199.6380              1242.9501              1310.0564
 Red. masses --      1.4008                 1.7862                 1.1530
 Frc consts  --      1.1877                 1.6259                 1.1659
 IR Inten    --      0.4293                 0.5664                 0.5694

                     22                     23                     24
                      A                      A                      A
 Frequencies --   1373.6773              1394.8502              1424.3364
 Red. masses --      1.7806                 1.2908                 1.3318
 Frc consts  --      1.9797                 1.4797                 1.5919
 IR Inten    --      4.5871                 1.9049                 7.3777

                     25                     26                     27
                      A                      A                      A
 Frequencies --   1466.3888              1488.3854              1505.1994
 Red. masses --      1.0837                 1.0678                 1.1984
 Frc consts  --      1.3730                 1.3937                 1.5997
 IR Inten    --      0.2036                 0.4407                 6.4311

                     28                     29                     30
                      A                      A                      A
 Frequencies --   1506.4825              1515.0110              3008.8526
 Red. masses --      1.0424                 1.2265                 1.0593
 Frc consts  --      1.3938                 1.6586                 5.6504
 IR Inten    --      6.1705                 0.5977                41.0588

                     31                     32                     33
                      A                      A                      A
 Frequencies --   3035.9969              3038.1083              3104.0515
 Red. masses --      1.1018                 1.0354                 1.1005
 Frc consts  --      5.9836                 5.6307                 6.2474
 IR Inten    --     24.6201                20.9585                33.5446

                     34                     35                     36
                      A                      A                      A
 Frequencies --   3105.4588              3126.2106              3132.1235
 Red. masses --      1.1009                 1.0836                 1.0512
 Frc consts  --      6.2555                 6.2394                 6.0762
 IR Inten    --     28.9362                26.1029                30.8082

                     37                     38                     39
                      A                      A                      A
 Frequencies --   3137.3958              3207.1006              3222.2014
 Red. masses --      1.0628                 1.1169                 1.1147
 Frc consts  --      6.1637                 6.7683                 6.8192
 IR Inten    --      6.8503                 0.0329                27.1031

 - Thermochemistry -
 -------------------
 Temperature   298.150 Kelvin.  Pressure   1.00000 Atm.
 Atom     1 has atomic number  6 and mass  12.00000

 Molecular mass:    70.07825 amu.
 Principal axes and moments of inertia in atomic units:
                           1         2         3
     Eigenvalues --   196.08487 513.93241 543.80121
           X            0.99991   0.01359  -0.00001
           Y           -0.01359   0.99991  -0.00008
           Z            0.00001   0.00008   1.00000
 This molecule is an asymmetric top.
 Rotational symmetry number  1.
 Rotational temperatures (Kelvin)      0.44172     0.16853     0.15927
 Rotational constants (GHZ):           9.20388     3.51163     3.31875
 Zero-point vibrational energy     362143.6 (Joules/Mol)
                                   86.55439 (Kcal/Mol)
 Warning -- explicit consideration of   5 degrees of freedom as
           vibrations may cause significant error
 Vibrational temperatures:    104.42   363.87   366.03   496.62   705.94
          (Kelvin)           1054.34  1091.38  1139.64  1210.20  1291.42
                             1330.03  1453.29  1494.33  1537.45  1550.61
                             1623.61  1665.59  1665.82  1726.01  1788.33
                             1884.88  1976.42  2006.88  2049.30  2109.81
                             2141.45  2165.65  2167.49  2179.76  4329.07
                             4368.12  4371.16  4466.04  4468.06  4497.92
                             4506.43  4514.01  4614.30  4636.03

 Zero-point correction=                           0.137933 (Hartree/Particle)
 Thermal correction to Energy=                    0.143832
 Thermal correction to Enthalpy=                  0.144776
 Thermal correction to Gibbs Free Energy=         0.108961
 Sum of electronic and zero-point Energies=           -196.402360
 Sum of electronic and thermal Energies=              -196.396461
 Sum of electronic and thermal Enthalpies=            -196.395517
 Sum of electronic and thermal Free Energies=         -196.431332

                     E (Thermal)             CV                S
                      KCal/Mol        Cal/Mol-Kelvin    Cal/Mol-Kelvin
 Total                   90.256             21.271             75.380
 Electronic               0.000              0.000              0.000
 Translational            0.889              2.981             38.658
 Rotational               0.889              2.981             25.508
 Vibrational             88.478             15.310             11.213
 Vibration     1          0.599              1.967              4.082
 Vibration     2          0.664              1.758              1.710
 Vibration     3          0.665              1.755              1.700
 Vibration     4          0.724              1.585              1.188
 Vibration     5          0.846              1.271              0.682

 Optimization completed.
    -- Stationary point found.
 Normal termination of Gaussian 16 at Sun May 28 16:29:19 2023.
