 Gaussian 16, Revision A.03,
 Gaussian 16:  ES64L-G16RevA.03 25-Dec-2016

 -----------------------------
 # opt freq b3lyp/6-31g(2df,p)
 -----------------------------

 -------------------
 Title Card Required
 -------------------
 Symbolic Z-matrix:
 Charge =  0 Multiplicity = 1

 SCF Done:  E(RB3LYP) =  -522.067846508     A.U. after   16 cycles
 SCF Done:  E(RB3LYP) =  -522.107296317     A.U. after   14 cycles
 SCF Done:  E(RB3LYP) =  -522.118895441     A.U. after   13 cycles
 SCF Done:  E(RB3LYP) =  -522.122646468     A.U. after   12 cycles
 SCF Done:  E(RB3LYP) =  -522.125160002     A.U. after   13 cycles
 SCF Done:  E(RB3LYP) =  -522.127449172     A.U. after   13 cycles
 SCF Done:  E(RB3LYP) =  -522.128942523     A.U. after   13 cycles
 SCF Done:  E(RB3LYP) =  -522.130378315     A.U. after   14 cycles
 SCF Done:  E(RB3LYP) =  -522.131590040     A.U. after   13 cycles
 SCF Done:  E(RB3LYP) =  -522.131819821     A.U. after   13 cycles
 SCF Done:  E(RB3LYP) =  -522.155164183     A.U. after   11 cycles
 SCF Done:  E(RB3LYP) =  -522.155202388     A.U. after   11 cycles
 SCF Done:  E(RB3LYP) =  -522.155215228     A.U. after   10 cycles
 SCF Done:  E(RB3LYP) =  -522.155203292     A.U. after   10 cycles
 SCF Done:  E(RB3LYP) =  -522.155217759     A.U. after   10 cycles
 SCF Done:  E(RB3LYP) =  -522.155217022     A.U. after    9 cycles
 SCF Done:  E(RB3LYP) =  -522.155218434     A.U. after    9 cycles
 SCF Done:  E(RB3LYP) =  -522.155218576     A.U. after    7 cycles
 SCF Done:  E(RB3LYP) =  -522.155218631     A.U. after    7 cycles
 Optimization completed.
    -- Stationary point found.
 Normal termination of Gaussian 16 at Sun May 28 18:26:08 2023.

 ----------------------------------------------------------------------
 #N Geom=AllCheck Guess=TCheck SCRF=Check GenChk RB3LYP/6-31G(2df,p) Fr
 eq
 ----------------------------------------------------------------------

 Structure from the checkpoint file:  "CCC1CCCdCC2dCqCdC2rN1C.chk"
 -------------------
 Title Card Required
 -------------------
 Charge =  0 Multiplicity = 1

                         Standard orientation:
 ---------------------------------------------------------------------
 Center     Atomic      Atomic             Coordinates (Angstroms)
 Number     Number       Type             X           Y           Z
 ---------------------------------------------------------------------
      1          6           0        3.199279   -0.749122    0.974894
      2          6           0        1.667958   -0.682772    0.979144
      3          6           0        1.046816   -0.785276   -0.431324
      4          6           0        1.195029    0.476870   -1.326969
      5          6           0        1.438647    1.846234   -0.666148
      6          6           0        0.318719    2.533992    0.063982
      7          6           0       -0.919591    2.101004    0.390640
      8          6           0       -1.596868    0.861596    0.231681
      9          6           0       -1.373429   -0.473999   -0.047214
     10          6           0       -2.874112   -0.814276    0.162365
     11          6           0       -3.073158    0.480527    0.440738
     12          7           0       -0.347322   -1.270579   -0.358557
     13          6           0       -0.513852   -2.713962   -0.406342
     14          1           0        3.593752   -0.686693    1.993593
     15          1           0        3.646468    0.065299    0.397447
     16          1           0        3.551050   -1.692276    0.540720
     17          1           0        1.317628    0.234305    1.463168
     18          1           0        1.282864   -1.514228    1.581405
     19          1           0        1.571006   -1.595471   -0.951995
     20          1           0        0.324914    0.532676   -1.987824
     21          1           0        2.055326    0.293553   -1.980395
     22          1           0        1.775345    2.520288   -1.469386
     23          1           0        2.316595    1.771330   -0.006699
     24          1           0        0.557520    3.557354    0.345315
     25          1           0       -1.549318    2.852284    0.869989
     26          1           0       -3.483756   -1.698963    0.077027
     27          1           0       -3.950277    1.059304    0.707274
     28          1           0       -1.569286   -2.969840   -0.331067
     29          1           0        0.019205   -3.207254    0.417739
     30          1           0       -0.120419   -3.112506   -1.349090
 ---------------------------------------------------------------------

 SCF Done:  E(RB3LYP) =  -522.155218631     A.U. after    1 cycles

 The electronic state is 1-A.
 Alpha  occ. eigenvalues --  -14.36880 -10.22702 -10.22657 -10.22624 -10.18896
 Alpha  occ. eigenvalues --  -10.18321 -10.17989 -10.17865 -10.17122 -10.17051
 Alpha  occ. eigenvalues --  -10.15601 -10.14612 -10.14193  -0.96375  -0.84838
 Alpha  occ. eigenvalues --   -0.80412  -0.76421  -0.72915  -0.71670  -0.69206
 Alpha  occ. eigenvalues --   -0.64150  -0.61601  -0.59252  -0.57074  -0.52684
 Alpha  occ. eigenvalues --   -0.50889  -0.49936  -0.46837  -0.46240  -0.44927
 Alpha  occ. eigenvalues --   -0.43122  -0.42397  -0.40918  -0.39997  -0.39613
 Alpha  occ. eigenvalues --   -0.38334  -0.37778  -0.36530  -0.35835  -0.34996
 Alpha  occ. eigenvalues --   -0.34103  -0.32422  -0.32308  -0.30570  -0.30102
 Alpha  occ. eigenvalues --   -0.26456  -0.23961  -0.12673
 Alpha virt. eigenvalues --   -0.03013   0.05048   0.06881   0.09463   0.09974
 Alpha virt. eigenvalues --    0.11948   0.12348   0.12842   0.13237   0.14551
 Alpha virt. eigenvalues --    0.14860   0.15739   0.16090   0.16449   0.17522

 Mulliken charges:
               1
     1  C   -0.387461
     2  C   -0.192165
     3  C    0.020137
     4  C   -0.238682
     5  C   -0.270486
     6  C   -0.116289
     7  C   -0.163351
     8  C    0.142938
     9  C    0.253948
    10  C   -0.217231
    11  C   -0.142157
    12  N   -0.164290
    13  C   -0.354067
    14  H    0.119104
    15  H    0.125916
    16  H    0.110185
    17  H    0.136950
    18  H    0.093438
    19  H    0.080488
    20  H    0.122147
    21  H    0.096887
    22  H    0.095008
    23  H    0.098636
    24  H    0.061562
    25  H    0.066205
    26  H    0.105058
    27  H    0.108985
    28  H    0.148740
    29  H    0.129154
    30  H    0.130692
 Sum of Mulliken charges =  -0.00000

 Dipole moment (field-independent basis, Debye):
    X=              0.9825    Y=             -2.9776    Z=             -0.4019  Tot=              3.1612
 Quadrupole moment (field-independent basis, Debye-Ang):
   XX=            -76.4377   YY=            -75.7890   ZZ=            -80.7111
   XY=              0.5001   XZ=             -1.1595   YZ=              1.4368

  Exact polarizability: 160.123   8.594 165.575  -9.203   6.160  90.440
 Approx polarizability: 232.430  22.587 285.397 -17.188  17.099 143.251

                      1                      2                      3
                      A                      A                      A
 Frequencies --     47.2845                73.1713               114.8309
 Red. masses --      3.5143                 2.8349                 2.2840
 Frc consts  --      0.0046                 0.0089                 0.0177
 IR Inten    --      0.1411                 1.1971                 1.8779

                      4                      5                      6
                      A                      A                      A
 Frequencies --    139.8846               163.8299               179.5480
 Red. masses --      1.8284                 2.3404                 1.5457
 Frc consts  --      0.0211                 0.0370                 0.0294
 IR Inten    --      0.6252                 1.9177                 0.6141

                      7                      8                      9
                      A                      A                      A
 Frequencies --    195.3500               203.3326               251.6209
 Red. masses --      1.6260                 1.8729                 2.2349
 Frc consts  --      0.0366                 0.0456                 0.0834
 IR Inten    --      0.6041                 1.5546                 0.4089

                     10                     11                     12
                      A                      A                      A
 Frequencies --    272.1788               289.7928               318.5465
 Red. masses --      3.4545                 2.6793                 2.9915
 Frc consts  --      0.1508                 0.1326                 0.1788
 IR Inten    --      5.9577                 1.8827                 0.8056

                     13                     14                     15
                      A                      A                      A
 Frequencies --    351.0156               367.0525               429.2118
 Red. masses --      2.9440                 3.6308                 2.7152
 Frc consts  --      0.2137                 0.2882                 0.2947
 IR Inten    --      1.7014                 1.9733                 5.3996

                     16                     17                     18
                      A                      A                      A
 Frequencies --    434.0417               493.6208               510.5376
 Red. masses --      3.1696                 1.3366                 3.2512
 Frc consts  --      0.3518                 0.1919                 0.4993
 IR Inten    --      7.2501                44.0207                 4.9582

                     19                     20                     21
                      A                      A                      A
 Frequencies --    581.0658               601.5205               676.7781
 Red. masses --      2.4367                 3.3853                 4.6283
 Frc consts  --      0.4847                 0.7217                 1.2490
 IR Inten    --      7.8244                 0.9847                 9.6026

                     22                     23                     24
                      A                      A                      A
 Frequencies --    682.5711               721.0785               736.0055
 Red. masses --      2.1709                 2.7168                 2.6053
 Frc consts  --      0.5959                 0.8323                 0.8315
 IR Inten    --     12.2368                27.1839                 0.9443

                     25                     26                     27
                      A                      A                      A
 Frequencies --    756.9139               808.4744               861.1967
 Red. masses --      1.8398                 1.7821                 1.4129
 Frc consts  --      0.6210                 0.6863                 0.6174
 IR Inten    --      9.3968                12.1611                 4.4759

                     28                     29                     30
                      A                      A                      A
 Frequencies --    868.9849               896.1496               911.6955
 Red. masses --      1.9761                 2.2140                 2.6831
 Frc consts  --      0.8792                 1.0476                 1.3140
 IR Inten    --     10.9028                 5.1421                34.9547

                     31                     32                     33
                      A                      A                      A
 Frequencies --    956.8326               973.5493               985.8796
 Red. masses --      2.4336                 1.2790                 2.2469
 Frc consts  --      1.3127                 0.7142                 1.2867
 IR Inten    --     52.4741                 0.4288                 4.9506

                     34                     35                     36
                      A                      A                      A
 Frequencies --   1018.2193              1060.7445              1066.8222
 Red. masses --      2.3490                 1.4208                 1.9967
 Frc consts  --      1.4349                 0.9419                 1.3389
 IR Inten    --      8.1432                 0.7972                10.1057

                     37                     38                     39
                      A                      A                      A
 Frequencies --   1072.8679              1116.3213              1122.0296
 Red. masses --      1.6452                 1.9563                 2.5098
 Frc consts  --      1.1158                 1.4363                 1.8616
 IR Inten    --     27.4761                19.5434                 6.7430

                     40                     41                     42
                      A                      A                      A
 Frequencies --   1142.2036              1158.7630              1172.2998
 Red. masses --      1.6558                 1.9918                 2.0978
 Frc consts  --      1.2727                 1.5757                 1.6986
 IR Inten    --      1.2256                 5.2028                15.2576

                     43                     44                     45
                      A                      A                      A
 Frequencies --   1215.4796              1233.8157              1240.7450
 Red. masses --      1.5310                 1.9202                 1.5440
 Frc consts  --      1.3327                 1.7222                 1.4004
 IR Inten    --     30.1755                16.1426                23.1985

                     46                     47                     48
                      A                      A                      A
 Frequencies --   1272.8895              1283.7520              1305.5892
 Red. masses --      1.2794                 1.1880                 1.1828
 Frc consts  --      1.2214                 1.1536                 1.1879
 IR Inten    --      7.0195                 0.8303                 2.0898

                     49                     50                     51
                      A                      A                      A
 Frequencies --   1342.5184              1360.9565              1382.3927
 Red. masses --      1.2567                 1.4647                 1.3921
 Frc consts  --      1.3345                 1.5984                 1.5674
 IR Inten    --      5.9641                 7.1844                10.9525

                     52                     53                     54
                      A                      A                      A
 Frequencies --   1394.3783              1401.1097              1413.5302
 Red. masses --      1.5368                 1.5516                 1.2346
 Frc consts  --      1.7605                 1.7946                 1.4534
 IR Inten    --     10.1465                39.5674                 7.5573

                     55                     56                     57
                      A                      A                      A
 Frequencies --   1433.5112              1454.7073              1474.5985
 Red. masses --      1.3636                 1.2238                 1.0779
 Frc consts  --      1.6510                 1.5258                 1.3810
 IR Inten    --      7.8643                44.6568                 1.1310

                     58                     59                     60
                      A                      A                      A
 Frequencies --   1479.8317              1482.2845              1489.7879
 Red. masses --      1.0526                 1.0901                 1.7540
 Frc consts  --      1.3581                 1.4111                 2.2936
 IR Inten    --      3.6033                11.6446                18.6276

                     61                     62                     63
                      A                      A                      A
 Frequencies --   1498.7494              1500.4720              1509.2627
 Red. masses --      1.0500                 1.0570                 1.0819
 Frc consts  --      1.3897                 1.4021                 1.4520
 IR Inten    --      7.1680                 2.8406                 6.7395

                     64                     65                     66
                      A                      A                      A
 Frequencies --   1517.0333              1592.1216              1670.2179
 Red. masses --      1.3558                 4.9743                 6.1418
 Frc consts  --      1.8384                 7.4290                10.0947
 IR Inten    --     53.1020                55.4765               121.2649

                     67                     68                     69
                      A                      A                      A
 Frequencies --   1692.0333              2976.1274              2989.5784
 Red. masses --      7.1367                 1.0715                 1.0858
 Frc consts  --     12.0383                 5.5919                 5.7178
 IR Inten    --    405.8636                61.3324                43.0998

                     70                     71                     72
                      A                      A                      A
 Frequencies --   3005.2532              3018.3536              3031.8930
 Red. masses --      1.0463                 1.0782                 1.0382
 Frc consts  --      5.5677                 5.7874                 5.6230
 IR Inten    --     55.6180                35.1877                25.0598

                     73                     74                     75
                      A                      A                      A
 Frequencies --   3035.2980              3043.4237              3055.4865
 Red. masses --      1.0655                 1.0688                 1.0988
 Frc consts  --      5.7835                 5.8325                 6.0438
 IR Inten    --     20.7666                52.0108                32.5916

                     76                     77                     78
                      A                      A                      A
 Frequencies --   3079.7199              3088.3281              3100.2537
 Red. masses --      1.0959                 1.0970                 1.0829
 Frc consts  --      6.1239                 6.1646                 6.1323
 IR Inten    --      1.1955                23.3164                14.3980

                     79                     80                     81
                      A                      A                      A
 Frequencies --   3101.3827              3111.4018              3141.5166
 Red. masses --      1.0998                 1.1014                 1.0890
 Frc consts  --      6.2327                 6.2823                 6.3325
 IR Inten    --     33.7835                29.5427                36.4249

                     82                     83                     84
                      A                      A                      A
 Frequencies --   3163.4706              3195.1735              3262.2159
 Red. masses --      1.0946                 1.0901                 1.1082
 Frc consts  --      6.4543                 6.5568                 6.9483
 IR Inten    --      8.6103                23.2867                 3.0770

 - Thermochemistry -
 -------------------
 Temperature   298.150 Kelvin.  Pressure   1.00000 Atm.
 Atom     1 has atomic number  6 and mass  12.00000

 Molecular mass:   175.13610 amu.
 Principal axes and moments of inertia in atomic units:
                           1         2         3
     Eigenvalues --  1725.256142385.271873508.85017
           X            0.99998   0.00545   0.00427
           Y           -0.00545   0.99999   0.00007
           Z           -0.00426  -0.00009   0.99999
 This molecule is an asymmetric top.
 Rotational symmetry number  1.
 Warning -- assumption of classical behavior for rotation
           may cause significant error
 Rotational temperatures (Kelvin)      0.05020     0.03631     0.02468
 Rotational constants (GHZ):           1.04607     0.75662     0.51434
 Zero-point vibrational energy     686802.8 (Joules/Mol)
                                  164.14981 (Kcal/Mol)
 Warning -- explicit consideration of  20 degrees of freedom as
           vibrations may cause significant error
 Vibrational temperatures:     68.03   105.28   165.22   201.26   235.71
          (Kelvin)            258.33   281.07   292.55   362.03   391.60
                              416.95   458.32   505.03   528.11   617.54
                              624.49   710.21   734.55   836.02   865.45
                              973.73   982.07  1037.47  1058.95  1089.03
                             1163.21  1239.07  1250.28  1289.36  1311.73
                             1376.67  1400.72  1418.46  1464.99  1526.17
                             1534.92  1543.62  1606.14  1614.35  1643.38
                             1667.20  1686.68  1748.80  1775.19  1785.16
                             1831.40  1847.03  1878.45  1931.58  1958.11
                             1988.95  2006.20  2015.88  2033.75  2062.50
                             2093.00  2121.62  2129.15  2132.68  2143.47
                             2156.37  2158.84  2171.49  2182.67  2290.71
                             2403.07  2434.46  4281.98  4301.34  4323.89
                             4342.74  4362.22  4367.12  4378.81  4396.16
                             4431.03  4443.42  4460.57  4462.20  4476.61
                             4519.94  4551.53  4597.14  4693.60

 Zero-point correction=                           0.261589 (Hartree/Particle)
 Thermal correction to Energy=                    0.274943
 Thermal correction to Enthalpy=                  0.275888
 Thermal correction to Gibbs Free Energy=         0.222474
 Sum of electronic and zero-point Energies=           -521.893629
 Sum of electronic and thermal Energies=              -521.880275
 Sum of electronic and thermal Enthalpies=            -521.879331
 Sum of electronic and thermal Free Energies=         -521.932745

                     E (Thermal)             CV                S
                      KCal/Mol        Cal/Mol-Kelvin    Cal/Mol-Kelvin
 Total                  172.530             51.627            112.418
 Electronic               0.000              0.000              0.000
 Translational            0.889              2.981             41.388
 Rotational               0.889              2.981             31.046
 Vibrational            170.752             45.665             39.983
 Vibration     1          0.595              1.979              4.928
 Vibration     2          0.599              1.967              4.066
 Vibration     3          0.608              1.937              3.186
 Vibration     4          0.615              1.913              2.805
 Vibration     5          0.623              1.887              2.505
 Vibration     6          0.629              1.867              2.333
 Vibration     7          0.636              1.846              2.176
 Vibration     8          0.639              1.835              2.103
 Vibration     9          0.664              1.760              1.719
 Vibration    10          0.675              1.725              1.582
 Vibration    11          0.686              1.693              1.475
 Vibration    12          0.705              1.638              1.318
 Vibration    13          0.728              1.573              1.162
 Vibration    14          0.740              1.540              1.092
 Vibration    15          0.791              1.407              0.861
 Vibration    16          0.795              1.396              0.846
 Vibration    17          0.849              1.264              0.674
 Vibration    18          0.866              1.227              0.632
 Vibration    19          0.938              1.072              0.483
 Vibration    20          0.960              1.029              0.447

 Optimization completed.
    -- Stationary point found.
 Normal termination of Gaussian 16 at Sun May 28 20:19:23 2023.
