 Gaussian 16, Revision A.03,
 Gaussian 16:  ES64L-G16RevA.03 25-Dec-2016

 -----------------------------
 # opt freq b3lyp/6-31g(2df,p)
 -----------------------------

 -------------------
 Title Card Required
 -------------------
 Symbolic Z-matrix:
 Charge =  0 Multiplicity = 1

 SCF Done:  E(RB3LYP) =  -352.462842909     A.U. after   12 cycles
 SCF Done:  E(RB3LYP) =  -352.499519578     A.U. after   11 cycles
 SCF Done:  E(RB3LYP) =  -352.523705162     A.U. after   11 cycles
 SCF Done:  E(RB3LYP) =  -352.524985756     A.U. after   10 cycles
 SCF Done:  E(RB3LYP) =  -352.529956806     A.U. after   11 cycles
 SCF Done:  E(RB3LYP) =  -352.531766830     A.U. after   10 cycles
 SCF Done:  E(RB3LYP) =  -352.532089491     A.U. after    9 cycles
 SCF Done:  E(RB3LYP) =  -352.532226180     A.U. after    9 cycles
 SCF Done:  E(RB3LYP) =  -352.532319744     A.U. after    9 cycles
 SCF Done:  E(RB3LYP) =  -352.532355298     A.U. after    9 cycles
 SCF Done:  E(RB3LYP) =  -352.532383139     A.U. after    7 cycles
 SCF Done:  E(RB3LYP) =  -352.532383675     A.U. after    7 cycles
 SCF Done:  E(RB3LYP) =  -352.532384408     A.U. after    8 cycles
 SCF Done:  E(RB3LYP) =  -352.532386029     A.U. after    8 cycles
 SCF Done:  E(RB3LYP) =  -352.532387987     A.U. after    9 cycles
 SCF Done:  E(RB3LYP) =  -352.532389674     A.U. after    7 cycles
 SCF Done:  E(RB3LYP) =  -352.532391058     A.U. after    8 cycles
 SCF Done:  E(RB3LYP) =  -352.532391298     A.U. after    7 cycles
 SCF Done:  E(RB3LYP) =  -352.532391297     A.U. after    5 cycles
 Optimization completed.
    -- Stationary point found.
 Normal termination of Gaussian 16 at Sun May 28 04:52:18 2023.

 ----------------------------------------------------------------------
 #N Geom=AllCheck Guess=TCheck SCRF=Check GenChk RB3LYP/6-31G(2df,p) Fr
 eq
 ----------------------------------------------------------------------

 Structure from the checkpoint file:  "CCC1C2CqCrC1C2C.chk"
 -------------------
 Title Card Required
 -------------------
 Charge =  0 Multiplicity = 1

                         Standard orientation:
 ---------------------------------------------------------------------
 Center     Atomic      Atomic             Coordinates (Angstroms)
 Number     Number       Type             X           Y           Z
 ---------------------------------------------------------------------
      1          6           0       -2.651089   -1.558684    0.137293
      2          6           0       -1.883267   -0.276039   -0.209200
      3          6           0       -0.362518   -0.494844   -0.145393
      4          6           0        0.718016    0.330313   -0.929578
      5          6           0        1.780533   -0.262094    0.061313
      6          6           0        2.289842   -1.694739   -0.014443
      7          6           0        0.551926    0.166690    0.936509
      8          6           0        0.570776    1.496451    0.100575
      9          6           0       -0.546327    2.534302    0.040095
     10          1           0       -3.733104   -1.394873    0.113385
     11          1           0       -2.389582   -1.914991    1.140064
     12          1           0       -2.418762   -2.363691   -0.568790
     13          1           0       -2.201584    0.510437    0.479078
     14          1           0       -2.176084    0.054576   -1.214253
     15          1           0       -0.194618   -1.569968   -0.243451
     16          1           0        0.815396    0.419886   -2.015183
     17          1           0        2.639718    0.405360    0.193041
     18          1           0        1.508880   -2.447473   -0.142348
     19          1           0        2.840197   -1.946011    0.899417
     20          1           0        2.988728   -1.801169   -0.851915
     21          1           0        0.460185    0.075123    2.022456
     22          1           0        1.513105    2.038355    0.249889
     23          1           0       -1.475784    2.177877   -0.399593
     24          1           0       -0.211333    3.384623   -0.564652
     25          1           0       -0.772709    2.923800    1.039820
 ---------------------------------------------------------------------

 SCF Done:  E(RB3LYP) =  -352.532391297     A.U. after    1 cycles

 The electronic state is 1-A.
 Alpha  occ. eigenvalues --  -10.18902 -10.18878 -10.18566 -10.18444 -10.18059
 Alpha  occ. eigenvalues --  -10.17370 -10.16927 -10.16891 -10.16700  -0.90057
 Alpha  occ. eigenvalues --   -0.76485  -0.73910  -0.70575  -0.65318  -0.61486
 Alpha  occ. eigenvalues --   -0.58910  -0.57052  -0.51198  -0.48543  -0.45164
 Alpha  occ. eigenvalues --   -0.43577  -0.41862  -0.40931  -0.39670  -0.39587
 Alpha  occ. eigenvalues --   -0.38137  -0.36463  -0.35075  -0.34738  -0.31945
 Alpha  occ. eigenvalues --   -0.29946  -0.29344  -0.28811  -0.28475  -0.27991
 Alpha virt. eigenvalues --    0.10017   0.10593   0.11057   0.12228   0.13204
 Alpha virt. eigenvalues --    0.13952   0.14847   0.15120   0.15406   0.16495
 Alpha virt. eigenvalues --    0.16965   0.17416   0.18290   0.18636   0.19155

 Mulliken charges:
               1
     1  C   -0.390837
     2  C   -0.230174
     3  C    0.076678
     4  C   -0.113884
     5  C    0.070104
     6  C   -0.453593
     7  C   -0.103663
     8  C    0.075135
     9  C   -0.454179
    10  H    0.107736
    11  H    0.115373
    12  H    0.113971
    13  H    0.105606
    14  H    0.097075
    15  H    0.057242
    16  H    0.055784
    17  H    0.059183
    18  H    0.120774
    19  H    0.115583
    20  H    0.115610
    21  H    0.055964
    22  H    0.058469
    23  H    0.122149
    24  H    0.110804
    25  H    0.113092
 Sum of Mulliken charges =  -0.00000

 Dipole moment (field-independent basis, Debye):
    X=             -0.0107    Y=              0.0120    Z=             -0.0087  Tot=              0.0183
 Quadrupole moment (field-independent basis, Debye-Ang):
   XX=            -58.0532   YY=            -58.4966   ZZ=            -57.6817
   XY=             -0.1095   XZ=              0.0555   YZ=              0.1227

  Exact polarizability: 102.740  -2.154  99.832   0.031  -0.169  81.050
 Approx polarizability: 135.053  -0.880 134.625   0.203   0.072 129.573

                      1                      2                      3
                      A                      A                      A
 Frequencies --     21.1398               121.0104               157.6784
 Red. masses --      1.8005                 1.4314                 1.0338
 Frc consts  --      0.0005                 0.0123                 0.0151
 IR Inten    --      0.0296                 0.0437                 0.0011

                      4                      5                      6
                      A                      A                      A
 Frequencies --    174.5140               195.1262               211.1630
 Red. masses --      2.0620                 1.7061                 1.8348
 Frc consts  --      0.0370                 0.0383                 0.0482
 IR Inten    --      0.0843                 0.0558                 0.2656

                      7                      8                      9
                      A                      A                      A
 Frequencies --    281.2182               300.7635               358.5639
 Red. masses --      1.8420                 1.8194                 2.6201
 Frc consts  --      0.0858                 0.0970                 0.1985
 IR Inten    --      0.2019                 0.1121                 0.1135

                     10                     11                     12
                      A                      A                      A
 Frequencies --    381.6647               392.4419               521.8761
 Red. masses --      3.1256                 2.4345                 3.7484
 Frc consts  --      0.2683                 0.2209                 0.6015
 IR Inten    --      0.3538                 0.0827                 0.1091

                     13                     14                     15
                      A                      A                      A
 Frequencies --    612.4250               724.8763               753.8249
 Red. masses --      2.8634                 3.0122                 1.5630
 Frc consts  --      0.6328                 0.9325                 0.5233
 IR Inten    --      1.2563                 0.0430                 0.6287

                     16                     17                     18
                      A                      A                      A
 Frequencies --    764.2835               813.8502               829.6008
 Red. masses --      2.3968                 1.9609                 1.9860
 Frc consts  --      0.8249                 0.7652                 0.8053
 IR Inten    --      0.1358                 0.5138                 1.3271

                     19                     20                     21
                      A                      A                      A
 Frequencies --    869.9032               878.3202               968.5349
 Red. masses --      2.2302                 1.9024                 2.0730
 Frc consts  --      0.9943                 0.8647                 1.1457
 IR Inten    --      1.0130                 0.9784                 4.5062

                     22                     23                     24
                      A                      A                      A
 Frequencies --   1017.5554              1024.1806              1040.0448
 Red. masses --      1.1842                 1.0894                 1.1992
 Frc consts  --      0.7224                 0.6733                 0.7643
 IR Inten    --      0.3128                 0.8581                 1.4909

                     25                     26                     27
                      A                      A                      A
 Frequencies --   1043.5293              1051.4323              1056.2462
 Red. masses --      1.9463                 2.1582                 2.0200
 Frc consts  --      1.2487                 1.4058                 1.3278
 IR Inten    --      2.9840                 2.5381                 1.9336

                     28                     29                     30
                      A                      A                      A
 Frequencies --   1077.9308              1112.0017              1116.9965
 Red. masses --      1.7889                 1.5938                 1.7493
 Frc consts  --      1.2247                 1.1612                 1.2859
 IR Inten    --      1.1744                 0.8940                 0.6753

                     31                     32                     33
                      A                      A                      A
 Frequencies --   1139.5941              1168.1885              1180.2795
 Red. masses --      2.2130                 2.7959                 1.4716
 Frc consts  --      1.6933                 2.2480                 1.2079
 IR Inten    --      1.7524                 0.0887                 0.0270

                     34                     35                     36
                      A                      A                      A
 Frequencies --   1201.1622              1213.5795              1238.8048
 Red. masses --      2.3703                 1.7382                 1.7906
 Frc consts  --      2.0149                 1.5083                 1.6191
 IR Inten    --      1.1945                 0.6568                 2.1741

                     37                     38                     39
                      A                      A                      A
 Frequencies --   1253.3616              1284.2850              1310.7358
 Red. masses --      1.6140                 2.0255                 1.2169
 Frc consts  --      1.4938                 1.9684                 1.2318
 IR Inten    --      2.9648                 0.5195                 2.6720

                     40                     41                     42
                      A                      A                      A
 Frequencies --   1342.3558              1405.9810              1408.3652
 Red. masses --      1.3543                 1.2482                 1.2487
 Frc consts  --      1.4378                 1.4537                 1.4593
 IR Inten    --      5.4989                 1.7079                 9.9944

                     43                     44                     45
                      A                      A                      A
 Frequencies --   1412.1495              1413.9470              1441.9478
 Red. masses --      1.2420                 1.2266                 1.2076
 Frc consts  --      1.4592                 1.4449                 1.4793
 IR Inten    --      5.7066                 4.2121                 1.3058

                     46                     47                     48
                      A                      A                      A
 Frequencies --   1471.6703              1486.4995              1496.0736
 Red. masses --      1.2351                 1.0608                 1.0461
 Frc consts  --      1.5761                 1.3810                 1.3795
 IR Inten    --      0.0809                 2.5516                 3.2188

                     49                     50                     51
                      A                      A                      A
 Frequencies --   1498.2186              1500.5622              1504.7502
 Red. masses --      1.0523                 1.0521                 1.0608
 Frc consts  --      1.3917                 1.3958                 1.4151
 IR Inten    --      2.1494                 5.5622                 2.8923

                     52                     53                     54
                      A                      A                      A
 Frequencies --   1506.2938              1515.2563              3009.5096
 Red. masses --      1.0621                 1.0550                 1.0815
 Frc consts  --      1.4199                 1.4272                 5.7713
 IR Inten    --      2.0316                 2.2362                23.1118

                     55                     56                     57
                      A                      A                      A
 Frequencies --   3021.0900              3026.8246              3028.9724
 Red. masses --      1.0686                 1.0356                 1.0579
 Frc consts  --      5.7466                 5.5899                 5.7183
 IR Inten    --     22.3308                33.4302                19.2063

                     58                     59                     60
                      A                      A                      A
 Frequencies --   3033.2740              3035.3733              3062.2010
 Red. masses --      1.0460                 1.0618                 1.0829
 Frc consts  --      5.6700                 5.7637                 5.9830
 IR Inten    --     52.5291                54.7310                28.7600

                     61                     62                     63
                      A                      A                      A
 Frequencies --   3065.7509              3075.5272              3079.3840
 Red. masses --      1.0890                 1.0918                 1.0958
 Frc consts  --      6.0304                 6.0845                 6.1221
 IR Inten    --    124.1604                 4.9134                16.1858

                     64                     65                     66
                      A                      A                      A
 Frequencies --   3081.0985              3085.0473              3098.5269
 Red. masses --      1.0988                 1.1003                 1.1018
 Frc consts  --      6.1456                 6.1700                 6.2325
 IR Inten    --     16.8288                22.8104                43.0807

                     67                     68                     69
                      A                      A                      A
 Frequencies --   3103.9477              3118.7019              3162.6342
 Red. masses --      1.0993                 1.0958                 1.0919
 Frc consts  --      6.2400                 6.2797                 6.4349
 IR Inten    --     57.4178                40.7691                19.3215

 - Thermochemistry -
 -------------------
 Temperature   298.150 Kelvin.  Pressure   1.00000 Atm.
 Atom     1 has atomic number  6 and mass  12.00000

 Molecular mass:   124.12520 amu.
 Principal axes and moments of inertia in atomic units:
                           1         2         3
     Eigenvalues --   955.046871255.532591946.55393
           X            0.99981  -0.01963  -0.00094
           Y            0.01963   0.99981  -0.00078
           Z            0.00096   0.00076   1.00000
 This molecule is an asymmetric top.
 Rotational symmetry number  1.
 Warning -- assumption of classical behavior for rotation
           may cause significant error
 Rotational temperatures (Kelvin)      0.09069     0.06899     0.04450
 Rotational constants (GHZ):           1.88969     1.43743     0.92715
 Zero-point vibrational energy     600253.9 (Joules/Mol)
                                  143.46413 (Kcal/Mol)
 Warning -- explicit consideration of  13 degrees of freedom as
           vibrations may cause significant error
 Vibrational temperatures:     30.42   174.11   226.86   251.09   280.74
          (Kelvin)            303.82   404.61   432.73   515.89   549.13
                              564.64   750.86   881.14  1042.94  1084.59
                             1099.63  1170.95  1193.61  1251.60  1263.71
                             1393.51  1464.04  1473.57  1496.39  1501.41
                             1512.78  1519.70  1550.90  1599.92  1607.11
                             1639.62  1680.76  1698.16  1728.20  1746.07
                             1782.36  1803.31  1847.80  1885.86  1931.35
                             2022.89  2026.32  2031.77  2034.35  2074.64
                             2117.41  2138.74  2152.52  2155.60  2158.97
                             2165.00  2167.22  2180.12  4330.01  4346.67
                             4354.93  4358.02  4364.20  4367.23  4405.82
                             4410.93  4425.00  4430.55  4433.01  4438.69
                             4458.09  4465.89  4487.12  4550.33

 Zero-point correction=                           0.228625 (Hartree/Particle)
 Thermal correction to Energy=                    0.238695
 Thermal correction to Enthalpy=                  0.239639
 Thermal correction to Gibbs Free Energy=         0.192941
 Sum of electronic and zero-point Energies=           -352.303767
 Sum of electronic and thermal Energies=              -352.293696
 Sum of electronic and thermal Enthalpies=            -352.292752
 Sum of electronic and thermal Free Energies=         -352.339451

                     E (Thermal)             CV                S
                      KCal/Mol        Cal/Mol-Kelvin    Cal/Mol-Kelvin
 Total                  149.784             38.237             98.286
 Electronic               0.000              0.000              0.000
 Translational            0.889              2.981             40.362
 Rotational               0.889              2.981             29.236
 Vibrational            148.006             32.275             28.688
 Vibration     1          0.593              1.985              6.524
 Vibration     2          0.609              1.932              3.084
 Vibration     3          0.621              1.894              2.577
 Vibration     4          0.627              1.874              2.386
 Vibration     5          0.636              1.847              2.179
 Vibration     6          0.643              1.824              2.034
 Vibration     7          0.681              1.708              1.526
 Vibration     8          0.693              1.672              1.413
 Vibration     9          0.733              1.558              1.128
 Vibration    10          0.751              1.509              1.033
 Vibration    11          0.760              1.486              0.991
 Vibration    12          0.877              1.202              0.606
 Vibration    13          0.972              1.006              0.429

 Optimization completed.
    -- Stationary point found.
 Normal termination of Gaussian 16 at Sun May 28 05:34:18 2023.
