 Gaussian 16, Revision A.03,
 Gaussian 16:  ES64L-G16RevA.03 25-Dec-2016

 -----------------------------
 # opt freq b3lyp/6-31g(2df,p)
 -----------------------------

 -------------------
 Title Card Required
 -------------------
 Symbolic Z-matrix:
 Charge =  0 Multiplicity = 1

 SCF Done:  E(RB3LYP) =  -1031.33446388     A.U. after   12 cycles
 SCF Done:  E(RB3LYP) =  -1031.34597658     A.U. after   11 cycles
 SCF Done:  E(RB3LYP) =  -1031.34780686     A.U. after   11 cycles
 SCF Done:  E(RB3LYP) =  -1031.34845468     A.U. after   11 cycles
 SCF Done:  E(RB3LYP) =  -1031.34932748     A.U. after   11 cycles
 SCF Done:  E(RB3LYP) =  -1031.35013983     A.U. after   12 cycles
 SCF Done:  E(RB3LYP) =  -1031.35036522     A.U. after   11 cycles
 SCF Done:  E(RB3LYP) =  -1031.35083413     A.U. after   10 cycles
 SCF Done:  E(RB3LYP) =  -1031.35099692     A.U. after   10 cycles
 SCF Done:  E(RB3LYP) =  -1031.35107936     A.U. after   10 cycles
 SCF Done:  E(RB3LYP) =  -1031.35109390     A.U. after    9 cycles
 SCF Done:  E(RB3LYP) =  -1031.35109478     A.U. after    9 cycles
 SCF Done:  E(RB3LYP) =  -1031.35109574     A.U. after    9 cycles
 SCF Done:  E(RB3LYP) =  -1031.35109596     A.U. after    7 cycles
 SCF Done:  E(RB3LYP) =  -1031.35109601     A.U. after    7 cycles
 SCF Done:  E(RB3LYP) =  -1031.35109605     A.U. after    7 cycles
 SCF Done:  E(RB3LYP) =  -1031.35109606     A.U. after    7 cycles
 SCF Done:  E(RB3LYP) =  -1031.35109608     A.U. after    7 cycles
 SCF Done:  E(RB3LYP) =  -1031.35109608     A.U. after    6 cycles
 Optimization completed.
    -- Stationary point found.
 Normal termination of Gaussian 16 at Sat May 27 22:30:11 2023.

 ----------------------------------------------------------------------
 #N Geom=AllCheck Guess=TCheck SCRF=Check GenChk RB3LYP/6-31G(2df,p) Fr
 eq
 ----------------------------------------------------------------------

 Structure from the checkpoint file:  "CCC1dCCCqCNNCCSCNrO1.chk"
 -------------------
 Title Card Required
 -------------------
 Charge =  0 Multiplicity = 1

                         Standard orientation:
 ---------------------------------------------------------------------
 Center     Atomic      Atomic             Coordinates (Angstroms)
 Number     Number       Type             X           Y           Z
 ---------------------------------------------------------------------
      1          6           0       -5.880299   -2.003377    0.440888
      2          6           0       -6.047106   -0.538341    0.003450
      3          6           0       -4.768516    0.230404    0.047621
      4          6           0       -4.412398    1.302357    0.755468
      5          6           0       -2.979675    1.659507    0.443617
      6          6           0       -2.625587    0.610709   -0.648469
      7          6           0       -1.419286   -0.267161   -0.333943
      8          7           0       -0.189989    0.521055   -0.429828
      9          7           0        0.936001   -0.322606   -0.003596
     10          6           0        2.174610    0.442014   -0.185154
     11          6           0        3.369911   -0.444407    0.158979
     12         16           0        4.919996    0.510298   -0.012040
     13          6           0        6.127621   -0.794713    0.455197
     14          7           0        7.435281   -0.365800   -0.003648
     15          8           0       -3.782913   -0.252931   -0.775471
     16          1           0       -6.830656   -2.539761    0.365600
     17          1           0       -5.535260   -2.063477    1.477756
     18          1           0       -5.146397   -2.512176   -0.188969
     19          1           0       -6.779053   -0.030569    0.638750
     20          1           0       -6.437701   -0.512292   -1.022204
     21          1           0       -5.039760    1.820253    1.465294
     22          1           0       -2.328341    1.562404    1.325247
     23          1           0       -2.859133    2.684697    0.075708
     24          1           0       -2.470532    1.091279   -1.620456
     25          1           0       -1.373111   -1.068067   -1.082381
     26          1           0       -1.549133   -0.744938    0.650902
     27          1           0       -0.237668    1.233547    0.298695
     28          1           0        0.949357   -1.068986   -0.698902
     29          1           0        2.147463    1.295061    0.504157
     30          1           0        2.270913    0.852170   -1.202015
     31          1           0        3.408503   -1.309264   -0.514332
     32          1           0        3.268816   -0.813996    1.183305
     33          1           0        5.762120   -1.744957    0.034987
     34          1           0        6.152966   -0.892301    1.544559
     35          1           0        7.503342   -0.448004   -1.012364
     36          1           0        8.161930   -0.942430    0.406653
 ---------------------------------------------------------------------

 SCF Done:  E(RB3LYP) =  -1031.35109608     A.U. after    1 cycles

 The electronic state is 1-A.
 Alpha  occ. eigenvalues --  -88.85856 -19.15235 -14.34033 -14.34001 -14.31968
 Alpha  occ. eigenvalues --  -10.23661 -10.23485 -10.22457 -10.20994 -10.20932
 Alpha  occ. eigenvalues --  -10.20383 -10.18831 -10.18792 -10.17440 -10.16097
 Alpha  occ. eigenvalues --   -7.92221  -5.88699  -5.88372  -5.87723  -1.05269
 Alpha  occ. eigenvalues --   -0.96248  -0.89205  -0.83281  -0.79049  -0.78267
 Alpha  occ. eigenvalues --   -0.76539  -0.72414  -0.68985  -0.65491  -0.62293
 Alpha  occ. eigenvalues --   -0.61473  -0.59052  -0.58022  -0.53791  -0.50745
 Alpha  occ. eigenvalues --   -0.49965  -0.49210  -0.47649  -0.46974  -0.45663
 Alpha  occ. eigenvalues --   -0.44740  -0.43604  -0.43038  -0.41336  -0.40892
 Alpha  occ. eigenvalues --   -0.40843  -0.39434  -0.38404  -0.37986  -0.37217
 Alpha  occ. eigenvalues --   -0.36325  -0.35278  -0.34915  -0.34690  -0.33902
 Alpha  occ. eigenvalues --   -0.32564  -0.31584  -0.31008  -0.29911  -0.24617
 Alpha  occ. eigenvalues --   -0.21618  -0.20189  -0.19581
 Alpha virt. eigenvalues --    0.03505   0.04152   0.07420   0.08105   0.08328
 Alpha virt. eigenvalues --    0.09335   0.10258   0.11245   0.12192   0.12789
 Alpha virt. eigenvalues --    0.13047   0.13766   0.14271   0.15027   0.15327

 Mulliken charges:
               1
     1  C   -0.371851
     2  C   -0.284681
     3  C    0.427243
     4  C   -0.270837
     5  C   -0.294037
     6  C    0.100086
     7  C   -0.141436
     8  N   -0.304070
     9  N   -0.300397
    10  C   -0.117653
    11  C   -0.211646
    12  S   -0.130153
    13  C   -0.143438
    14  N   -0.494206
    15  O   -0.287637
    16  H    0.111847
    17  H    0.119076
    18  H    0.134307
    19  H    0.109706
    20  H    0.115015
    21  H    0.092560
    22  H    0.100915
    23  H    0.112949
    24  H    0.095311
    25  H    0.106496
    26  H    0.097165
    27  H    0.231164
    28  H    0.224193
    29  H    0.116157
    30  H    0.109872
    31  H    0.112616
    32  H    0.130923
    33  H    0.101922
    34  H    0.129476
    35  H    0.239085
    36  H    0.233959
 Sum of Mulliken charges =  -0.00000

 Dipole moment (field-independent basis, Debye):
    X=              0.0208    Y=             -2.2445    Z=              0.3690  Tot=              2.2748
 Quadrupole moment (field-independent basis, Debye-Ang):
   XX=            -88.2441   YY=            -97.9451   ZZ=            -99.7377
   XY=            -18.0342   XZ=             -3.2241   YZ=              1.9797

  Exact polarizability: 215.856   4.132 138.189  -1.460   5.509 118.098
 Approx polarizability: 238.527   7.649 217.409   1.221  15.752 193.416

                      1                      2                      3
                      A                      A                      A
 Frequencies --     13.7537                15.0716                23.5150
 Red. masses --      3.7433                 3.8373                 3.9030
 Frc consts  --      0.0004                 0.0005                 0.0013
 IR Inten    --      3.6900                 0.2344                 2.9749

                      4                      5                      6
                      A                      A                      A
 Frequencies --     46.2927                53.9545                74.8019
 Red. masses --      3.4839                 3.4408                 2.4545
 Frc consts  --      0.0044                 0.0059                 0.0081
 IR Inten    --      0.6368                 1.1691                 1.6046

                      7                      8                      9
                      A                      A                      A
 Frequencies --     80.6520                93.0661               116.9899
 Red. masses --      2.0929                 3.3063                 3.7572
 Frc consts  --      0.0080                 0.0169                 0.0303
 IR Inten    --      1.1124                 0.1016                 5.4391

                     10                     11                     12
                      A                      A                      A
 Frequencies --    127.6195               135.9729               152.3417
 Red. masses --      2.9663                 2.9613                 2.7935
 Frc consts  --      0.0285                 0.0323                 0.0382
 IR Inten    --      2.1896                 0.1325                 0.2482

                     13                     14                     15
                      A                      A                      A
 Frequencies --    176.5203               206.4513               218.7449
 Red. masses --      3.7648                 1.3961                 3.3218
 Frc consts  --      0.0691                 0.0351                 0.0936
 IR Inten    --      1.8938                 0.1803                 0.9436

                     16                     17                     18
                      A                      A                      A
 Frequencies --    250.6145               301.4398               319.8704
 Red. masses --      1.1781                 2.1672                 3.6344
 Frc consts  --      0.0436                 0.1160                 0.2191
 IR Inten    --     50.4926                 7.4460                 0.3401

                     19                     20                     21
                      A                      A                      A
 Frequencies --    350.0322               391.0093               404.1677
 Red. masses --      3.6067                 3.9476                 2.8565
 Frc consts  --      0.2604                 0.3556                 0.2749
 IR Inten    --      9.8244                 3.8126                 5.4263

                     22                     23                     24
                      A                      A                      A
 Frequencies --    479.1217               519.0891               602.6039
 Red. masses --      3.4721                 3.3428                 4.3004
 Frc consts  --      0.4696                 0.5307                 0.9201
 IR Inten    --      4.4126                 1.7956                 2.3353

                     25                     26                     27
                      A                      A                      A
 Frequencies --    678.5914               692.4239               719.5323
 Red. masses --      3.1745                 3.3911                 4.8241
 Frc consts  --      0.8613                 0.9579                 1.4715
 IR Inten    --      0.3951                53.5229                 2.6171

                     28                     29                     30
                      A                      A                      A
 Frequencies --    739.6450               773.3308               794.1425
 Red. masses --      1.1653                 4.9343                 1.2634
 Frc consts  --      0.3756                 1.7386                 0.4695
 IR Inten    --     20.4150                 2.5607                 1.1241

                     31                     32                     33
                      A                      A                      A
 Frequencies --    796.8464               820.0757               843.0067
 Red. masses --      1.1163                 1.3782                 2.4839
 Frc consts  --      0.4176                 0.5461                 1.0400
 IR Inten    --      3.3432               115.1054                 1.7268

                     34                     35                     36
                      A                      A                      A
 Frequencies --    895.6415               903.6815               932.0686
 Red. masses --      1.7796                 1.2720                 2.3979
 Frc consts  --      0.8411                 0.6120                 1.2274
 IR Inten    --      1.7471               101.7052                 9.3707

                     37                     38                     39
                      A                      A                      A
 Frequencies --    941.1358               946.5324               968.6281
 Red. masses --      1.4175                 1.8518                 1.9190
 Frc consts  --      0.7398                 0.9775                 1.0608
 IR Inten    --      6.4290                 7.1635                24.2766

                     40                     41                     42
                      A                      A                      A
 Frequencies --    991.5204              1010.6599              1028.9840
 Red. masses --      2.6485                 1.9346                 2.6215
 Frc consts  --      1.5341                 1.1643                 1.6353
 IR Inten    --      2.9963                11.2871                69.0122

                     43                     44                     45
                      A                      A                      A
 Frequencies --   1040.6817              1070.2467              1073.6655
 Red. masses --      2.5540                 2.5601                 2.4730
 Frc consts  --      1.6297                 1.7277                 1.6796
 IR Inten    --      7.1276                11.5452                26.8066

                     46                     47                     48
                      A                      A                      A
 Frequencies --   1079.8353              1089.7187              1093.2904
 Red. masses --      1.9537                 2.6004                 1.5606
 Frc consts  --      1.3422                 1.8193                 1.0990
 IR Inten    --     53.1125                14.6314                 1.5983

                     49                     50                     51
                      A                      A                      A
 Frequencies --   1103.0912              1120.3435              1129.0965
 Red. masses --      2.4606                 2.0545                 1.1596
 Frc consts  --      1.7641                 1.5193                 0.8710
 IR Inten    --      3.0567                 2.3328                 2.3291

                     52                     53                     54
                      A                      A                      A
 Frequencies --   1148.6391              1182.5463              1204.0725
 Red. masses --      2.0339                 1.2538                 2.3330
 Frc consts  --      1.5810                 1.0330                 1.9929
 IR Inten    --      6.0744                11.3218                52.4459

                     55                     56                     57
                      A                      A                      A
 Frequencies --   1228.6633              1243.6408              1254.0319
 Red. masses --      1.3511                 1.2514                 1.5150
 Frc consts  --      1.2017                 1.1403                 1.4037
 IR Inten    --     25.3633                 8.9727                26.8364

                     58                     59                     60
                      A                      A                      A
 Frequencies --   1283.3826              1296.4763              1298.2333
 Red. masses --      1.2851                 1.2493                 1.2059
 Frc consts  --      1.2471                 1.2373                 1.1975
 IR Inten    --     20.8902                 8.6803                 7.5189

                     61                     62                     63
                      A                      A                      A
 Frequencies --   1303.8403              1310.4974              1341.8304
 Red. masses --      1.2449                 1.3139                 1.4089
 Frc consts  --      1.2469                 1.3295                 1.4946
 IR Inten    --      9.6638                 4.5099                 6.4803

                     64                     65                     66
                      A                      A                      A
 Frequencies --   1361.8024              1369.1295              1381.2154
 Red. masses --      1.5812                 1.3253                 1.4199
 Frc consts  --      1.7277                 1.4637                 1.5959
 IR Inten    --      4.9196                29.0564                12.0217

                     67                     68                     69
                      A                      A                      A
 Frequencies --   1385.9456              1399.9125              1408.6117
 Red. masses --      1.4959                 1.4357                 1.3598
 Frc consts  --      1.6930                 1.6578                 1.5897
 IR Inten    --     21.4973                 2.1113                 2.6080

                     70                     71                     72
                      A                      A                      A
 Frequencies --   1457.6499              1473.9374              1485.5956
 Red. masses --      1.2517                 1.0818                 1.0901
 Frc consts  --      1.5670                 1.3847                 1.4175
 IR Inten    --     44.6201                 2.2358                 2.1530

                     73                     74                     75
                      A                      A                      A
 Frequencies --   1495.1552              1498.8881              1506.0460
 Red. masses --      1.0421                 1.0907                 1.0891
 Frc consts  --      1.3725                 1.4438                 1.4554
 IR Inten    --      5.0262                 2.0225                 0.6096

                     76                     77                     78
                      A                      A                      A
 Frequencies --   1509.3538              1516.3454              1521.2269
 Red. masses --      1.0634                 1.0851                 1.0861
 Frc consts  --      1.4273                 1.4700                 1.4809
 IR Inten    --      5.2433                12.2203                 4.1745

                     79                     80                     81
                      A                      A                      A
 Frequencies --   1539.4884              1648.4435              1734.2402
 Red. masses --      1.1207                 1.0939                 7.6438
 Frc consts  --      1.5649                 1.7513                13.5449
 IR Inten    --      1.1824                21.3951                46.9574

                     82                     83                     84
                      A                      A                      A
 Frequencies --   2960.2285              2972.9602              2986.1965
 Red. masses --      1.0700                 1.0668                 1.0709
 Frc consts  --      5.5244                 5.5552                 5.6267
 IR Inten    --     57.9166                49.6678                51.5448

                     85                     86                     87
                      A                      A                      A
 Frequencies --   2989.3836              3024.0811              3025.3671
 Red. masses --      1.0651                 1.0633                 1.0655
 Frc consts  --      5.6081                 5.7293                 5.7458
 IR Inten    --     32.2662                21.6095                21.8145

                     88                     89                     90
                      A                      A                      A
 Frequencies --   3035.0258              3042.6713              3044.8256
 Red. masses --      1.0868                 1.0350                 1.0919
 Frc consts  --      5.8981                 5.6454                 5.9641
 IR Inten    --      2.6516                29.2664                34.8541

                     91                     92                     93
                      A                      A                      A
 Frequencies --   3046.7338              3058.9314              3072.3208
 Red. masses --      1.0915                 1.0916                 1.0927
 Frc consts  --      5.9694                 6.0178                 6.0772
 IR Inten    --     19.0513                57.2853                26.1678

                     94                     95                     96
                      A                      A                      A
 Frequencies --   3083.3206              3089.4492              3111.5920
 Red. masses --      1.0954                 1.1038                 1.1024
 Frc consts  --      6.1359                 6.2074                 6.2889
 IR Inten    --     10.4538                17.4631                34.3332

                     97                     98                     99
                      A                      A                      A
 Frequencies --   3127.4621              3243.5080              3437.7671
 Red. masses --      1.1016                 1.0954                 1.0735
 Frc consts  --      6.3484                 6.7898                 7.4751
 IR Inten    --     26.9482                 5.8681                 0.0090

                    100                    101                    102
                      A                      A                      A
 Frequencies --   3454.7606              3505.5388              3592.3233
 Red. masses --      1.0743                 1.0483                 1.0941
 Frc consts  --      7.5545                 7.5899                 8.3185
 IR Inten    --      0.8440                 0.4340                 2.2112

 - Thermochemistry -
 -------------------
 Temperature   298.150 Kelvin.  Pressure   1.00000 Atm.
 Atom     1 has atomic number  6 and mass  12.00000

 Molecular mass:   231.14053 amu.
 Principal axes and moments of inertia in atomic units:
                           1         2         3
     Eigenvalues --   851.37025********************
           X            1.00000  -0.00125  -0.00192
           Y            0.00125   1.00000  -0.00095
           Z            0.00192   0.00095   1.00000
 This molecule is an asymmetric top.
 Rotational symmetry number  1.
 Warning -- assumption of classical behavior for rotation
           may cause significant error
 Rotational temperatures (Kelvin)      0.10173     0.00535     0.00520
 Rotational constants (GHZ):           2.11981     0.11154     0.10837
 Zero-point vibrational energy     826161.4 (Joules/Mol)
                                  197.45732 (Kcal/Mol)
 Warning -- explicit consideration of  24 degrees of freedom as
           vibrations may cause significant error
 Vibrational temperatures:     19.79    21.68    33.83    66.60    77.63
          (Kelvin)            107.62   116.04   133.90   168.32   183.62
                              195.63   219.19   253.97   297.04   314.73
                              360.58   433.70   460.22   503.62   562.58
                              581.51   689.35   746.85   867.01   976.34
                              996.24  1035.25  1064.18  1112.65  1142.59
                             1146.48  1179.91  1212.90  1288.63  1300.20
                             1341.04  1354.08  1361.85  1393.64  1426.58
                             1454.11  1480.48  1497.31  1539.85  1544.77
                             1553.64  1567.86  1573.00  1587.10  1611.92
                             1624.52  1652.64  1701.42  1732.39  1767.77
                             1789.32  1804.27  1846.50  1865.34  1867.87
                             1875.94  1885.51  1930.59  1959.33  1969.87
                             1987.26  1994.07  2014.16  2026.68  2097.23
                             2120.67  2137.44  2151.19  2156.57  2166.86
                             2171.62  2181.68  2188.71  2214.98  2371.74
                             2495.18  4259.11  4277.43  4296.47  4301.06
                             4350.98  4352.83  4366.73  4377.73  4380.82
                             4383.57  4401.12  4420.38  4436.21  4445.03
                             4476.89  4499.72  4666.68  4946.18  4970.63
                             5043.69  5168.55

 Zero-point correction=                           0.314668 (Hartree/Particle)
 Thermal correction to Energy=                    0.333178
 Thermal correction to Enthalpy=                  0.334123
 Thermal correction to Gibbs Free Energy=         0.262922
 Sum of electronic and zero-point Energies=          -1031.036428
 Sum of electronic and thermal Energies=             -1031.017918
 Sum of electronic and thermal Enthalpies=           -1031.016973
 Sum of electronic and thermal Free Energies=        -1031.088174

                     E (Thermal)             CV                S
                      KCal/Mol        Cal/Mol-Kelvin    Cal/Mol-Kelvin
 Total                  209.073             64.588            149.854
 Electronic               0.000              0.000              0.000
 Translational            0.889              2.981             42.215
 Rotational               0.889              2.981             33.794
 Vibrational            207.295             58.626             73.845
 Vibration     1          0.593              1.986              7.378
 Vibration     2          0.593              1.986              7.196
 Vibration     3          0.593              1.985              6.313
 Vibration     4          0.595              1.979              4.970
 Vibration     5          0.596              1.976              4.667
 Vibration     6          0.599              1.966              4.023
 Vibration     7          0.600              1.962              3.875
 Vibration     8          0.602              1.954              3.595
 Vibration     9          0.608              1.935              3.150
 Vibration    10          0.611              1.926              2.982
 Vibration    11          0.614              1.917              2.860
 Vibration    12          0.619              1.900              2.643
 Vibration    13          0.628              1.871              2.365
 Vibration    14          0.641              1.831              2.075
 Vibration    15          0.647              1.813              1.969
 Vibration    16          0.663              1.762              1.726
 Vibration    17          0.693              1.671              1.409
 Vibration    18          0.706              1.636              1.311
 Vibration    19          0.727              1.575              1.166
 Vibration    20          0.759              1.489              0.996
 Vibration    21          0.769              1.461              0.947
 Vibration    22          0.836              1.296              0.712
 Vibration    23          0.874              1.208              0.612
 Vibration    24          0.961              1.026              0.445

 Optimization completed.
    -- Stationary point found.
 Normal termination of Gaussian 16 at Sun May 28 00:38:27 2023.
