 Gaussian 16, Revision A.03,
 Gaussian 16:  ES64L-G16RevA.03 25-Dec-2016

 -----------------------------
 # opt freq b3lyp/6-31g(2df,p)
 -----------------------------

 -------------------
 Title Card Required
 -------------------
 Symbolic Z-matrix:
 Charge =  0 Multiplicity = 1

 SCF Done:  E(RB3LYP) =  -273.875431181     A.U. after   12 cycles
 SCF Done:  E(RB3LYP) =  -273.896306989     A.U. after   11 cycles
 SCF Done:  E(RB3LYP) =  -273.901151416     A.U. after   10 cycles
 SCF Done:  E(RB3LYP) =  -273.903418819     A.U. after   10 cycles
 SCF Done:  E(RB3LYP) =  -273.905534897     A.U. after   10 cycles
 SCF Done:  E(RB3LYP) =  -273.906629823     A.U. after   12 cycles
 SCF Done:  E(RB3LYP) =  -273.908092843     A.U. after   10 cycles
 SCF Done:  E(RB3LYP) =  -273.908589308     A.U. after   10 cycles
 SCF Done:  E(RB3LYP) =  -273.908788006     A.U. after   10 cycles
 SCF Done:  E(RB3LYP) =  -273.908857023     A.U. after    9 cycles
 SCF Done:  E(RB3LYP) =  -273.908868436     A.U. after    8 cycles
 SCF Done:  E(RB3LYP) =  -273.908868712     A.U. after    6 cycles
 Optimization completed.
    -- Stationary point found.
 Normal termination of Gaussian 16 at Sun May 28 02:03:09 2023.

 ----------------------------------------------------------------------
 #N Geom=AllCheck Guess=TCheck SCRF=Check GenChk RB3LYP/6-31G(2df,p) Fr
 eq
 ----------------------------------------------------------------------

 Structure from the checkpoint file:  "CCC1C2CC1C2.chk"
 -------------------
 Title Card Required
 -------------------
 Charge =  0 Multiplicity = 1

                         Standard orientation:
 ---------------------------------------------------------------------
 Center     Atomic      Atomic             Coordinates (Angstroms)
 Number     Number       Type             X           Y           Z
 ---------------------------------------------------------------------
      1          6           0        2.637114   -0.294472   -0.299212
      2          6           0        1.517345    0.454558    0.434413
      3          6           0        0.202514   -0.314762    0.419673
      4          6           0       -1.158495    0.342613    0.822720
      5          6           0       -1.851505   -0.852378    0.106016
      6          6           0       -0.713387   -0.392126   -0.850287
      7          6           0       -1.173500    1.066188   -0.556566
      8          1           0        3.584078    0.251540   -0.244825
      9          1           0        2.392464   -0.433992   -1.357682
     10          1           0        2.799782   -1.287439    0.134703
     11          1           0        1.404060    1.452672   -0.000883
     12          1           0        1.813123    0.613521    1.480149
     13          1           0        0.356953   -1.295773    0.888804
     14          1           0       -1.420665    0.768133    1.793497
     15          1           0       -2.875161   -0.685439   -0.240071
     16          1           0       -1.738618   -1.837096    0.568792
     17          1           0       -0.462496   -0.820640   -1.822456
     18          1           0       -2.158358    1.345479   -0.941762
     19          1           0       -0.455683    1.871305   -0.718808
 ---------------------------------------------------------------------

 SCF Done:  E(RB3LYP) =  -273.908868712     A.U. after    1 cycles

 The electronic state is 1-A.
 Alpha  occ. eigenvalues --  -10.19364 -10.19340 -10.18482 -10.18044 -10.17952
 Alpha  occ. eigenvalues --  -10.17464 -10.17028  -0.90379  -0.76446  -0.66093
 Alpha  occ. eigenvalues --   -0.65841  -0.61715  -0.59050  -0.51713  -0.48918
 Alpha  occ. eigenvalues --   -0.46312  -0.44032  -0.41505  -0.39022  -0.36616
 Alpha  occ. eigenvalues --   -0.34103  -0.33852  -0.32043  -0.30714  -0.30199
 Alpha  occ. eigenvalues --   -0.29672  -0.28809
 Alpha virt. eigenvalues --    0.09581   0.11831   0.12528   0.12928   0.14509
 Alpha virt. eigenvalues --    0.15162   0.15760   0.16035   0.16450   0.17416
 Alpha virt. eigenvalues --    0.17878   0.19342   0.20024   0.21416   0.23170

 Mulliken charges:
               1
     1  C   -0.372055
     2  C   -0.234559
     3  C    0.090454
     4  C   -0.062417
     5  C   -0.215767
     6  C   -0.045585
     7  C   -0.220500
     8  H    0.109870
     9  H    0.116482
    10  H    0.112969
    11  H    0.096333
    12  H    0.094525
    13  H    0.054715
    14  H    0.063258
    15  H    0.085488
    16  H    0.085377
    17  H    0.064103
    18  H    0.086424
    19  H    0.090883
 Sum of Mulliken charges =  -0.00000

 Dipole moment (field-independent basis, Debye):
    X=              0.1169    Y=              0.0421    Z=              0.0409  Tot=              0.1308
 Quadrupole moment (field-independent basis, Debye-Ang):
   XX=            -45.0922   YY=            -44.8853   ZZ=            -44.7885
   XY=              0.1107   XZ=              0.2638   YZ=             -0.1719

  Exact polarizability:  82.516   0.386  67.733   0.985  -0.953  65.026
 Approx polarizability: 104.994   0.148 101.795   1.504  -1.391  99.915

                      1                      2                      3
                      A                      A                      A
 Frequencies --     77.9069               178.9414               217.6992
 Red. masses --      2.1632                 2.3852                 1.1793
 Frc consts  --      0.0077                 0.0450                 0.0329
 IR Inten    --      0.0044                 0.0538                 0.0252

                      4                      5                      6
                      A                      A                      A
 Frequencies --    339.4057               393.8310               543.8263
 Red. masses --      2.1313                 2.9461                 2.3730
 Frc consts  --      0.1447                 0.2692                 0.4135
 IR Inten    --      0.1675                 0.1694                 0.0555

                      7                      8                      9
                      A                      A                      A
 Frequencies --    566.8567               738.2117               779.9875
 Red. masses --      1.9064                 1.6899                 2.4202
 Frc consts  --      0.3609                 0.5426                 0.8675
 IR Inten    --      1.4118                 1.3479                 0.3337

                     10                     11                     12
                      A                      A                      A
 Frequencies --    804.7568               854.4036               875.8365
 Red. masses --      2.4380                 1.5938                 2.1603
 Frc consts  --      0.9303                 0.6855                 0.9764
 IR Inten    --      0.4685                 1.6189                 2.1289

                     13                     14                     15
                      A                      A                      A
 Frequencies --    898.7808               903.9633               961.7480
 Red. masses --      2.6255                 2.1074                 2.1990
 Frc consts  --      1.2496                 1.0146                 1.1984
 IR Inten    --      0.0276                 0.2732                 2.5157

                     16                     17                     18
                      A                      A                      A
 Frequencies --   1007.8937              1014.7639              1029.4823
 Red. masses --      1.0221                 1.3166                 1.0253
 Frc consts  --      0.6118                 0.7988                 0.6402
 IR Inten    --      0.0693                 0.2714                 0.2756

                     19                     20                     21
                      A                      A                      A
 Frequencies --   1052.7291              1054.6373              1111.4842
 Red. masses --      1.9973                 1.3440                 1.8647
 Frc consts  --      1.3041                 0.8807                 1.3572
 IR Inten    --      0.8339                 0.5196                 0.4463

                     22                     23                     24
                      A                      A                      A
 Frequencies --   1116.1566              1139.4409              1151.5839
 Red. masses --      2.0497                 1.8431                 1.4504
 Frc consts  --      1.5045                 1.4099                 1.1333
 IR Inten    --      0.1752                 0.0423                 0.3290

                     25                     26                     27
                      A                      A                      A
 Frequencies --   1169.1013              1191.8732              1216.8424
 Red. masses --      2.3922                 1.4054                 1.4274
 Frc consts  --      1.9264                 1.1763                 1.2453
 IR Inten    --      0.4249                 0.0835                 0.5064

                     28                     29                     30
                      A                      A                      A
 Frequencies --   1248.5763              1248.9209              1269.9925
 Red. masses --      1.6405                 1.6919                 1.7177
 Frc consts  --      1.5068                 1.5549                 1.6323
 IR Inten    --     10.7385                 4.7277                 0.7992

                     31                     32                     33
                      A                      A                      A
 Frequencies --   1297.2993              1348.4015              1409.4854
 Red. masses --      1.2602                 1.3931                 1.2453
 Frc consts  --      1.2496                 1.4923                 1.4576
 IR Inten    --      0.4905                 7.7822                 1.5774

                     34                     35                     36
                      A                      A                      A
 Frequencies --   1432.2064              1484.0162              1499.6922
 Red. masses --      1.3464                 1.0705                 1.0424
 Frc consts  --      1.6272                 1.3891                 1.3812
 IR Inten    --      4.5030                 0.5253                 4.8166

                     37                     38                     39
                      A                      A                      A
 Frequencies --   1502.4414              1509.6659              1542.7792
 Red. masses --      1.0739                 1.0924                 1.1364
 Frc consts  --      1.4283                 1.4669                 1.5936
 IR Inten    --      1.7536                 2.9993                 1.5130

                     40                     41                     42
                      A                      A                      A
 Frequencies --   3008.8207              3020.0227              3029.7235
 Red. masses --      1.0827                 1.0668                 1.0356
 Frc consts  --      5.7748                 5.7324                 5.6007
 IR Inten    --     34.6602                29.2593                30.1519

                     43                     44                     45
                      A                      A                      A
 Frequencies --   3044.6951              3056.3951              3067.8407
 Red. masses --      1.0539                 1.0619                 1.0900
 Frc consts  --      5.7560                 5.8447                 6.0443
 IR Inten    --     53.9352                20.0062                27.8796

                     46                     47                     48
                      A                      A                      A
 Frequencies --   3086.9921              3094.3880              3098.3508
 Red. masses --      1.0895                 1.0935                 1.1014
 Frc consts  --      6.1173                 6.1693                 6.2296
 IR Inten    --    119.2671                 4.6131                47.3365

                     49                     50                     51
                      A                      A                      A
 Frequencies --   3101.8851              3110.4339              3125.3189
 Red. masses --      1.1013                 1.1103                 1.1047
 Frc consts  --      6.2430                 6.3289                 6.3577
 IR Inten    --     41.7273                54.9271                47.8342

 - Thermochemistry -
 -------------------
 Temperature   298.150 Kelvin.  Pressure   1.00000 Atm.
 Atom     1 has atomic number  6 and mass  12.00000

 Molecular mass:    96.09390 amu.
 Principal axes and moments of inertia in atomic units:
                           1         2         3
     Eigenvalues --   308.447461004.577451031.66484
           X            1.00000  -0.00195  -0.00188
           Y            0.00182   0.99777  -0.06673
           Z            0.00200   0.06673   0.99777
 This molecule is an asymmetric top.
 Rotational symmetry number  1.
 Rotational temperatures (Kelvin)      0.28081     0.08622     0.08396
 Rotational constants (GHZ):           5.85105     1.79652     1.74935
 Zero-point vibrational energy     454763.3 (Joules/Mol)
                                  108.69104 (Kcal/Mol)
 Warning -- explicit consideration of   7 degrees of freedom as
           vibrations may cause significant error
 Vibrational temperatures:    112.09   257.46   313.22   488.33   566.63
          (Kelvin)            782.44   815.58  1062.12  1122.23  1157.87
                             1229.30  1260.13  1293.15  1300.60  1383.74
                             1450.13  1460.02  1481.20  1514.64  1517.39
                             1599.18  1605.90  1639.40  1656.87  1682.08
                             1714.84  1750.76  1796.42  1796.92  1827.24
                             1866.52  1940.05  2027.94  2060.63  2135.17
                             2157.72  2161.68  2172.07  2219.72  4329.02
                             4345.14  4359.10  4380.64  4397.47  4413.94
                             4441.49  4452.13  4457.84  4462.92  4475.22
                             4496.64

 Zero-point correction=                           0.173210 (Hartree/Particle)
 Thermal correction to Energy=                    0.179945
 Thermal correction to Enthalpy=                  0.180889
 Thermal correction to Gibbs Free Energy=         0.142504
 Sum of electronic and zero-point Energies=           -273.735659
 Sum of electronic and thermal Energies=              -273.728924
 Sum of electronic and thermal Enthalpies=            -273.727979
 Sum of electronic and thermal Free Energies=         -273.766364

                     E (Thermal)             CV                S
                      KCal/Mol        Cal/Mol-Kelvin    Cal/Mol-Kelvin
 Total                  112.917             26.273             80.788
 Electronic               0.000              0.000              0.000
 Translational            0.889              2.981             39.599
 Rotational               0.889              2.981             27.260
 Vibrational            111.140             20.311             13.929
 Vibration     1          0.599              1.964              3.943
 Vibration     2          0.629              1.868              2.339
 Vibration     3          0.646              1.814              1.978
 Vibration     4          0.719              1.597              1.215
 Vibration     5          0.761              1.483              0.986
 Vibration     6          0.899              1.153              0.557
 Vibration     7          0.923              1.103              0.510

 Optimization completed.
    -- Stationary point found.
 Normal termination of Gaussian 16 at Sun May 28 02:22:57 2023.
