 Gaussian 16, Revision A.03,
 Gaussian 16:  ES64L-G16RevA.03 25-Dec-2016

 -----------------------------
 # opt freq b3lyp/6-31g(2df,p)
 -----------------------------

 -------------------
 Title Card Required
 -------------------
 Symbolic Z-matrix:
 Charge =  0 Multiplicity = 1

 SCF Done:  E(RB3LYP) =  -352.570104157     A.U. after   12 cycles
 SCF Done:  E(RB3LYP) =  -352.578020544     A.U. after   10 cycles
 SCF Done:  E(RB3LYP) =  -352.579344812     A.U. after   10 cycles
 SCF Done:  E(RB3LYP) =  -352.579569235     A.U. after    9 cycles
 SCF Done:  E(RB3LYP) =  -352.579676556     A.U. after    8 cycles
 SCF Done:  E(RB3LYP) =  -352.579804262     A.U. after    9 cycles
 SCF Done:  E(RB3LYP) =  -352.577943882     A.U. after   10 cycles
 SCF Done:  E(RB3LYP) =  -352.547609205     A.U. after   11 cycles
 SCF Done:  E(RB3LYP) =  -352.523988568     A.U. after   11 cycles
 SCF Done:  E(RB3LYP) =  -352.579804911     A.U. after    7 cycles
 SCF Done:  E(RB3LYP) =  -352.571558876     A.U. after   10 cycles
 SCF Done:  E(RB3LYP) =  -352.580831248     A.U. after    7 cycles
 SCF Done:  E(RB3LYP) =  -352.580583761     A.U. after   10 cycles
 SCF Done:  E(RB3LYP) =  -352.582349504     A.U. after   10 cycles
 SCF Done:  E(RB3LYP) =  -352.582813000     A.U. after   10 cycles
 SCF Done:  E(RB3LYP) =  -352.582844810     A.U. after    8 cycles
 SCF Done:  E(RB3LYP) =  -352.582873884     A.U. after    8 cycles
 SCF Done:  E(RB3LYP) =  -352.582876167     A.U. after    7 cycles
 SCF Done:  E(RB3LYP) =  -352.582876375     A.U. after    6 cycles
 Optimization completed.
    -- Stationary point found.
 Normal termination of Gaussian 16 at Sun May 28 17:16:25 2023.

 ----------------------------------------------------------------------
 #N Geom=AllCheck Guess=TCheck SCRF=Check GenChk RB3LYP/6-31G(2df,p) Fr
 eq
 ----------------------------------------------------------------------

 Structure from the checkpoint file:  "CCC1CC2CC1C2C.chk"
 -------------------
 Title Card Required
 -------------------
 Charge =  0 Multiplicity = 1

                         Standard orientation:
 ---------------------------------------------------------------------
 Center     Atomic      Atomic             Coordinates (Angstroms)
 Number     Number       Type             X           Y           Z
 ---------------------------------------------------------------------
      1          6           0       -2.370978    1.265691    0.253508
      2          6           0       -2.244475   -0.115451   -0.400078
      3          6           0       -0.878802   -0.823056   -0.382731
      4          6           0       -0.271863   -1.210609    1.014621
      5          6           0        1.172520   -0.703673    0.815644
      6          6           0        1.469745   -1.135309   -0.649209
      7          6           0        0.356797   -0.089627   -0.963972
      8          6           0        0.912976    0.729014    0.252814
      9          6           0        2.117255    1.630097    0.000179
     10          1           0       -3.405084    1.618905    0.182796
     11          1           0       -1.737343    2.010375   -0.237522
     12          1           0       -2.106127    1.248575    1.315631
     13          1           0       -2.561751   -0.029282   -1.448112
     14          1           0       -2.970825   -0.792473    0.069953
     15          1           0       -1.024507   -1.741329   -0.965064
     16          1           0       -0.323407   -2.286529    1.206631
     17          1           0       -0.769945   -0.700502    1.845912
     18          1           0        1.881560   -0.879604    1.626981
     19          1           0        1.275422   -2.176737   -0.924850
     20          1           0        2.461134   -0.846892   -0.997631
     21          1           0        0.251570    0.356806   -1.955389
     22          1           0        0.169877    1.300214    0.814343
     23          1           0        2.916397    1.141403   -0.563455
     24          1           0        2.546176    1.973442    0.948456
     25          1           0        1.817806    2.521173   -0.563334
 ---------------------------------------------------------------------

 SCF Done:  E(RB3LYP) =  -352.582876375     A.U. after    1 cycles

 The electronic state is 1-A.
 Alpha  occ. eigenvalues --  -10.17983 -10.17934 -10.17792 -10.17762 -10.17467
 Alpha  occ. eigenvalues --  -10.17192 -10.17056 -10.16907 -10.16892  -0.88005
 Alpha  occ. eigenvalues --   -0.77088  -0.72954  -0.68733  -0.67642  -0.62406
 Alpha  occ. eigenvalues --   -0.60150  -0.52765  -0.51431  -0.48770  -0.46123
 Alpha  occ. eigenvalues --   -0.45000  -0.43010  -0.40872  -0.39164  -0.37819
 Alpha  occ. eigenvalues --   -0.37231  -0.35777  -0.35053  -0.34104  -0.32893
 Alpha  occ. eigenvalues --   -0.31445  -0.29757  -0.29325  -0.28291  -0.27665
 Alpha virt. eigenvalues --    0.08672   0.10304   0.11388   0.11593   0.12923
 Alpha virt. eigenvalues --    0.14633   0.15265   0.15906   0.16319   0.16791
 Alpha virt. eigenvalues --    0.17190   0.18644   0.18891   0.19403   0.20282

 Mulliken charges:
               1
     1  C   -0.376449
     2  C   -0.216146
     3  C    0.054635
     4  C   -0.246482
     5  C   -0.017671
     6  C   -0.237833
     7  C   -0.038663
     8  C    0.065454
     9  C   -0.437250
    10  H    0.106828
    11  H    0.119337
    12  H    0.117426
    13  H    0.092173
    14  H    0.093193
    15  H    0.065759
    16  H    0.088775
    17  H    0.092770
    18  H    0.049885
    19  H    0.082409
    20  H    0.094539
    21  H    0.047635
    22  H    0.059517
    23  H    0.115914
    24  H    0.112053
    25  H    0.112191
 Sum of Mulliken charges =  -0.00000

 Dipole moment (field-independent basis, Debye):
    X=             -0.0745    Y=              0.0406    Z=             -0.0375  Tot=              0.0928
 Quadrupole moment (field-independent basis, Debye-Ang):
   XX=            -58.0541   YY=            -58.2068   ZZ=            -57.9331
   XY=              0.1314   XZ=              0.0574   YZ=             -0.0052

  Exact polarizability: 100.720   1.020  92.124   0.232   0.072  83.071
 Approx polarizability: 131.895   0.387 131.909   0.218   0.375 129.112

                      1                      2                      3
                      A                      A                      A
 Frequencies --     94.7854               154.3531               188.1455
 Red. masses --      2.2283                 2.8706                 1.0674
 Frc consts  --      0.0118                 0.0403                 0.0223
 IR Inten    --      0.0022                 0.1463                 0.0241

                      4                      5                      6
                      A                      A                      A
 Frequencies --    226.8842               270.9189               275.3795
 Red. masses --      1.6263                 2.6254                 2.0769
 Frc consts  --      0.0493                 0.1135                 0.0928
 IR Inten    --      0.0491                 0.1883                 0.0868

                      7                      8                      9
                      A                      A                      A
 Frequencies --    308.2917               344.5356               443.8905
 Red. masses --      1.5981                 1.8017                 2.1711
 Frc consts  --      0.0895                 0.1260                 0.2520
 IR Inten    --      0.0202                 0.0221                 0.1191

                     10                     11                     12
                      A                      A                      A
 Frequencies --    497.7786               559.4437               651.2771
 Red. masses --      2.4441                 3.0620                 2.8056
 Frc consts  --      0.3568                 0.5646                 0.7011
 IR Inten    --      0.5229                 0.1506                 0.0259

                     13                     14                     15
                      A                      A                      A
 Frequencies --    759.0352               769.9104               798.9219
 Red. masses --      1.9457                 1.5100                 2.4015
 Frc consts  --      0.6605                 0.5273                 0.9031
 IR Inten    --      0.6027                 1.4295                 1.7668

                     16                     17                     18
                      A                      A                      A
 Frequencies --    830.0549               839.2234               869.5268
 Red. masses --      2.6291                 2.3287                 2.0481
 Frc consts  --      1.0673                 0.9663                 0.9123
 IR Inten    --      0.2668                 2.0265                 1.0897

                     19                     20                     21
                      A                      A                      A
 Frequencies --    926.6697               944.3536               950.3129
 Red. masses --      2.2152                 1.7138                 2.0228
 Frc consts  --      1.1208                 0.9005                 1.0763
 IR Inten    --      0.6870                 1.9744                 0.0358

                     22                     23                     24
                      A                      A                      A
 Frequencies --    968.4770               998.0051              1027.9344
 Red. masses --      1.6595                 2.6318                 1.4009
 Frc consts  --      0.9171                 1.5444                 0.8722
 IR Inten    --      0.5049                 0.0956                 0.2287

                     25                     26                     27
                      A                      A                      A
 Frequencies --   1038.5215              1059.5852              1081.1922
 Red. masses --      1.3809                 1.3382                 1.3991
 Frc consts  --      0.8775                 0.8852                 0.9636
 IR Inten    --      3.1711                 0.7601                 0.2563

                     28                     29                     30
                      A                      A                      A
 Frequencies --   1084.3184              1107.4783              1126.5995
 Red. masses --      1.2319                 1.7408                 1.9028
 Frc consts  --      0.8534                 1.2580                 1.4229
 IR Inten    --      0.3583                 0.3633                 0.4923

                     31                     32                     33
                      A                      A                      A
 Frequencies --   1144.0397              1150.2436              1189.5586
 Red. masses --      2.0038                 1.7576                 1.4911
 Frc consts  --      1.5452                 1.3701                 1.2431
 IR Inten    --      0.9174                 1.3935                 1.6338

                     34                     35                     36
                      A                      A                      A
 Frequencies --   1224.8227              1237.6804              1259.1342
 Red. masses --      1.5537                 1.6257                 1.4592
 Frc consts  --      1.3733                 1.4673                 1.3630
 IR Inten    --      0.7424                 0.2366                 1.4142

                     37                     38                     39
                      A                      A                      A
 Frequencies --   1265.9728              1281.0306              1296.1107
 Red. masses --      1.6430                 1.6043                 1.3472
 Frc consts  --      1.5515                 1.5512                 1.3334
 IR Inten    --      0.2864                 0.3522                 1.0836

                     40                     41                     42
                      A                      A                      A
 Frequencies --   1318.4602              1348.7999              1354.7083
 Red. masses --      1.3805                 1.3300                 1.5912
 Frc consts  --      1.4139                 1.4256                 1.7205
 IR Inten    --      1.0939                 0.7408                 0.3899

                     43                     44                     45
                      A                      A                      A
 Frequencies --   1398.4232              1400.5358              1413.5313
 Red. masses --      1.3838                 1.2399                 1.2623
 Frc consts  --      1.5944                 1.4329                 1.4860
 IR Inten    --      6.0000                 2.7603                 1.8112

                     46                     47                     48
                      A                      A                      A
 Frequencies --   1423.3379              1482.8326              1491.2179
 Red. masses --      1.3277                 1.0725                 1.0784
 Frc consts  --      1.5848                 1.3894                 1.4129
 IR Inten    --     10.8615                 0.7921                 0.5242

                     49                     50                     51
                      A                      A                      A
 Frequencies --   1497.2893              1499.0114              1507.6050
 Red. masses --      1.0518                 1.0567                 1.0591
 Frc consts  --      1.3894                 1.3989                 1.4183
 IR Inten    --      1.2587                 1.9572                 7.8234

                     52                     53                     54
                      A                      A                      A
 Frequencies --   1508.6405              1521.8136              3001.5288
 Red. masses --      1.0600                 1.0969                 1.0675
 Frc consts  --      1.4214                 1.4967                 5.6662
 IR Inten    --      3.7577                 5.2964                 9.1138

                     55                     56                     57
                      A                      A                      A
 Frequencies --   3018.9797              3028.7272              3033.8580
 Red. masses --      1.0767                 1.0377                 1.0368
 Frc consts  --      5.7819                 5.6087                 5.6227
 IR Inten    --     56.3938                37.9624                13.5417

                     58                     59                     60
                      A                      A                      A
 Frequencies --   3035.6739              3042.6914              3052.5709
 Red. masses --      1.1006                 1.0592                 1.0650
 Frc consts  --      5.9759                 5.7773                 5.8469
 IR Inten    --     18.8001                39.8505                45.2117

                     61                     62                     63
                      A                      A                      A
 Frequencies --   3072.2075              3083.6810              3084.5209
 Red. masses --      1.0840                 1.0995                 1.1047
 Frc consts  --      6.0279                 6.1601                 6.1927
 IR Inten    --     22.0169                 3.0511                40.6486

                     64                     65                     66
                      A                      A                      A
 Frequencies --   3086.0379              3093.3786              3096.5561
 Red. masses --      1.0896                 1.0913                 1.0999
 Frc consts  --      6.1140                 6.1528                 6.2138
 IR Inten    --     95.6401                31.2942                42.4578

                     67                     68                     69
                      A                      A                      A
 Frequencies --   3107.0076              3110.0276              3133.9082
 Red. masses --      1.1015                 1.0987                 1.0976
 Frc consts  --      6.2652                 6.2613                 6.3511
 IR Inten    --     39.1136                37.8837                42.2316

 - Thermochemistry -
 -------------------
 Temperature   298.150 Kelvin.  Pressure   1.00000 Atm.
 Atom     1 has atomic number  6 and mass  12.00000

 Molecular mass:   124.12520 amu.
 Principal axes and moments of inertia in atomic units:
                           1         2         3
     Eigenvalues --   730.099251336.462141622.74092
           X            0.99998   0.00331  -0.00588
           Y           -0.00326   0.99996   0.00838
           Z            0.00591  -0.00836   0.99995
 This molecule is an asymmetric top.
 Rotational symmetry number  1.
 Warning -- assumption of classical behavior for rotation
           may cause significant error
 Rotational temperatures (Kelvin)      0.11863     0.06481     0.05338
 Rotational constants (GHZ):           2.47191     1.35039     1.11216
 Zero-point vibrational energy     607056.7 (Joules/Mol)
                                  145.09004 (Kcal/Mol)
 Warning -- explicit consideration of  11 degrees of freedom as
           vibrations may cause significant error
 Vibrational temperatures:    136.38   222.08   270.70   326.44   389.79
          (Kelvin)            396.21   443.56   495.71   638.66   716.19
                              804.91   937.04  1092.08  1107.73  1149.47
                             1194.26  1207.46  1251.06  1333.27  1358.71
                             1367.29  1393.42  1435.91  1478.97  1494.20
                             1524.51  1555.59  1560.09  1593.41  1620.93
                             1646.02  1654.94  1711.51  1762.25  1780.75
                             1811.61  1821.45  1843.12  1864.81  1896.97
                             1940.62  1949.12  2012.02  2015.06  2033.76
                             2047.87  2133.47  2145.53  2154.27  2156.74
                             2169.11  2170.60  2189.55  4318.53  4343.64
                             4357.66  4365.04  4367.66  4377.75  4391.97
                             4420.22  4436.73  4437.94  4440.12  4450.68
                             4455.25  4470.29  4474.64  4508.99

 Zero-point correction=                           0.231216 (Hartree/Particle)
 Thermal correction to Energy=                    0.240124
 Thermal correction to Enthalpy=                  0.241069
 Thermal correction to Gibbs Free Energy=         0.198100
 Sum of electronic and zero-point Energies=           -352.351661
 Sum of electronic and thermal Energies=              -352.342752
 Sum of electronic and thermal Enthalpies=            -352.341808
 Sum of electronic and thermal Free Energies=         -352.384777

                     E (Thermal)             CV                S
                      KCal/Mol        Cal/Mol-Kelvin    Cal/Mol-Kelvin
 Total                  150.680             35.931             90.435
 Electronic               0.000              0.000              0.000
 Translational            0.889              2.981             40.362
 Rotational               0.889              2.981             28.850
 Vibrational            148.903             29.969             21.223
 Vibration     1          0.603              1.953              3.559
 Vibration     2          0.620              1.898              2.618
 Vibration     3          0.633              1.856              2.246
 Vibration     4          0.651              1.800              1.903
 Vibration     5          0.675              1.727              1.590
 Vibration     6          0.677              1.719              1.562
 Vibration     7          0.698              1.658              1.371
 Vibration     8          0.723              1.586              1.191
 Vibration     9          0.803              1.374              0.814
 Vibration    10          0.853              1.255              0.664
 Vibration    11          0.915              1.119              0.525

                           ! Non-Optimized Parameters !
 Normal termination of Gaussian 16 at Sun May 28 17:59:55 2023.
