 Gaussian 16, Revision A.03,
 Gaussian 16:  ES64L-G16RevA.03 25-Dec-2016

 -----------------------------
 # opt freq b3lyp/6-31g(2df,p)
 -----------------------------

 -------------------
 Title Card Required
 -------------------
 Symbolic Z-matrix:
 Charge =  0 Multiplicity = 1

 SCF Done:  E(RB3LYP) =  -527.064961352     A.U. after   12 cycles
 SCF Done:  E(RB3LYP) =  -527.086878648     A.U. after   11 cycles
 SCF Done:  E(RB3LYP) =  -527.096546973     A.U. after   10 cycles
 SCF Done:  E(RB3LYP) =  -527.101427570     A.U. after   10 cycles
 SCF Done:  E(RB3LYP) =  -527.105341324     A.U. after   10 cycles
 SCF Done:  E(RB3LYP) =  -527.109813050     A.U. after   10 cycles
 SCF Done:  E(RB3LYP) =  -527.111888357     A.U. after   10 cycles
 SCF Done:  E(RB3LYP) =  -527.112601687     A.U. after   10 cycles
 SCF Done:  E(RB3LYP) =  -527.112851283     A.U. after    9 cycles
 SCF Done:  E(RB3LYP) =  -527.113007602     A.U. after    9 cycles
 SCF Done:  E(RB3LYP) =  -527.116232626     A.U. after   10 cycles
 SCF Done:  E(RB3LYP) =  -527.116669351     A.U. after   10 cycles
 SCF Done:  E(RB3LYP) =  -527.116777401     A.U. after   10 cycles
 SCF Done:  E(RB3LYP) =  -527.116807095     A.U. after    9 cycles
 SCF Done:  E(RB3LYP) =  -527.116814615     A.U. after    8 cycles
 SCF Done:  E(RB3LYP) =  -527.116815849     A.U. after    7 cycles
 SCF Done:  E(RB3LYP) =  -527.116816692     A.U. after    7 cycles
 SCF Done:  E(RB3LYP) =  -527.116816800     A.U. after    6 cycles
 SCF Done:  E(RB3LYP) =  -527.116816825     A.U. after    6 cycles
 Optimization completed.
    -- Stationary point found.
 Normal termination of Gaussian 16 at Tue May 23 04:07:40 2023.

 ----------------------------------------------------------------------
 #N Geom=AllCheck Guess=TCheck SCRF=Check GenChk RB3LYP/6-31G(2df,p) Fr
 eq
 ----------------------------------------------------------------------

 Structure from the checkpoint file:  "CCC1CCCqCrCNqCCrCC1.chk"
 -------------------
 Title Card Required
 -------------------
 Charge =  0 Multiplicity = 1

                         Standard orientation:
 ---------------------------------------------------------------------
 Center     Atomic      Atomic             Coordinates (Angstroms)
 Number     Number       Type             X           Y           Z
 ---------------------------------------------------------------------
      1          6           0        3.265795    1.827959   -0.972341
      2          6           0        3.077177    0.541000   -0.161555
      3          6           0        1.610653    0.126920    0.093399
      4          6           0        1.600177   -1.332271    0.596537
      5          6           0        0.280558   -2.053378    0.953751
      6          6           0       -0.885540   -2.063940   -0.068463
      7          6           0       -0.425054   -2.280760   -1.517015
      8          6           0       -1.871413   -0.878197    0.062846
      9          7           0       -1.292220    0.452329   -0.056856
     10          6           0       -2.115998    1.435896   -0.750948
     11          6           0       -3.446285    1.816728   -0.076199
     12          6           0       -0.628363    0.940526    1.152787
     13          6           0        0.897193    1.140651    1.000532
     14          1           0        4.326285    2.003962   -1.180148
     15          1           0        2.888400    2.710880   -0.447627
     16          1           0        2.745504    1.767270   -1.935046
     17          1           0        3.600153    0.633754    0.800910
     18          1           0        3.577737   -0.278041   -0.693995
     19          1           0        1.086619    0.158708   -0.867882
     20          1           0        2.245734   -1.394196    1.484937
     21          1           0        2.109733   -1.931507   -0.169180
     22          1           0       -0.098620   -1.695758    1.917824
     23          1           0        0.560685   -3.099430    1.134261
     24          1           0       -1.497071   -2.937959    0.199988
     25          1           0        0.079810   -1.400012   -1.921397
     26          1           0       -1.282513   -2.495080   -2.164441
     27          1           0        0.264246   -3.128705   -1.592458
     28          1           0       -2.412595   -0.994912    1.020813
     29          1           0       -2.623677   -0.990529   -0.727129
     30          1           0       -2.323476    1.054475   -1.758567
     31          1           0       -1.510239    2.339709   -0.889814
     32          1           0       -4.105090    0.948404    0.024706
     33          1           0       -3.973974    2.569028   -0.672320
     34          1           0       -3.287802    2.235385    0.922982
     35          1           0       -0.831537    0.248434    1.976900
     36          1           0       -1.068907    1.896950    1.465568
     37          1           0        1.352652    1.145003    2.001259
     38          1           0        1.070085    2.141066    0.587866
 ---------------------------------------------------------------------

 SCF Done:  E(RB3LYP) =  -527.116816825     A.U. after    1 cycles

 The electronic state is 1-A.
 Alpha  occ. eigenvalues --  -14.30573 -10.20076 -10.19530 -10.19475 -10.17790
 Alpha  occ. eigenvalues --  -10.17086 -10.16891 -10.16871 -10.16870 -10.16799
 Alpha  occ. eigenvalues --  -10.16568 -10.16552 -10.16365  -0.90986  -0.80728
 Alpha  occ. eigenvalues --   -0.78773  -0.74573  -0.73294  -0.70496  -0.67530
 Alpha  occ. eigenvalues --   -0.66330  -0.62238  -0.60001  -0.56721  -0.55451
 Alpha  occ. eigenvalues --   -0.51470  -0.48012  -0.46740  -0.46023  -0.44419
 Alpha  occ. eigenvalues --   -0.43566  -0.43053  -0.42091  -0.40934  -0.39797
 Alpha  occ. eigenvalues --   -0.38689  -0.38235  -0.38066  -0.37098  -0.36709
 Alpha  occ. eigenvalues --   -0.35791  -0.34734  -0.34178  -0.33625  -0.32934
 Alpha  occ. eigenvalues --   -0.32139  -0.31988  -0.31123  -0.29546  -0.29131
 Alpha  occ. eigenvalues --   -0.28340  -0.19403
 Alpha virt. eigenvalues --    0.07157   0.09365   0.09881   0.10470   0.11764
 Alpha virt. eigenvalues --    0.12926   0.13111   0.13910   0.14638   0.14977
 Alpha virt. eigenvalues --    0.15599   0.16093   0.16570   0.17009   0.17658

 Mulliken charges:
               1
     1  C   -0.394177
     2  C   -0.170207
     3  C    0.050183
     4  C   -0.186617
     5  C   -0.243433
     6  C    0.044885
     7  C   -0.399349
     8  C   -0.170916
     9  N   -0.023338
    10  C   -0.158779
    11  C   -0.380596
    12  C   -0.185765
    13  C   -0.193370
    14  H    0.108244
    15  H    0.116117
    16  H    0.112179
    17  H    0.087028
    18  H    0.086478
    19  H    0.083090
    20  H    0.083987
    21  H    0.091903
    22  H    0.092292
    23  H    0.088543
    24  H    0.065739
    25  H    0.129708
    26  H    0.103404
    27  H    0.107717
    28  H    0.073651
    29  H    0.088802
    30  H    0.097624
    31  H    0.098130
    32  H    0.117082
    33  H    0.109661
    34  H    0.116998
    35  H    0.095565
    36  H    0.084241
    37  H    0.081709
    38  H    0.091586
 Sum of Mulliken charges =  -0.00000

 Dipole moment (field-independent basis, Debye):
    X=             -0.5577    Y=              0.0767    Z=              0.1775  Tot=              0.5903
 Quadrupole moment (field-independent basis, Debye-Ang):
   XX=            -85.3730   YY=            -84.5081   ZZ=            -85.1846
   XY=             -0.3510   XZ=              0.7444   YZ=              0.1042

  Exact polarizability: 148.750  -0.134 139.524   1.645  -0.458 120.872
 Approx polarizability: 190.401   0.657 192.378   3.262  -0.428 188.419

                      1                      2                      3
                      A                      A                      A
 Frequencies --     54.3194                62.8576                96.0739
 Red. masses --      3.1254                 2.4175                 2.1150
 Frc consts  --      0.0054                 0.0056                 0.0115
 IR Inten    --      0.0789                 0.0377                 0.0879

                      4                      5                      6
                      A                      A                      A
 Frequencies --    104.9088               112.4363               139.2829
 Red. masses --      2.3278                 2.1813                 1.8917
 Frc consts  --      0.0151                 0.0162                 0.0216
 IR Inten    --      0.1086                 0.1691                 0.1896

                      7                      8                      9
                      A                      A                      A
 Frequencies --    194.7108               197.3729               215.9630
 Red. masses --      2.7994                 1.2223                 2.2568
 Frc consts  --      0.0625                 0.0281                 0.0620
 IR Inten    --      0.4015                 0.1557                 0.4818

                     10                     11                     12
                      A                      A                      A
 Frequencies --    229.3123               233.8747               254.6643
 Red. masses --      1.5418                 1.2218                 1.6968
 Frc consts  --      0.0478                 0.0394                 0.0648
 IR Inten    --      0.1863                 0.0268                 0.2656

                     13                     14                     15
                      A                      A                      A
 Frequencies --    282.2564               311.7781               355.9701
 Red. masses --      2.5868                 2.5127                 2.3691
 Frc consts  --      0.1214                 0.1439                 0.1769
 IR Inten    --      0.1115                 0.6475                 0.1093

                     16                     17                     18
                      A                      A                      A
 Frequencies --    369.4624               414.0973               423.5348
 Red. masses --      2.0633                 2.3361                 2.0258
 Frc consts  --      0.1659                 0.2360                 0.2141
 IR Inten    --      0.1910                 0.9668                 0.4260

                     19                     20                     21
                      A                      A                      A
 Frequencies --    428.7369               454.2696               539.7540
 Red. masses --      2.6728                 1.8253                 2.7315
 Frc consts  --      0.2895                 0.2219                 0.4689
 IR Inten    --      0.1320                 2.1562                 3.3759

                     22                     23                     24
                      A                      A                      A
 Frequencies --    572.7726               626.2282               724.5233
 Red. masses --      3.0554                 2.0524                 2.5589
 Frc consts  --      0.5906                 0.4742                 0.7914
 IR Inten    --      2.2077                 1.1956                 2.6204

                     25                     26                     27
                      A                      A                      A
 Frequencies --    743.4272               764.7451               787.9686
 Red. masses --      2.0366                 1.5166                 1.2042
 Frc consts  --      0.6632                 0.5226                 0.4405
 IR Inten    --      2.6894                 3.7228                 1.9767

                     28                     29                     30
                      A                      A                      A
 Frequencies --    799.3910               836.1433               874.0519
 Red. masses --      1.6342                 1.7147                 2.4434
 Frc consts  --      0.6153                 0.7063                 1.0998
 IR Inten    --      1.7745                 5.4977                 1.3654

                     31                     32                     33
                      A                      A                      A
 Frequencies --    895.2704               918.4464               935.0962
 Red. masses --      1.9254                 1.7993                 1.8974
 Frc consts  --      0.9092                 0.8943                 0.9775
 IR Inten    --      0.0906                 0.9734                 3.5820

                     34                     35                     36
                      A                      A                      A
 Frequencies --    960.4995               973.4743               988.2906
 Red. masses --      1.7708                 1.8992                 2.2898
 Frc consts  --      0.9625                 1.0604                 1.3177
 IR Inten    --      1.9422                 9.5789                 4.2178

                     37                     38                     39
                      A                      A                      A
 Frequencies --   1001.5483              1030.6843              1043.9185
 Red. masses --      1.7303                 1.9017                 2.1725
 Frc consts  --      1.0226                 1.1902                 1.3949
 IR Inten    --      5.6504                 0.1671                 5.4303

                     40                     41                     42
                      A                      A                      A
 Frequencies --   1059.6700              1071.3484              1089.0996
 Red. masses --      1.8760                 1.8896                 1.8421
 Frc consts  --      1.2411                 1.2779                 1.2873
 IR Inten    --      7.0271                 6.5186                 2.4385

                     43                     44                     45
                      A                      A                      A
 Frequencies --   1102.8362              1114.8623              1132.8534
 Red. masses --      2.0754                 2.0541                 2.2144
 Frc consts  --      1.4872                 1.5043                 1.6744
 IR Inten    --     16.4998                16.9584                30.0600

                     46                     47                     48
                      A                      A                      A
 Frequencies --   1160.6283              1167.2351              1194.6475
 Red. masses --      2.0396                 1.9035                 1.8813
 Frc consts  --      1.6187                 1.5280                 1.5820
 IR Inten    --      5.6371                 0.6155                17.5321

                     49                     50                     51
                      A                      A                      A
 Frequencies --   1217.5156              1235.4367              1256.1462
 Red. masses --      1.6857                 1.6507                 1.3586
 Frc consts  --      1.4722                 1.4844                 1.2630
 IR Inten    --      7.7544                 8.9520                 0.7483

                     52                     53                     54
                      A                      A                      A
 Frequencies --   1266.8297              1286.9432              1315.7246
 Red. masses --      1.2795                 1.1303                 1.2929
 Frc consts  --      1.2098                 1.1030                 1.3187
 IR Inten    --      3.6162                 1.7309                 1.8204

                     55                     56                     57
                      A                      A                      A
 Frequencies --   1323.8529              1343.1094              1348.8644
 Red. masses --      1.1242                 1.4131                 1.3767
 Frc consts  --      1.1609                 1.5020                 1.4758
 IR Inten    --      0.4334                 7.9505                 2.9852

                     58                     59                     60
                      A                      A                      A
 Frequencies --   1356.1521              1364.0013              1375.5667
 Red. masses --      1.3449                 1.3772                 1.2785
 Frc consts  --      1.4573                 1.5097                 1.4253
 IR Inten    --      1.0240                 9.1790                17.3855

                     61                     62                     63
                      A                      A                      A
 Frequencies --   1381.8241              1385.2718              1388.9487
 Red. masses --      1.3203                 1.3608                 1.3096
 Frc consts  --      1.4854                 1.5386                 1.4886
 IR Inten    --     12.3982                 5.2262                13.3668

                     64                     65                     66
                      A                      A                      A
 Frequencies --   1399.9227              1402.6116              1405.1675
 Red. masses --      1.3008                 1.2670                 1.2918
 Frc consts  --      1.5020                 1.4686                 1.5028
 IR Inten    --     12.1352                24.4244                10.2089

                     67                     68                     69
                      A                      A                      A
 Frequencies --   1412.1872              1413.8888              1417.7112
 Red. masses --      1.2986                 1.3330                 1.3162
 Frc consts  --      1.5259                 1.5701                 1.5586
 IR Inten    --      4.9804                 1.6110                 6.2711

                     70                     71                     72
                      A                      A                      A
 Frequencies --   1430.7022              1472.6601              1475.6301
 Red. masses --      1.2987                 1.0784                 1.0764
 Frc consts  --      1.5662                 1.3780                 1.3810
 IR Inten    --      6.7613                 0.5213                 3.2106

                     73                     74                     75
                      A                      A                      A
 Frequencies --   1482.5271              1487.5729              1488.4507
 Red. masses --      1.0746                 1.0858                 1.0672
 Frc consts  --      1.3916                 1.4156                 1.3930
 IR Inten    --      0.3782                 1.4900                 1.6328

                     76                     77                     78
                      A                      A                      A
 Frequencies --   1492.5381              1495.9719              1498.3438
 Red. masses --      1.0631                 1.0610                 1.0550
 Frc consts  --      1.3954                 1.3989                 1.3954
 IR Inten    --      5.7925                 5.0131                 1.9355

                     79                     80                     81
                      A                      A                      A
 Frequencies --   1500.8080              1505.0979              1506.0451
 Red. masses --      1.0497                 1.0628                 1.0712
 Frc consts  --      1.3931                 1.4185                 1.4315
 IR Inten    --      5.3403                 1.2918                 6.4105

                     82                     83                     84
                      A                      A                      A
 Frequencies --   1509.1553              1518.2083              2911.7845
 Red. masses --      1.0632                 1.0887                 1.0722
 Frc consts  --      1.4267                 1.4785                 5.3561
 IR Inten    --      5.0009                 3.0361                60.9236

                     85                     86                     87
                      A                      A                      A
 Frequencies --   2986.6519              2995.8772              2998.5328
 Red. masses --      1.0806                 1.0634                 1.0631
 Frc consts  --      5.6793                 5.6236                 5.6317
 IR Inten    --     24.5792                14.2199                23.2894

                     88                     89                     90
                      A                      A                      A
 Frequencies --   3005.0174              3011.1260              3019.1044
 Red. masses --      1.0622                 1.0649                 1.0620
 Frc consts  --      5.6516                 5.6885                 5.7031
 IR Inten    --     41.2618                61.5342                31.8082

                     91                     92                     93
                      A                      A                      A
 Frequencies --   3021.8833              3027.2766              3030.7948
 Red. masses --      1.0657                 1.0936                 1.0417
 Frc consts  --      5.7339                 5.9050                 5.6375
 IR Inten    --     57.3933                 9.3981                17.9744

                     94                     95                     96
                      A                      A                      A
 Frequencies --   3032.5355              3032.9200              3035.5519
 Red. masses --      1.0405                 1.0377                 1.0913
 Frc consts  --      5.6377                 5.6238                 5.9247
 IR Inten    --     38.2446                11.9604                 7.2226

                     97                     98                     99
                      A                      A                      A
 Frequencies --   3039.8774              3044.6448              3053.1073
 Red. masses --      1.0909                 1.0875                 1.1009
 Frc consts  --      5.9393                 5.9395                 6.0462
 IR Inten    --      4.7063                18.4702                15.5259

                    100                    101                    102
                      A                      A                      A
 Frequencies --   3057.1101              3057.4841              3071.9995
 Red. masses --      1.0976                 1.0893                 1.0966
 Frc consts  --      6.0441                 5.9997                 6.0975
 IR Inten    --     73.8629                19.1840                91.4167

                    103                    104                    105
                      A                      A                      A
 Frequencies --   3090.2185              3094.6656              3099.9018
 Red. masses --      1.1008                 1.1008                 1.1007
 Frc consts  --      6.1934                 6.2111                 6.2318
 IR Inten    --     34.5758                43.8500                38.3844

                    106                    107                    108
                      A                      A                      A
 Frequencies --   3103.8160              3107.0619              3119.1194
 Red. masses --      1.1002                 1.1022                 1.0981
 Frc consts  --      6.2446                 6.2690                 6.2944
 IR Inten    --     42.1368                42.9020                28.0899

 - Thermochemistry -
 -------------------
 Temperature   298.150 Kelvin.  Pressure   1.00000 Atm.
 Atom     1 has atomic number  6 and mass  12.00000

 Molecular mass:   183.19870 amu.
 Principal axes and moments of inertia in atomic units:
                           1         2         3
     Eigenvalues --  1983.175663105.048434142.94629
           X            0.99999  -0.00039  -0.00393
           Y            0.00040   1.00000   0.00163
           Z            0.00393  -0.00163   0.99999
 This molecule is an asymmetric top.
 Rotational symmetry number  1.
 Warning -- assumption of classical behavior for rotation
           may cause significant error
 Rotational temperatures (Kelvin)      0.04367     0.02789     0.02091
 Rotational constants (GHZ):           0.91003     0.58123     0.43562
 Zero-point vibrational energy     934610.9 (Joules/Mol)
                                  223.37738 (Kcal/Mol)
 Warning -- explicit consideration of  22 degrees of freedom as
           vibrations may cause significant error
 Vibrational temperatures:     78.15    90.44   138.23   150.94   161.77
          (Kelvin)            200.40   280.15   283.98   310.72   329.93
                              336.49   366.41   406.10   448.58   512.16
                              531.57   595.79   609.37   616.86   653.59
                              776.59   824.09   901.00  1042.43  1069.63
                             1100.30  1133.71  1150.15  1203.02  1257.57
                             1288.09  1321.44  1345.39  1381.94  1400.61
                             1421.93  1441.00  1482.92  1501.97  1524.63
                             1541.43  1566.97  1586.74  1604.04  1629.92
                             1669.89  1679.39  1718.83  1751.73  1777.52
                             1807.31  1822.69  1851.62  1893.03  1904.73
                             1932.43  1940.71  1951.20  1962.49  1979.13
                             1988.14  1993.10  1998.39  2014.18  2018.05
                             2021.72  2031.82  2034.27  2039.77  2058.46
                             2118.83  2123.10  2133.03  2140.29  2141.55
                             2147.43  2152.37  2155.78  2159.33  2165.50
                             2166.86  2171.34  2184.36  4189.41  4297.13
                             4310.40  4314.22  4323.55  4332.34  4343.82
                             4347.82  4355.58  4360.64  4363.14  4363.70
                             4367.48  4373.71  4380.56  4392.74  4398.50
                             4399.04  4419.92  4446.14  4452.53  4460.07
                             4465.70  4470.37  4487.72

 Zero-point correction=                           0.355975 (Hartree/Particle)
 Thermal correction to Energy=                    0.371078
 Thermal correction to Enthalpy=                  0.372022
 Thermal correction to Gibbs Free Energy=         0.314755
 Sum of electronic and zero-point Energies=           -526.760842
 Sum of electronic and thermal Energies=              -526.745739
 Sum of electronic and thermal Enthalpies=            -526.744794
 Sum of electronic and thermal Free Energies=         -526.802062

                     E (Thermal)             CV                S
                      KCal/Mol        Cal/Mol-Kelvin    Cal/Mol-Kelvin
 Total                  232.855             58.387            120.530
 Electronic               0.000              0.000              0.000
 Translational            0.889              2.981             41.523
 Rotational               0.889              2.981             31.612
 Vibrational            231.078             52.426             47.395
 Vibration     1          0.596              1.976              4.654
 Vibration     2          0.597              1.972              4.365
 Vibration     3          0.603              1.952              3.532
 Vibration     4          0.605              1.945              3.361
 Vibration     5          0.607              1.939              3.226
 Vibration     6          0.615              1.914              2.814
 Vibration     7          0.635              1.847              2.183
 Vibration     8          0.637              1.844              2.157
 Vibration     9          0.645              1.817              1.993
 Vibration    10          0.652              1.796              1.884
 Vibration    11          0.654              1.789              1.849
 Vibration    12          0.665              1.755              1.698
 Vibration    13          0.681              1.707              1.520
 Vibration    14          0.700              1.651              1.353
 Vibration    15          0.731              1.563              1.140
 Vibration    16          0.742              1.535              1.082
 Vibration    17          0.778              1.440              0.912
 Vibration    18          0.786              1.419              0.880
 Vibration    19          0.790              1.408              0.863
 Vibration    20          0.813              1.351              0.783
 Vibration    21          0.895              1.162              0.566
 Vibration    22          0.929              1.090              0.499

 Optimization completed.
    -- Stationary point found.
 Normal termination of Gaussian 16 at Tue May 23 06:57:08 2023.
