 Gaussian 16, Revision A.03,
 Gaussian 16:  ES64L-G16RevA.03 25-Dec-2016

 -----------------------------
 # opt freq b3lyp/6-31g(2df,p)
 -----------------------------

 -------------------
 Title Card Required
 -------------------
 Symbolic Z-matrix:
 Charge =  0 Multiplicity = 1

 SCF Done:  E(RB3LYP) =  -786.121163513     A.U. after   14 cycles
 SCF Done:  E(RB3LYP) =  -786.156231661     A.U. after   12 cycles
 SCF Done:  E(RB3LYP) =  -786.178984995     A.U. after   11 cycles
 SCF Done:  E(RB3LYP) =  -786.191593479     A.U. after   12 cycles
 SCF Done:  E(RB3LYP) =  -786.198806024     A.U. after   12 cycles
 SCF Done:  E(RB3LYP) =  -786.201879060     A.U. after   13 cycles
 SCF Done:  E(RB3LYP) =  -786.203671981     A.U. after   12 cycles
 SCF Done:  E(RB3LYP) =  -786.204871471     A.U. after   12 cycles
 SCF Done:  E(RB3LYP) =  -786.205841185     A.U. after   12 cycles
 SCF Done:  E(RB3LYP) =  -786.206757527     A.U. after   12 cycles
 SCF Done:  E(RB3LYP) =  -786.217076513     A.U. after   11 cycles
 SCF Done:  E(RB3LYP) =  -786.217081448     A.U. after    9 cycles
 SCF Done:  E(RB3LYP) =  -786.217140397     A.U. after    9 cycles
 SCF Done:  E(RB3LYP) =  -786.217147054     A.U. after    9 cycles
 SCF Done:  E(RB3LYP) =  -786.217152665     A.U. after    8 cycles
 SCF Done:  E(RB3LYP) =  -786.217153489     A.U. after    7 cycles
 SCF Done:  E(RB3LYP) =  -786.217153712     A.U. after    6 cycles
 SCF Done:  E(RB3LYP) =  -786.217153841     A.U. after    7 cycles
 SCF Done:  E(RB3LYP) =  -786.217153927     A.U. after    6 cycles
 Optimization completed.
    -- Stationary point found.
 Normal termination of Gaussian 16 at Mon May 22 18:54:19 2023.

 ----------------------------------------------------------------------
 #N Geom=AllCheck Guess=TCheck SCRF=Check GenChk RB3LYP/6-31G(2df,p) Fr
 eq
 ----------------------------------------------------------------------

 Structure from the checkpoint file:  "CCC1CqCqdOrONCrCCOC2CC21O.chk"
 -------------------
 Title Card Required
 -------------------
 Charge =  0 Multiplicity = 1

                         Standard orientation:
 ---------------------------------------------------------------------
 Center     Atomic      Atomic             Coordinates (Angstroms)
 Number     Number       Type             X           Y           Z
 ---------------------------------------------------------------------
      1          6           0       -1.868467    2.998371   -0.618565
      2          6           0       -0.663431    2.057292   -0.740585
      3          6           0       -1.031692    0.558908   -0.789038
      4          6           0        0.121213   -0.363847   -1.281688
      5          6           0        1.450461   -0.418542   -0.536545
      6          8           0        2.290188   -1.264053   -0.745608
      7          8           0        1.636779    0.589406    0.345359
      8          7           0        2.901133    0.538335    1.055094
      9          6           0        3.772145    1.542439    0.445812
     10          6           0       -0.379152   -1.810900   -1.519513
     11          6           0       -0.347304   -2.675837   -0.238956
     12          8           0       -0.302381   -1.891322    0.946377
     13          6           0       -1.469376   -1.181638    1.206872
     14          6           0       -1.290366    0.160089    1.858867
     15          6           0       -1.812551    0.069318    0.436849
     16          8           0       -3.210383    0.214048    0.297652
     17          1           0       -1.556467    4.041289   -0.732164
     18          1           0       -2.344534    2.923655    0.366275
     19          1           0       -2.626646    2.793622   -1.382720
     20          1           0        0.027708    2.248068    0.081853
     21          1           0       -0.119617    2.302078   -1.662741
     22          1           0       -1.773359    0.458894   -1.593159
     23          1           0        0.406239    0.037792   -2.264745
     24          1           0        3.257398   -0.386813    0.801640
     25          1           0        3.365079    2.539400    0.631717
     26          1           0        3.918375    1.406555   -0.634492
     27          1           0        4.740903    1.465983    0.949526
     28          1           0        0.241986   -2.294590   -2.277527
     29          1           0       -1.393139   -1.750471   -1.925626
     30          1           0        0.567700   -3.269074   -0.209074
     31          1           0       -1.206007   -3.361541   -0.213103
     32          1           0       -2.323994   -1.791564    1.500757
     33          1           0       -0.266346    0.484770    2.001347
     34          1           0       -1.993683    0.446991    2.632502
     35          1           0       -3.432031    1.138059    0.452778
 ---------------------------------------------------------------------

 SCF Done:  E(RB3LYP) =  -786.217153927     A.U. after    1 cycles

 The electronic state is 1-A.
 Alpha  occ. eigenvalues --  -19.20433 -19.14644 -19.13938 -19.12821 -14.37598
 Alpha  occ. eigenvalues --  -10.30767 -10.23573 -10.22856 -10.22517 -10.21180
 Alpha  occ. eigenvalues --  -10.20906 -10.19607 -10.18643 -10.18193 -10.18125
 Alpha  occ. eigenvalues --  -10.17722  -1.11999  -1.04413  -1.02436  -1.02226
 Alpha  occ. eigenvalues --   -0.86689  -0.83970  -0.81686  -0.77005  -0.71575
 Alpha  occ. eigenvalues --   -0.68592  -0.66740  -0.62405  -0.61314  -0.59296
 Alpha  occ. eigenvalues --   -0.57717  -0.55328  -0.52573  -0.50342  -0.48400
 Alpha  occ. eigenvalues --   -0.48134  -0.47430  -0.46968  -0.46478  -0.44632
 Alpha  occ. eigenvalues --   -0.43929  -0.42233  -0.41597  -0.41188  -0.40733
 Alpha  occ. eigenvalues --   -0.40223  -0.39175  -0.38243  -0.37509  -0.36585
 Alpha  occ. eigenvalues --   -0.35579  -0.35057  -0.34138  -0.32530  -0.32424
 Alpha  occ. eigenvalues --   -0.32006  -0.30746  -0.28972  -0.27542  -0.25722
 Alpha  occ. eigenvalues --   -0.24838  -0.24118
 Alpha virt. eigenvalues --    0.01544   0.06956   0.07289   0.07921   0.09498
 Alpha virt. eigenvalues --    0.10800   0.11166   0.12235   0.12561   0.13957
 Alpha virt. eigenvalues --    0.14268   0.14509   0.14936   0.15342   0.16377

 Mulliken charges:
               1
     1  C   -0.406962
     2  C   -0.198637
     3  C   -0.067637
     4  C   -0.184671
     5  C    0.513801
     6  O   -0.396428
     7  O   -0.250957
     8  N   -0.192197
     9  C   -0.292711
    10  C   -0.244637
    11  C   -0.076187
    12  O   -0.242939
    13  C    0.043876
    14  C   -0.386582
    15  C    0.353013
    16  O   -0.466466
    17  H    0.116412
    18  H    0.110851
    19  H    0.118366
    20  H    0.125954
    21  H    0.086667
    22  H    0.092030
    23  H    0.110255
    24  H    0.256871
    25  H    0.137345
    26  H    0.119821
    27  H    0.133416
    28  H    0.118344
    29  H    0.111382
    30  H    0.127752
    31  H    0.094562
    32  H    0.096809
    33  H    0.149880
    34  H    0.108708
    35  H    0.280895
 Sum of Mulliken charges =  -0.00000

 Dipole moment (field-independent basis, Debye):
    X=             -0.2125    Y=              2.0497    Z=             -1.3582  Tot=              2.4680
 Quadrupole moment (field-independent basis, Debye-Ang):
   XX=            -93.4981   YY=            -91.8166   ZZ=            -96.2481
   XY=              2.1022   XZ=             -0.7746   YZ=              1.0259

  Exact polarizability: 145.115   0.102 141.703   1.606   4.638 119.127
 Approx polarizability: 200.294  -5.203 198.825   4.778   9.946 186.015

                      1                      2                      3
                      A                      A                      A
 Frequencies --     40.1904                59.9073                66.3385
 Red. masses --      3.1157                 3.5277                 4.8629
 Frc consts  --      0.0030                 0.0075                 0.0126
 IR Inten    --      1.4342                 1.7389                 0.7271

                      4                      5                      6
                      A                      A                      A
 Frequencies --     85.8709                97.2667               126.5160
 Red. masses --      2.7127                 3.5768                 3.8151
 Frc consts  --      0.0118                 0.0199                 0.0360
 IR Inten    --      0.5070                 0.6607                 0.0423

                      7                      8                      9
                      A                      A                      A
 Frequencies --    147.9700               167.7728               194.5191
 Red. masses --      3.6008                 2.4115                 2.6344
 Frc consts  --      0.0465                 0.0400                 0.0587
 IR Inten    --      4.6000                 0.1004                 0.5477

                     10                     11                     12
                      A                      A                      A
 Frequencies --    224.9841               233.1787               247.6568
 Red. masses --      3.2521                 1.5424                 1.8524
 Frc consts  --      0.0970                 0.0494                 0.0669
 IR Inten    --      6.2962                 1.7964                 3.8199

                     13                     14                     15
                      A                      A                      A
 Frequencies --    282.5272               293.6999               295.3908
 Red. masses --      1.7068                 1.7406                 1.3832
 Frc consts  --      0.0803                 0.0885                 0.0711
 IR Inten    --     21.3189                34.0196                31.6318

                     16                     17                     18
                      A                      A                      A
 Frequencies --    329.8814               341.2981               376.5052
 Red. masses --      3.9409                 3.0617                 4.1170
 Frc consts  --      0.2527                 0.2101                 0.3439
 IR Inten    --      2.0175                 1.7233                 7.6513

                     19                     20                     21
                      A                      A                      A
 Frequencies --    393.2073               407.8677               453.9357
 Red. masses --      4.9085                 3.9579                 3.4248
 Frc consts  --      0.4471                 0.3879                 0.4158
 IR Inten    --     19.8830                 7.0960                 0.4562

                     22                     23                     24
                      A                      A                      A
 Frequencies --    469.9114               496.3757               549.7684
 Red. masses --      2.7961                 3.6471                 4.5297
 Frc consts  --      0.3638                 0.5294                 0.8066
 IR Inten    --     11.6841                 1.7988                 2.5944

                     25                     26                     27
                      A                      A                      A
 Frequencies --    583.8348               632.1214               658.8712
 Red. masses --      3.4728                 3.6742                 3.0462
 Frc consts  --      0.6974                 0.8650                 0.7791
 IR Inten    --      2.0257                 2.1508                 6.5061

                     28                     29                     30
                      A                      A                      A
 Frequencies --    716.8697               783.6051               791.9704
 Red. masses --      3.3342                 1.6654                 1.6502
 Frc consts  --      1.0095                 0.6025                 0.6098
 IR Inten    --     13.3634                15.1298                 0.7073

                     31                     32                     33
                      A                      A                      A
 Frequencies --    819.1871               852.1351               867.1410
 Red. masses --      3.1344                 1.9940                 2.9292
 Frc consts  --      1.2393                 0.8531                 1.2977
 IR Inten    --      8.0572                 7.6485                11.2909

                     34                     35                     36
                      A                      A                      A
 Frequencies --    877.7078               898.7966               921.8154
 Red. masses --      3.7240                 2.2506                 2.5430
 Frc consts  --      1.6903                 1.0712                 1.2732
 IR Inten    --      1.3239                 2.9979                23.6649

                     37                     38                     39
                      A                      A                      A
 Frequencies --    939.4141               943.8587               983.6237
 Red. masses --      2.5547                 1.8103                 1.6521
 Frc consts  --      1.3283                 0.9502                 0.9418
 IR Inten    --      5.8661                 8.0474                32.0533

                     40                     41                     42
                      A                      A                      A
 Frequencies --    992.6179              1028.8969              1037.6022
 Red. masses --      1.6121                 1.9359                 2.6030
 Frc consts  --      0.9358                 1.2075                 1.6511
 IR Inten    --     18.9624                 8.5164                 9.4909

                     43                     44                     45
                      A                      A                      A
 Frequencies --   1038.9452              1060.0945              1064.8538
 Red. masses --      3.6600                 1.9779                 2.4499
 Frc consts  --      2.3277                 1.3096                 1.6368
 IR Inten    --      9.6422                21.2686                11.0257

                     46                     47                     48
                      A                      A                      A
 Frequencies --   1076.8655              1102.9459              1109.4078
 Red. masses --      1.7820                 2.4198                 2.0137
 Frc consts  --      1.2176                 1.7344                 1.4603
 IR Inten    --      6.4022                 6.3474                64.7816

                     49                     50                     51
                      A                      A                      A
 Frequencies --   1132.2469              1156.1590              1167.3130
 Red. masses --      1.8637                 1.8435                 1.8815
 Frc consts  --      1.4077                 1.4519                 1.5106
 IR Inten    --      4.3755                79.6765                21.4979

                     52                     53                     54
                      A                      A                      A
 Frequencies --   1176.7909              1200.7411              1221.2047
 Red. masses --      2.7265                 2.1642                 2.2963
 Frc consts  --      2.2246                 1.8385                 2.0177
 IR Inten    --     54.4943                33.3338               107.6426

                     55                     56                     57
                      A                      A                      A
 Frequencies --   1245.8559              1266.7882              1269.5869
 Red. masses --      1.8489                 1.2905                 1.4789
 Frc consts  --      1.6908                 1.2201                 1.4044
 IR Inten    --     40.6258                 6.5818                39.4814

                     58                     59                     60
                      A                      A                      A
 Frequencies --   1294.8828              1298.3353              1300.9037
 Red. masses --      1.5022                 1.3229                 1.4626
 Frc consts  --      1.4841                 1.3138                 1.4584
 IR Inten    --     37.6253                 5.0493                20.2517

                     61                     62                     63
                      A                      A                      A
 Frequencies --   1309.7018              1338.9477              1351.8481
 Red. masses --      1.2891                 1.3287                 1.3733
 Frc consts  --      1.3028                 1.4035                 1.4787
 IR Inten    --     15.2173                 9.2033                14.4695

                     64                     65                     66
                      A                      A                      A
 Frequencies --   1374.0452              1382.0347              1397.3779
 Red. masses --      1.4886                 1.5137                 1.3456
 Frc consts  --      1.6558                 1.7034                 1.5481
 IR Inten    --     10.0588                 4.2001                 0.0378

                     67                     68                     69
                      A                      A                      A
 Frequencies --   1405.5907              1409.0345              1420.3751
 Red. masses --      1.3460                 1.2485                 1.3138
 Frc consts  --      1.5668                 1.4604                 1.5617
 IR Inten    --      6.2817                 3.5189                 1.8531

                     70                     71                     72
                      A                      A                      A
 Frequencies --   1438.6369              1476.4565              1476.5695
 Red. masses --      1.1848                 1.0662                 1.5762
 Frc consts  --      1.4447                 1.3693                 2.0248
 IR Inten    --      1.3832                 5.2899                21.2092

                     73                     74                     75
                      A                      A                      A
 Frequencies --   1484.4602              1489.3147              1499.4617
 Red. masses --      1.0866                 1.0701                 1.0659
 Frc consts  --      1.4108                 1.3985                 1.4119
 IR Inten    --      4.2063                 4.0194                 3.6147

                     76                     77                     78
                      A                      A                      A
 Frequencies --   1500.7299              1503.9964              1516.6994
 Red. masses --      1.0801                 1.1175                 1.0570
 Frc consts  --      1.4332                 1.4893                 1.4326
 IR Inten    --      5.3479                11.0751                 6.1232

                     79                     80                     81
                      A                      A                      A
 Frequencies --   1524.8067              1784.0401              3001.8691
 Red. masses --      1.0928                10.8412                 1.0813
 Frc consts  --      1.4970                20.3299                 5.7407
 IR Inten    --     35.9555               173.2858                12.2992

                     82                     83                     84
                      A                      A                      A
 Frequencies --   3005.6362              3007.5006              3010.6568
 Red. masses --      1.0707                 1.0427                 1.0810
 Frc consts  --      5.6991                 5.5565                 5.7731
 IR Inten    --     61.3598                30.9218                 7.8091

                     85                     86                     87
                      A                      A                      A
 Frequencies --   3020.4532              3024.0160              3059.7597
 Red. masses --      1.0659                 1.0435                 1.0616
 Frc consts  --      5.7292                 5.6223                 5.8561
 IR Inten    --     19.3019                46.0840                29.1487

                     88                     89                     90
                      A                      A                      A
 Frequencies --   3082.2500              3090.9482              3096.6188
 Red. masses --      1.0978                 1.0919                 1.0998
 Frc consts  --      6.1447                 6.1462                 6.2138
 IR Inten    --     31.4459                24.4400                26.6178

                     91                     92                     93
                      A                      A                      A
 Frequencies --   3098.0672              3101.9918              3122.6947
 Red. masses --      1.1002                 1.0872                 1.0968
 Frc consts  --      6.2216                 6.1638                 6.3016
 IR Inten    --      3.5040                31.3248                19.4136

                     94                     95                     96
                      A                      A                      A
 Frequencies --   3123.1972              3123.9726              3139.8623
 Red. masses --      1.1019                 1.0926                 1.0548
 Frc consts  --      6.3328                 6.2827                 6.1270
 IR Inten    --     24.3471                19.7622                 8.6124

                     97                     98                     99
                      A                      A                      A
 Frequencies --   3238.6452              3424.9318              3808.2773
 Red. masses --      1.1171                 1.0728                 1.0658
 Frc consts  --      6.9035                 7.4146                 9.1070
 IR Inten    --      1.7085                28.8567                21.2126

 - Thermochemistry -
 -------------------
 Temperature   298.150 Kelvin.  Pressure   1.00000 Atm.
 Atom     1 has atomic number  6 and mass  12.00000

 Molecular mass:   229.13141 amu.
 Principal axes and moments of inertia in atomic units:
                           1         2         3
     Eigenvalues --  2619.837783832.285064924.37894
           X            0.99997   0.00419   0.00652
           Y           -0.00422   0.99998   0.00459
           Z           -0.00650  -0.00462   0.99997
 This molecule is an asymmetric top.
 Rotational symmetry number  1.
 Warning -- assumption of classical behavior for rotation
           may cause significant error
 Rotational temperatures (Kelvin)      0.03306     0.02260     0.01759
 Rotational constants (GHZ):           0.68888     0.47093     0.36649
 Zero-point vibrational energy     786915.6 (Joules/Mol)
                                  188.07733 (Kcal/Mol)
 Warning -- explicit consideration of  25 degrees of freedom as
           vibrations may cause significant error
 Vibrational temperatures:     57.83    86.19    95.45   123.55   139.95
          (Kelvin)            182.03   212.90   241.39   279.87   323.70
                              335.49   356.32   406.49   422.57   425.00
                              474.63   491.05   541.71   565.74   586.83
                              653.11   676.10   714.17   790.99   840.01
                              909.48   947.97  1031.42  1127.43  1139.47
                             1178.63  1226.03  1247.62  1262.83  1293.17
                             1326.29  1351.61  1358.00  1415.22  1428.16
                             1480.35  1492.88  1494.81  1525.24  1532.09
                             1549.37  1586.89  1596.19  1629.05  1663.45
                             1679.50  1693.14  1727.60  1757.04  1792.51
                             1822.63  1826.65  1863.05  1868.01  1871.71
                             1884.37  1926.45  1945.01  1976.94  1988.44
                             2010.52  2022.33  2027.29  2043.60  2069.88
                             2124.29  2124.45  2135.81  2142.79  2157.39
                             2159.22  2163.92  2182.19  2193.86  2566.84
                             4319.02  4324.44  4327.12  4331.66  4345.76
                             4350.88  4402.31  4434.67  4447.19  4455.34
                             4457.43  4463.07  4492.86  4493.58  4494.70
                             4517.56  4659.69  4927.71  5479.26

 Zero-point correction=                           0.299720 (Hartree/Particle)
 Thermal correction to Energy=                    0.316275
 Thermal correction to Enthalpy=                  0.317220
 Thermal correction to Gibbs Free Energy=         0.256018
 Sum of electronic and zero-point Energies=           -785.917434
 Sum of electronic and thermal Energies=              -785.900879
 Sum of electronic and thermal Enthalpies=            -785.899934
 Sum of electronic and thermal Free Energies=         -785.961136

                     E (Thermal)             CV                S
                      KCal/Mol        Cal/Mol-Kelvin    Cal/Mol-Kelvin
 Total                  198.466             63.142            128.810
 Electronic               0.000              0.000              0.000
 Translational            0.889              2.981             42.189
 Rotational               0.889              2.981             32.269
 Vibrational            196.688             57.180             54.351
 Vibration     1          0.594              1.981              5.250
 Vibration     2          0.597              1.973              4.460
 Vibration     3          0.598              1.970              4.259
 Vibration     4          0.601              1.959              3.752
 Vibration     5          0.603              1.951              3.508
 Vibration     6          0.611              1.927              2.998
 Vibration     7          0.617              1.905              2.698
 Vibration     8          0.625              1.882              2.460
 Vibration     9          0.635              1.847              2.184
 Vibration    10          0.650              1.803              1.919
 Vibration    11          0.654              1.790              1.854
 Vibration    12          0.661              1.767              1.747
 Vibration    13          0.682              1.706              1.518
 Vibration    14          0.688              1.685              1.453
 Vibration    15          0.690              1.682              1.443
 Vibration    16          0.713              1.616              1.261
 Vibration    17          0.721              1.593              1.206
 Vibration    18          0.747              1.520              1.053
 Vibration    19          0.760              1.485              0.988
 Vibration    20          0.772              1.453              0.934
 Vibration    21          0.812              1.352              0.784
 Vibration    22          0.827              1.317              0.738
 Vibration    23          0.852              1.258              0.667
 Vibration    24          0.905              1.140              0.545
 Vibration    25          0.941              1.066              0.478

 Optimization completed.
    -- Stationary point found.
 Normal termination of Gaussian 16 at Mon May 22 22:47:59 2023.
