 Gaussian 16, Revision A.03,
 Gaussian 16:  ES64L-G16RevA.03 25-Dec-2016

 -----------------------------
 # opt freq b3lyp/6-31g(2df,p)
 -----------------------------

 -------------------
 Title Card Required
 -------------------
 Symbolic Z-matrix:
 Charge =  0 Multiplicity = 1

 SCF Done:  E(RB3LYP) =  -353.849979910     A.U. after   12 cycles
 SCF Done:  E(RB3LYP) =  -353.851380764     A.U. after   10 cycles
 SCF Done:  E(RB3LYP) =  -353.851583589     A.U. after    8 cycles
 SCF Done:  E(RB3LYP) =  -353.851598425     A.U. after    8 cycles
 SCF Done:  E(RB3LYP) =  -353.851599634     A.U. after    6 cycles
 SCF Done:  E(RB3LYP) =  -353.851599827     A.U. after    6 cycles
 SCF Done:  E(RB3LYP) =  -353.851599849     A.U. after    5 cycles
 Optimization completed.
    -- Stationary point found.
 Normal termination of Gaussian 16 at Sun May 28 19:41:10 2023.

 ----------------------------------------------------------------------
 #N Geom=AllCheck Guess=TCheck SCRF=Check GenChk RB3LYP/6-31G(2df,p) Fr
 eq
 ----------------------------------------------------------------------

 Structure from the checkpoint file:  "CCC1CCCCqCrC1.chk"
 -------------------
 Title Card Required
 -------------------
 Charge =  0 Multiplicity = 1

                         Standard orientation:
 ---------------------------------------------------------------------
 Center     Atomic      Atomic             Coordinates (Angstroms)
 Number     Number       Type             X           Y           Z
 ---------------------------------------------------------------------
      1          6           0        3.143219   -0.994332   -0.234875
      2          6           0        2.356440    0.196616    0.322746
      3          6           0        0.921506    0.336227   -0.213561
      4          6           0        0.294968    1.669569    0.230525
      5          6           0       -1.139974    1.838180   -0.285061
      6          6           0       -2.026208    0.656235    0.127774
      7          6           0       -1.430269   -0.688763   -0.318063
      8          6           0       -2.305216   -1.868621    0.116084
      9          6           0        0.011799   -0.834978    0.199047
     10          1           0        4.172430   -0.991992    0.137952
     11          1           0        3.187701   -0.960501   -1.329526
     12          1           0        2.695966   -1.951926    0.048645
     13          1           0        2.902885    1.120544    0.091840
     14          1           0        2.323210    0.133470    1.419457
     15          1           0        0.976043    0.345175   -1.314257
     16          1           0        0.919843    2.504771   -0.108714
     17          1           0        0.292663    1.712278    1.329819
     18          1           0       -1.124013    1.912687   -1.381408
     19          1           0       -1.566047    2.778995    0.082193
     20          1           0       -3.035516    0.773968   -0.285176
     21          1           0       -2.138390    0.649811    1.222158
     22          1           0       -1.388785   -0.684143   -1.418359
     23          1           0       -2.380303   -1.919856    1.209017
     24          1           0       -1.892313   -2.821625   -0.232256
     25          1           0       -3.321909   -1.778426   -0.281632
     26          1           0        0.427544   -1.785110   -0.155754
     27          1           0       -0.008607   -0.898918    1.298310
 ---------------------------------------------------------------------

 SCF Done:  E(RB3LYP) =  -353.851599849     A.U. after    1 cycles

 The electronic state is 1-A.
 Alpha  occ. eigenvalues --  -10.17781 -10.17596 -10.17262 -10.17149 -10.16986
 Alpha  occ. eigenvalues --  -10.16974 -10.16833 -10.16833 -10.16654  -0.83138
 Alpha  occ. eigenvalues --   -0.77687  -0.74919  -0.71068  -0.66817  -0.62457
 Alpha  occ. eigenvalues --   -0.58405  -0.55966  -0.54548  -0.46409  -0.45485
 Alpha  occ. eigenvalues --   -0.43516  -0.42711  -0.41287  -0.40548  -0.39958
 Alpha  occ. eigenvalues --   -0.37646  -0.36485  -0.35817  -0.34784  -0.33903
 Alpha  occ. eigenvalues --   -0.32775  -0.32247  -0.31648  -0.30737  -0.28667
 Alpha  occ. eigenvalues --   -0.28339
 Alpha virt. eigenvalues --    0.08485   0.10217   0.10432   0.11415   0.13567
 Alpha virt. eigenvalues --    0.14388   0.15344   0.16392   0.16482   0.17029
 Alpha virt. eigenvalues --    0.17370   0.18191   0.18758   0.19034   0.19521

 Mulliken charges:
               1
     1  C   -0.391258
     2  C   -0.179165
     3  C    0.040326
     4  C   -0.189290
     5  C   -0.218600
     6  C   -0.174468
     7  C    0.038999
     8  C   -0.403031
     9  C   -0.179161
    10  H    0.109724
    11  H    0.111359
    12  H    0.118067
    13  H    0.087945
    14  H    0.089552
    15  H    0.060982
    16  H    0.084530
    17  H    0.087036
    18  H    0.089613
    19  H    0.087044
    20  H    0.084358
    21  H    0.086298
    22  H    0.065012
    23  H    0.109910
    24  H    0.106917
    25  H    0.107012
    26  H    0.086841
    27  H    0.083447
 Sum of Mulliken charges =  -0.00000

 Dipole moment (field-independent basis, Debye):
    X=              0.0181    Y=              0.0697    Z=             -0.0714  Tot=              0.1014
 Quadrupole moment (field-independent basis, Debye-Ang):
   XX=            -60.3698   YY=            -60.2979   ZZ=            -59.1344
   XY=             -0.0513   XZ=              0.1117   YZ=              0.0048

  Exact polarizability: 108.639  -0.050  97.712   0.161   0.115  82.581
 Approx polarizability: 133.828   0.013 132.038   0.009  -0.032 134.050

                      1                      2                      3
                      A                      A                      A
 Frequencies --     79.2137               124.7977               151.8691
 Red. masses --      2.0668                 1.9986                 2.3119
 Frc consts  --      0.0076                 0.0183                 0.0314
 IR Inten    --      0.0040                 0.0022                 0.0110

                      4                      5                      6
                      A                      A                      A
 Frequencies --    186.4387               228.3411               239.4016
 Red. masses --      2.1142                 1.1517                 1.2139
 Frc consts  --      0.0433                 0.0354                 0.0410
 IR Inten    --      0.0044                 0.0355                 0.0035

                      7                      8                      9
                      A                      A                      A
 Frequencies --    276.5388               314.1230               375.8955
 Red. masses --      1.6653                 2.2569                 3.2150
 Frc consts  --      0.0750                 0.1312                 0.2677
 IR Inten    --      0.0172                 0.0030                 0.0999

                     10                     11                     12
                      A                      A                      A
 Frequencies --    413.5211               423.6437               449.7175
 Red. masses --      3.4410                 1.7862                 2.1226
 Frc consts  --      0.3467                 0.1889                 0.2529
 IR Inten    --      0.0269                 0.1602                 0.0050

                     13                     14                     15
                      A                      A                      A
 Frequencies --    459.7705               534.2238               765.7937
 Red. masses --      2.6453                 1.8915                 1.4458
 Frc consts  --      0.3295                 0.3181                 0.4996
 IR Inten    --      0.0504                 0.1658                 1.2865

                     16                     17                     18
                      A                      A                      A
 Frequencies --    789.6815               833.7219               857.3745
 Red. masses --      1.5510                 2.1769                 1.4542
 Frc consts  --      0.5699                 0.8915                 0.6298
 IR Inten    --      0.8496                 1.7116                 0.5665

                     19                     20                     21
                      A                      A                      A
 Frequencies --    880.5140               897.4214               915.5463
 Red. masses --      1.6371                 1.9998                 2.0070
 Frc consts  --      0.7478                 0.9489                 0.9912
 IR Inten    --      0.4690                 0.6684                 1.1122

                     22                     23                     24
                      A                      A                      A
 Frequencies --    958.6732               983.0174               991.5199
 Red. masses --      1.6454                 1.6018                 1.6501
 Frc consts  --      0.8910                 0.9120                 0.9558
 IR Inten    --      2.8108                 0.0748                 0.7124

                     25                     26                     27
                      A                      A                      A
 Frequencies --   1022.8833              1045.2146              1063.6858
 Red. masses --      1.6659                 1.7015                 2.0516
 Frc consts  --      1.0270                 1.0952                 1.3677
 IR Inten    --      1.3752                 0.6818                 0.0203

                     28                     29                     30
                      A                      A                      A
 Frequencies --   1075.0165              1093.9150              1121.5196
 Red. masses --      1.6422                 1.1702                 2.1892
 Frc consts  --      1.1182                 0.8251                 1.6224
 IR Inten    --      0.2108                 0.2339                 0.2140

                     31                     32                     33
                      A                      A                      A
 Frequencies --   1134.4959              1187.1691              1193.7781
 Red. masses --      2.3613                 2.2079                 2.3267
 Frc consts  --      1.7907                 1.8334                 1.9536
 IR Inten    --      1.0856                 1.6636                 0.3666

                     34                     35                     36
                      A                      A                      A
 Frequencies --   1238.4698              1267.9925              1290.2533
 Red. masses --      1.3901                 1.3444                 1.3195
 Frc consts  --      1.2563                 1.2735                 1.2943
 IR Inten    --      0.5617                 2.8242                 3.4455

                     37                     38                     39
                      A                      A                      A
 Frequencies --   1300.7026              1314.6793              1320.0523
 Red. masses --      1.2032                 1.2636                 1.1878
 Frc consts  --      1.1994                 1.2868                 1.2195
 IR Inten    --      1.2201                 1.6080                 1.9128

                     40                     41                     42
                      A                      A                      A
 Frequencies --   1338.3773              1372.9575              1374.6349
 Red. masses --      1.2626                 1.3972                 1.3755
 Frc consts  --      1.3325                 1.5518                 1.5314
 IR Inten    --      1.5354                 0.6704                 1.1543

                     43                     44                     45
                      A                      A                      A
 Frequencies --   1380.5099              1385.5168              1390.0041
 Red. masses --      1.3964                 1.4332                 1.5988
 Frc consts  --      1.5680                 1.6210                 1.8200
 IR Inten    --      3.1810                 2.2954                 2.4292

                     46                     47                     48
                      A                      A                      A
 Frequencies --   1397.6731              1412.1986              1413.0855
 Red. masses --      1.5633                 1.2519                 1.2507
 Frc consts  --      1.7993                 1.4710                 1.4714
 IR Inten    --      0.4477                 1.3003                 2.0162

                     49                     50                     51
                      A                      A                      A
 Frequencies --   1478.6147              1480.9577              1487.9949
 Red. masses --      1.0855                 1.0909                 1.0843
 Frc consts  --      1.3983                 1.4097                 1.4145
 IR Inten    --      0.1579                 0.2515                 1.7964

                     52                     53                     54
                      A                      A                      A
 Frequencies --   1489.8005              1497.0767              1500.1579
 Red. masses --      1.0795                 1.0474                 1.0538
 Frc consts  --      1.4117                 1.3831                 1.3973
 IR Inten    --      3.7292                 4.1437                 3.4013

                     55                     56                     57
                      A                      A                      A
 Frequencies --   1500.6983              1502.7751              1508.8521
 Red. masses --      1.0655                 1.0766                 1.0645
 Frc consts  --      1.4138                 1.4325                 1.4279
 IR Inten    --      3.5848                 0.8425                 4.8750

                     58                     59                     60
                      A                      A                      A
 Frequencies --   2970.3948              2979.0029              2992.0134
 Red. masses --      1.0800                 1.0780                 1.0679
 Frc consts  --      5.6145                 5.6363                 5.6326
 IR Inten    --      5.1590                 5.1985                18.6917

                     61                     62                     63
                      A                      A                      A
 Frequencies --   2998.9544              3002.1472              3008.4137
 Red. masses --      1.0634                 1.0666                 1.0634
 Frc consts  --      5.6350                 5.6639                 5.6705
 IR Inten    --      8.4561                23.0896                27.4763

                     64                     65                     66
                      A                      A                      A
 Frequencies --   3011.0956              3021.8888              3030.7567
 Red. masses --      1.0605                 1.0364                 1.0392
 Frc consts  --      5.6652                 5.5761                 5.6243
 IR Inten    --     68.1064                40.2628                19.4001

                     67                     68                     69
                      A                      A                      A
 Frequencies --   3038.4511              3048.4693              3050.3759
 Red. masses --      1.0985                 1.0981                 1.0928
 Frc consts  --      5.9753                 6.0125                 5.9912
 IR Inten    --      7.3285                50.5298                77.2298

                     70                     71                     72
                      A                      A                      A
 Frequencies --   3055.7275              3059.4879              3087.3472
 Red. masses --      1.0936                 1.1026                 1.1005
 Frc consts  --      6.0166                 6.0808                 6.1802
 IR Inten    --     11.9703                86.8293                48.2348

                     73                     74                     75
                      A                      A                      A
 Frequencies --   3092.9240              3095.4259              3104.8810
 Red. masses --      1.1014                 1.1006                 1.1007
 Frc consts  --      6.2076                 6.2132                 6.2516
 IR Inten    --     35.5630                41.0916                42.2579

 - Thermochemistry -
 -------------------
 Temperature   298.150 Kelvin.  Pressure   1.00000 Atm.
 Atom     1 has atomic number  6 and mass  12.00000

 Molecular mass:   126.14085 amu.
 Principal axes and moments of inertia in atomic units:
                           1         2         3
     Eigenvalues --   783.908901653.825392277.97177
           X            1.00000  -0.00001  -0.00212
           Y            0.00001   1.00000  -0.00023
           Z            0.00212   0.00023   1.00000
 This molecule is an asymmetric top.
 Rotational symmetry number  1.
 Warning -- assumption of classical behavior for rotation
           may cause significant error
 Rotational temperatures (Kelvin)      0.11049     0.05237     0.03802
 Rotational constants (GHZ):           2.30223     1.09125     0.79226
 Zero-point vibrational energy     666082.1 (Joules/Mol)
                                  159.19744 (Kcal/Mol)
 Warning -- explicit consideration of  14 degrees of freedom as
           vibrations may cause significant error
 Vibrational temperatures:    113.97   179.56   218.51   268.24   328.53
          (Kelvin)            344.45   397.88   451.95   540.83   594.96
                              609.53   647.04   661.51   768.63  1101.81
                             1136.18  1199.54  1233.57  1266.86  1291.19
                             1317.27  1379.32  1414.34  1426.58  1471.70
                             1503.83  1530.41  1546.71  1573.90  1613.62
                             1632.29  1708.07  1717.58  1781.88  1824.36
                             1856.39  1871.42  1891.53  1899.26  1925.63
                             1975.38  1977.79  1986.25  1993.45  1999.91
                             2010.94  2031.84  2033.11  2127.40  2130.77
                             2140.89  2143.49  2153.96  2158.39  2159.17
                             2162.16  2170.90  4273.74  4286.12  4304.84
                             4314.83  4319.42  4328.44  4332.30  4347.82
                             4360.58  4371.65  4386.07  4388.81  4396.51
                             4401.92  4442.00  4450.03  4453.63  4467.23

 Zero-point correction=                           0.253697 (Hartree/Particle)
 Thermal correction to Energy=                    0.263725
 Thermal correction to Enthalpy=                  0.264669
 Thermal correction to Gibbs Free Energy=         0.219122
 Sum of electronic and zero-point Energies=           -353.597903
 Sum of electronic and thermal Energies=              -353.587875
 Sum of electronic and thermal Enthalpies=            -353.586930
 Sum of electronic and thermal Free Energies=         -353.632478

                     E (Thermal)             CV                S
                      KCal/Mol        Cal/Mol-Kelvin    Cal/Mol-Kelvin
 Total                  165.490             39.203             95.863
 Electronic               0.000              0.000              0.000
 Translational            0.889              2.981             40.410
 Rotational               0.889              2.981             29.470
 Vibrational            163.713             33.241             25.983
 Vibration     1          0.600              1.963              3.910
 Vibration     2          0.610              1.928              3.025
 Vibration     3          0.619              1.901              2.649
 Vibration     4          0.632              1.858              2.263
 Vibration     5          0.651              1.798              1.892
 Vibration     6          0.657              1.780              1.807
 Vibration     7          0.678              1.717              1.555
 Vibration     8          0.702              1.647              1.341
 Vibration     9          0.747              1.521              1.056
 Vibration    10          0.777              1.441              0.914
 Vibration    11          0.786              1.419              0.880
 Vibration    12          0.809              1.362              0.797
 Vibration    13          0.818              1.339              0.767
 Vibration    14          0.889              1.174              0.578

 Optimization completed.
    -- Stationary point found.
 Normal termination of Gaussian 16 at Sun May 28 20:26:13 2023.
