 Gaussian 16, Revision A.03,
 Gaussian 16:  ES64L-G16RevA.03 25-Dec-2016

 -----------------------------
 # opt freq b3lyp/6-31g(2df,p)
 -----------------------------

 -------------------
 Title Card Required
 -------------------
 Symbolic Z-matrix:
 Charge =  0 Multiplicity = 1

 SCF Done:  E(RB3LYP) =  -775.724960517     A.U. after   14 cycles
 SCF Done:  E(RB3LYP) =  -775.756234261     A.U. after   13 cycles
 SCF Done:  E(RB3LYP) =  -775.779072142     A.U. after   12 cycles
 SCF Done:  E(RB3LYP) =  -775.788433755     A.U. after   12 cycles
 SCF Done:  E(RB3LYP) =  -775.793309392     A.U. after   12 cycles
 SCF Done:  E(RB3LYP) =  -775.795035574     A.U. after   11 cycles
 SCF Done:  E(RB3LYP) =  -775.795605553     A.U. after   12 cycles
 SCF Done:  E(RB3LYP) =  -775.796592429     A.U. after   12 cycles
 SCF Done:  E(RB3LYP) =  -775.797171226     A.U. after   12 cycles
 SCF Done:  E(RB3LYP) =  -775.797511042     A.U. after   11 cycles
 SCF Done:  E(RB3LYP) =  -775.795917083     A.U. after   15 cycles
 SCF Done:  E(RB3LYP) =  -775.798792115     A.U. after   12 cycles
 SCF Done:  E(RB3LYP) =  -775.798895170     A.U. after   12 cycles
 SCF Done:  E(RB3LYP) =  -775.798925813     A.U. after   10 cycles
 SCF Done:  E(RB3LYP) =  -775.798940198     A.U. after   10 cycles
 SCF Done:  E(RB3LYP) =  -775.798944499     A.U. after    9 cycles
 SCF Done:  E(RB3LYP) =  -775.798946251     A.U. after    8 cycles
 SCF Done:  E(RB3LYP) =  -775.798946610     A.U. after    7 cycles
 SCF Done:  E(RB3LYP) =  -775.798946717     A.U. after    7 cycles
 Optimization completed.
    -- Stationary point found.
 Normal termination of Gaussian 16 at Sun May 28 01:49:05 2023.

 ----------------------------------------------------------------------
 #N Geom=AllCheck Guess=TCheck SCRF=Check GenChk RB3LYP/6-31G(2df,p) Fr
 eq
 ----------------------------------------------------------------------

 Structure from the checkpoint file:  "CCC1CdCCCqCCCCdOrC2CqCrCqOrC12.chk"
 -------------------
 Title Card Required
 -------------------
 Charge =  0 Multiplicity = 1

                         Standard orientation:
 ---------------------------------------------------------------------
 Center     Atomic      Atomic             Coordinates (Angstroms)
 Number     Number       Type             X           Y           Z
 ---------------------------------------------------------------------
      1          6           0       -4.924080    0.366180   -0.037008
      2          6           0       -3.941168   -0.506140    0.748364
      3          6           0       -2.660937   -0.914514   -0.015154
      4          6           0       -1.900013   -1.964099    0.764424
      5          6           0       -0.825641   -2.596608    0.297329
      6          6           0       -0.202116   -2.289429   -1.041312
      7          6           0        0.565916   -0.943545   -1.050686
      8          6           0        1.640157   -0.927668    0.066080
      9          6           0        2.942710   -0.222345   -0.338584
     10          6           0        3.982333   -0.195912    0.796464
     11          6           0        5.229726    0.556654    0.397257
     12          8           0        6.345231    0.103752    0.398475
     13          6           0       -0.398166    0.284281   -1.121488
     14          6           0       -0.037490    1.573585   -0.300621
     15          6           0       -0.238333    2.882392   -1.062571
     16          6           0       -1.186856    1.214502    0.688198
     17          8           0       -1.958495    2.231381    1.286521
     18          6           0       -1.807721    0.306723   -0.391976
     19          1           0       -5.852726    0.503566    0.525517
     20          1           0       -5.183876   -0.089006   -0.999875
     21          1           0       -4.518466    1.362455   -0.235917
     22          1           0       -4.451718   -1.428560    1.052586
     23          1           0       -3.656941    0.009916    1.673281
     24          1           0       -2.983514   -1.378580   -0.962196
     25          1           0       -2.281952   -2.217078    1.751519
     26          1           0       -0.343740   -3.351681    0.913438
     27          1           0       -0.973091   -2.264484   -1.823046
     28          1           0        0.494012   -3.088485   -1.318531
     29          1           0        1.119975   -0.924819   -1.998724
     30          1           0        1.891506   -1.963235    0.326622
     31          1           0        1.245729   -0.486077    0.987733
     32          1           0        2.738956    0.803686   -0.668587
     33          1           0        3.371878   -0.738303   -1.207243
     34          1           0        4.266375   -1.206200    1.106000
     35          1           0        3.549005    0.318276    1.667173
     36          1           0        5.041989    1.609272    0.074974
     37          1           0       -0.530448    0.503496   -2.185291
     38          1           0        0.951283    1.587060    0.160112
     39          1           0       -1.198594    2.912974   -1.591610
     40          1           0        0.544375    3.016548   -1.816333
     41          1           0       -0.200365    3.741462   -0.384113
     42          1           0       -0.800814    0.618141    1.521003
     43          1           0       -2.327460    2.778318    0.585182
     44          1           0       -2.435193    0.945928   -1.025935
 ---------------------------------------------------------------------

 SCF Done:  E(RB3LYP) =  -775.798946717     A.U. after    1 cycles

 The electronic state is 1-A.
 Alpha  occ. eigenvalues --  -19.13870 -19.13728 -10.26940 -10.22460 -10.19572
 Alpha  occ. eigenvalues --  -10.19427 -10.19350 -10.19033 -10.18764 -10.18572
 Alpha  occ. eigenvalues --  -10.18526 -10.18393 -10.18368 -10.18344 -10.17800
 Alpha  occ. eigenvalues --  -10.17711 -10.17556 -10.17415  -1.04395  -1.02008
 Alpha  occ. eigenvalues --   -0.85788  -0.81424  -0.80818  -0.78538  -0.74808
 Alpha  occ. eigenvalues --   -0.72821  -0.70470  -0.67697  -0.65438  -0.63341
 Alpha  occ. eigenvalues --   -0.61235  -0.58961  -0.57545  -0.57363  -0.53301
 Alpha  occ. eigenvalues --   -0.52341  -0.49868  -0.48788  -0.47580  -0.46687
 Alpha  occ. eigenvalues --   -0.45470  -0.44675  -0.44353  -0.43616  -0.42706
 Alpha  occ. eigenvalues --   -0.42396  -0.41175  -0.40877  -0.40498  -0.39437
 Alpha  occ. eigenvalues --   -0.39023  -0.38714  -0.37571  -0.36348  -0.36265
 Alpha  occ. eigenvalues --   -0.36051  -0.35462  -0.34891  -0.34448  -0.33785
 Alpha  occ. eigenvalues --   -0.33316  -0.32941  -0.31310  -0.30309  -0.29114
 Alpha  occ. eigenvalues --   -0.27886  -0.25631  -0.24802  -0.23773
 Alpha virt. eigenvalues --   -0.01908   0.01358   0.05680   0.07015   0.07782
 Alpha virt. eigenvalues --    0.09352   0.09829   0.11286   0.11447   0.12035
 Alpha virt. eigenvalues --    0.12463   0.12980   0.13994   0.14691   0.14908

 Mulliken charges:
               1
     1  C   -0.394113
     2  C   -0.187424
     3  C   -0.078935
     4  C   -0.048671
     5  C   -0.076291
     6  C   -0.293222
     7  C   -0.005817
     8  C   -0.192936
     9  C   -0.201102
    10  C   -0.277147
    11  C    0.158937
    12  O   -0.237325
    13  C   -0.082839
    14  C   -0.037328
    15  C   -0.436286
    16  C    0.135911
    17  O   -0.442202
    18  C   -0.002259
    19  H    0.114004
    20  H    0.111000
    21  H    0.108258
    22  H    0.091904
    23  H    0.118047
    24  H    0.077610
    25  H    0.081761
    26  H    0.086582
    27  H    0.101589
    28  H    0.092948
    29  H    0.070636
    30  H    0.092841
    31  H    0.107596
    32  H    0.107219
    33  H    0.108798
    34  H    0.121148
    35  H    0.118578
    36  H    0.067371
    37  H    0.070821
    38  H    0.063830
    39  H    0.109644
    40  H    0.119582
    41  H    0.123415
    42  H    0.088541
    43  H    0.279556
    44  H    0.065768
 Sum of Mulliken charges =  -0.00000

 Dipole moment (field-independent basis, Debye):
    X=             -2.7722    Y=              0.3594    Z=             -1.4886  Tot=              3.1671
 Quadrupole moment (field-independent basis, Debye-Ang):
   XX=           -139.2012   YY=           -109.2561   ZZ=           -111.9895
   XY=              0.9146   XZ=              1.8118   YZ=             -3.4713

  Exact polarizability: 210.810  -6.975 168.054  -6.953  -4.150 140.429
 Approx polarizability: 270.910 -19.287 242.805 -10.805  -0.989 232.323

                      1                      2                      3
                      A                      A                      A
 Frequencies --     25.4306                32.6848                51.5015
 Red. masses --      4.3616                 5.5938                 3.6501
 Frc consts  --      0.0017                 0.0035                 0.0057
 IR Inten    --      0.5721                 1.3028                 4.4183

                      4                      5                      6
                      A                      A                      A
 Frequencies --     66.3383                66.9699                79.1063
 Red. masses --      2.2954                 4.3119                 3.0424
 Frc consts  --      0.0060                 0.0114                 0.0112
 IR Inten    --      2.0519                 1.6649                 0.2952

                      7                      8                      9
                      A                      A                      A
 Frequencies --    110.6251               125.6501               156.1744
 Red. masses --      2.8127                 2.1850                 3.0011
 Frc consts  --      0.0203                 0.0203                 0.0431
 IR Inten    --      0.8235                 0.6265                 0.1488

                     10                     11                     12
                      A                      A                      A
 Frequencies --    168.5945               185.7433               211.4730
 Red. masses --      2.7016                 3.1596                 2.2780
 Frc consts  --      0.0452                 0.0642                 0.0600
 IR Inten    --      0.2375                 0.0825                 0.0245

                     13                     14                     15
                      A                      A                      A
 Frequencies --    219.2371               234.3253               238.4453
 Red. masses --      1.4160                 1.5901                 1.6491
 Frc consts  --      0.0401                 0.0514                 0.0552
 IR Inten    --      1.9308                 1.0224                 0.4121

                     16                     17                     18
                      A                      A                      A
 Frequencies --    260.6311               269.2528               299.8706
 Red. masses --      2.5196                 1.9480                 2.2021
 Frc consts  --      0.1008                 0.0832                 0.1167
 IR Inten    --      0.5032                17.2187                30.4278

                     19                     20                     21
                      A                      A                      A
 Frequencies --    311.4082               323.9771               360.2503
 Red. masses --      2.5652                 2.4483                 2.4569
 Frc consts  --      0.1466                 0.1514                 0.1879
 IR Inten    --      1.7880                21.2272                43.3293

                     22                     23                     24
                      A                      A                      A
 Frequencies --    371.2943               404.0987               414.3959
 Red. masses --      3.3497                 2.8239                 3.0002
 Frc consts  --      0.2721                 0.2717                 0.3036
 IR Inten    --      1.4719                 4.0669                 4.0745

                     25                     26                     27
                      A                      A                      A
 Frequencies --    464.3239               475.2372               518.9184
 Red. masses --      2.7774                 2.7078                 2.6080
 Frc consts  --      0.3528                 0.3603                 0.4138
 IR Inten    --      5.3201                 0.9894                14.0116

                     28                     29                     30
                      A                      A                      A
 Frequencies --    550.4263               569.2662               639.2568
 Red. masses --      2.7699                 3.3193                 2.1699
 Frc consts  --      0.4944                 0.6338                 0.5225
 IR Inten    --      0.9451                 0.9211                10.1558

                     31                     32                     33
                      A                      A                      A
 Frequencies --    684.2595               718.0948               729.9413
 Red. masses --      3.4815                 2.3588                 1.3543
 Frc consts  --      0.9604                 0.7167                 0.4251
 IR Inten    --      0.6561                 1.2006                 1.2025

                     34                     35                     36
                      A                      A                      A
 Frequencies --    755.8590               790.8383               805.0245
 Red. masses --      1.5906                 2.4506                 1.5605
 Frc consts  --      0.5354                 0.9030                 0.5958
 IR Inten    --      9.4039                12.2296                 3.6911

                     37                     38                     39
                      A                      A                      A
 Frequencies --    810.9947               847.1981               869.5734
 Red. masses --      1.6187                 2.3753                 1.8772
 Frc consts  --      0.6273                 1.0045                 0.8363
 IR Inten    --     12.6279                 5.1801                 2.9427

                     40                     41                     42
                      A                      A                      A
 Frequencies --    886.4176               899.0852               906.0828
 Red. masses --      2.6054                 1.7195                 2.4626
 Frc consts  --      1.2061                 0.8189                 1.1912
 IR Inten    --      0.3222                 0.9797                 6.7372

                     43                     44                     45
                      A                      A                      A
 Frequencies --    930.2371               958.9453               984.2189
 Red. masses --      1.9879                 2.2874                 2.3722
 Frc consts  --      1.0135                 1.2393                 1.3539
 IR Inten    --      1.3106                 3.8955                 5.2166

                     46                     47                     48
                      A                      A                      A
 Frequencies --    989.2015              1001.0028              1023.9514
 Red. masses --      3.0509                 1.2840                 1.6681
 Frc consts  --      1.7589                 0.7580                 1.0305
 IR Inten    --     15.9001                 0.9642                 2.9487

                     49                     50                     51
                      A                      A                      A
 Frequencies --   1037.7994              1041.8425              1055.4254
 Red. masses --      2.1774                 2.5306                 1.6665
 Frc consts  --      1.3817                 1.6184                 1.0937
 IR Inten    --      4.0650                 1.4541                 0.6764

                     52                     53                     54
                      A                      A                      A
 Frequencies --   1058.8823              1070.5696              1077.6796
 Red. masses --      2.2308                 1.8887                 2.3263
 Frc consts  --      1.4737                 1.2754                 1.5918
 IR Inten    --      1.3640                 7.7809                 2.8024

                     55                     56                     57
                      A                      A                      A
 Frequencies --   1081.9831              1095.8025              1106.3833
 Red. masses --      2.2759                 2.5215                 1.9134
 Frc consts  --      1.5698                 1.7839                 1.3800
 IR Inten    --     23.2996                21.3380                31.6423

                     58                     59                     60
                      A                      A                      A
 Frequencies --   1131.6466              1138.3825              1152.3818
 Red. masses --      2.5252                 2.0205                 2.0034
 Frc consts  --      1.9053                 1.5427                 1.5675
 IR Inten    --     64.8196                 8.3001                 0.2032

                     61                     62                     63
                      A                      A                      A
 Frequencies --   1171.6122              1192.2056              1195.9426
 Red. masses --      1.6195                 1.4518                 1.8099
 Frc consts  --      1.3098                 1.2158                 1.5252
 IR Inten    --      7.4623                 2.7834                27.2403

                     64                     65                     66
                      A                      A                      A
 Frequencies --   1228.7272              1235.8265              1243.3548
 Red. masses --      1.2822                 1.3468                 1.3923
 Frc consts  --      1.1406                 1.2119                 1.2682
 IR Inten    --      2.3341                 0.3249                 2.6453

                     67                     68                     69
                      A                      A                      A
 Frequencies --   1252.1027              1264.2156              1276.7891
 Red. masses --      1.4308                 1.2970                 1.3277
 Frc consts  --      1.3216                 1.2214                 1.2753
 IR Inten    --      1.1233                 2.8430                 0.1224

                     70                     71                     72
                      A                      A                      A
 Frequencies --   1282.5118              1285.8587              1289.6572
 Red. masses --      1.2200                 1.3419                 1.4400
 Frc consts  --      1.1823                 1.3072                 1.4111
 IR Inten    --      0.7278                 3.6916                14.5512

                     73                     74                     75
                      A                      A                      A
 Frequencies --   1297.3003              1310.5399              1329.1420
 Red. masses --      1.3085                 1.3249                 1.1309
 Frc consts  --      1.2975                 1.3408                 1.1771
 IR Inten    --      2.1231                 2.0149                 0.7268

                     76                     77                     78
                      A                      A                      A
 Frequencies --   1342.7516              1343.7519              1352.7155
 Red. masses --      1.3333                 1.2541                 1.3660
 Frc consts  --      1.4163                 1.3342                 1.4727
 IR Inten    --      6.0483                 2.3329                 2.9586

                     79                     80                     81
                      A                      A                      A
 Frequencies --   1366.3402              1375.0291              1380.2448
 Red. masses --      1.3335                 1.3812                 1.4164
 Frc consts  --      1.4668                 1.5386                 1.5899
 IR Inten    --      2.2295                 5.7218                 3.1104

                     82                     83                     84
                      A                      A                      A
 Frequencies --   1384.3999              1395.9162              1405.7200
 Red. masses --      1.4238                 1.3455                 1.3754
 Frc consts  --      1.6078                 1.5447                 1.6014
 IR Inten    --      0.9990                 6.4946                 6.6384

                     85                     86                     87
                      A                      A                      A
 Frequencies --   1407.6287              1412.0443              1430.3861
 Red. masses --      1.2464                 1.2671                 1.3192
 Frc consts  --      1.4551                 1.4885                 1.5903
 IR Inten    --      9.5657                 2.9526                 9.0569

                     88                     89                     90
                      A                      A                      A
 Frequencies --   1431.1575              1438.9782              1464.2858
 Red. masses --      1.2802                 1.3457                 1.0886
 Frc consts  --      1.5449                 1.6417                 1.3752
 IR Inten    --     10.2796                24.6441                 2.5623

                     91                     92                     93
                      A                      A                      A
 Frequencies --   1484.6371              1485.2594              1493.1506
 Red. masses --      1.0825                 1.0658                 1.0931
 Frc consts  --      1.4058                 1.3852                 1.4358
 IR Inten    --      4.3219                 1.9026                 3.0349

                     94                     95                     96
                      A                      A                      A
 Frequencies --   1497.8108              1498.8263              1502.5964
 Red. masses --      1.0536                 1.0469                 1.0514
 Frc consts  --      1.3926                 1.3857                 1.3987
 IR Inten    --      3.5397                 5.3874                 4.7504

                     97                     98                     99
                      A                      A                      A
 Frequencies --   1505.0296              1506.9781              1722.7162
 Red. masses --      1.0929                 1.0534                 7.1513
 Frc consts  --      1.4585                 1.4094                12.5045
 IR Inten    --      3.3030                 4.4953                 0.3429

                    100                    101                    102
                      A                      A                      A
 Frequencies --   1836.1975              2842.7329              2955.4530
 Red. masses --     10.0932                 1.0812                 1.0807
 Frc consts  --     20.0502                 5.1480                 5.5614
 IR Inten    --    221.2700               104.7389                25.0126

                    103                    104                    105
                      A                      A                      A
 Frequencies --   2993.6856              3007.5042              3012.0556
 Red. masses --      1.0812                 1.0649                 1.0764
 Frc consts  --      5.7089                 5.6750                 5.7536
 IR Inten    --     12.5553                 4.8844                 9.9988

                    106                    107                    108
                      A                      A                      A
 Frequencies --   3015.4037              3021.4313              3021.7824
 Red. masses --      1.0673                 1.0584                 1.0614
 Frc consts  --      5.7176                 5.6930                 5.7101
 IR Inten    --     23.5966                11.0149                26.6446

                    109                    110                    111
                      A                      A                      A
 Frequencies --   3023.0253              3029.3606              3031.7712
 Red. masses --      1.0416                 1.0679                 1.0390
 Frc consts  --      5.6082                 5.7743                 5.6268
 IR Inten    --     24.0687                33.1145                29.2552

                    112                    113                    114
                      A                      A                      A
 Frequencies --   3046.8126              3051.9447              3061.2050
 Red. masses --      1.0859                 1.0930                 1.0913
 Frc consts  --      5.9393                 5.9980                 6.0255
 IR Inten    --     45.8278                 8.8990                16.7750

                    115                    116                    117
                      A                      A                      A
 Frequencies --   3061.7776              3062.9866              3072.9115
 Red. masses --      1.0980                 1.0930                 1.0987
 Frc consts  --      6.0645                 6.0418                 6.1128
 IR Inten    --     22.7450                24.1044                47.2786

                    118                    119                    120
                      A                      A                      A
 Frequencies --   3078.4459              3095.8803              3097.2999
 Red. masses --      1.0945                 1.0971                 1.1001
 Frc consts  --      6.1113                 6.1952                 6.2180
 IR Inten    --      6.6879                36.5164                23.9625

                    121                    122                    123
                      A                      A                      A
 Frequencies --   3097.8922              3100.6581              3106.9586
 Red. masses --      1.1013                 1.0907                 1.1004
 Frc consts  --      6.2270                 6.1782                 6.2587
 IR Inten    --     32.0192                65.5679                42.6850

                    124                    125                    126
                      A                      A                      A
 Frequencies --   3135.0838              3161.7229              3812.1002
 Red. masses --      1.0835                 1.0964                 1.0656
 Frc consts  --      6.2744                 6.4574                 9.1235
 IR Inten    --      7.1643                31.2822                13.6583

 - Thermochemistry -
 -------------------
 Temperature   298.150 Kelvin.  Pressure   1.00000 Atm.
 Atom     1 has atomic number  6 and mass  12.00000

 Molecular mass:   250.19328 amu.
 Principal axes and moments of inertia in atomic units:
                           1         2         3
     Eigenvalues --  2535.326428654.75615**********
           X            1.00000  -0.00208  -0.00034
           Y            0.00208   0.99972  -0.02350
           Z            0.00039   0.02350   0.99972
 This molecule is an asymmetric top.
 Rotational symmetry number  1.
 Warning -- assumption of classical behavior for rotation
           may cause significant error
 Rotational temperatures (Kelvin)      0.03416     0.01001     0.00861
 Rotational constants (GHZ):           0.71184     0.20853     0.17949
 Zero-point vibrational energy    1029762.4 (Joules/Mol)
                                  246.11913 (Kcal/Mol)
 Warning -- explicit consideration of  29 degrees of freedom as
           vibrations may cause significant error
 Vibrational temperatures:     36.59    47.03    74.10    95.45    96.35
          (Kelvin)            113.82   159.16   180.78   224.70   242.57
                              267.24   304.26   315.43   337.14   343.07
                              374.99   387.39   431.45   448.05   466.13
                              518.32   534.21   581.41   596.22   668.06
                              683.76   746.61   791.94   819.05   919.75
                              984.50  1033.18  1050.22  1087.51  1137.84
                             1158.25  1166.84  1218.93  1251.12  1275.36
                             1293.58  1303.65  1338.40  1379.71  1416.07
                             1423.24  1440.22  1473.24  1493.16  1498.98
                             1518.52  1523.50  1540.31  1550.54  1556.73
                             1576.62  1591.84  1628.19  1637.88  1658.02
                             1685.69  1715.32  1720.69  1767.86  1778.08
                             1788.91  1801.50  1818.92  1837.01  1845.25
                             1850.06  1855.53  1866.53  1885.57  1912.34
                             1931.92  1933.36  1946.26  1965.86  1978.36
                             1985.86  1991.84  2008.41  2022.52  2025.26
                             2031.62  2058.01  2059.12  2070.37  2106.78
                             2136.06  2136.96  2148.31  2155.02  2156.48
                             2161.90  2165.40  2168.21  2478.60  2641.88
                             4090.06  4252.24  4307.25  4327.13  4333.68
                             4338.49  4347.17  4347.67  4349.46  4358.57
                             4362.04  4383.68  4391.07  4404.39  4405.22
                             4406.95  4421.23  4429.20  4454.28  4456.32
                             4457.18  4461.16  4470.22  4510.69  4549.01
                             5484.76

 Zero-point correction=                           0.392216 (Hartree/Particle)
 Thermal correction to Energy=                    0.411840
 Thermal correction to Enthalpy=                  0.412784
 Thermal correction to Gibbs Free Energy=         0.343357
 Sum of electronic and zero-point Energies=           -775.406731
 Sum of electronic and thermal Energies=              -775.387107
 Sum of electronic and thermal Enthalpies=            -775.386162
 Sum of electronic and thermal Free Energies=         -775.455590

                     E (Thermal)             CV                S
                      KCal/Mol        Cal/Mol-Kelvin    Cal/Mol-Kelvin
 Total                  258.434             74.463            146.122
 Electronic               0.000              0.000              0.000
 Translational            0.889              2.981             42.452
 Rotational               0.889              2.981             33.756
 Vibrational            256.656             68.501             69.915
 Vibration     1          0.593              1.985              6.157
 Vibration     2          0.594              1.983              5.659
 Vibration     3          0.596              1.977              4.759
 Vibration     4          0.598              1.970              4.259
 Vibration     5          0.598              1.970              4.240
 Vibration     6          0.600              1.963              3.913
 Vibration     7          0.606              1.941              3.258
 Vibration     8          0.611              1.927              3.012
 Vibration     9          0.620              1.896              2.596
 Vibration    10          0.625              1.881              2.451
 Vibration    11          0.632              1.859              2.270
 Vibration    12          0.643              1.823              2.031
 Vibration    13          0.647              1.812              1.965
 Vibration    14          0.654              1.788              1.846
 Vibration    15          0.656              1.782              1.814
 Vibration    16          0.669              1.745              1.658
 Vibration    17          0.674              1.730              1.601
 Vibration    18          0.692              1.674              1.418
 Vibration    19          0.700              1.652              1.355
 Vibration    20          0.709              1.627              1.290
 Vibration    21          0.735              1.554              1.121
 Vibration    22          0.743              1.531              1.074
 Vibration    23          0.769              1.461              0.948
 Vibration    24          0.778              1.439              0.911
 Vibration    25          0.822              1.329              0.754
 Vibration    26          0.832              1.305              0.723
 Vibration    27          0.874              1.208              0.612
 Vibration    28          0.906              1.139              0.543
 Vibration    29          0.925              1.098              0.506

                           ! Non-Optimized Parameters !
 Normal termination of Gaussian 16 at Sun May 28 07:54:48 2023.
