 Gaussian 16, Revision A.03,
 Gaussian 16:  ES64L-G16RevA.03 25-Dec-2016

 -----------------------------
 # opt freq b3lyp/6-31g(2df,p)
 -----------------------------

 -------------------
 Title Card Required
 -------------------
 Symbolic Z-matrix:
 Charge =  0 Multiplicity = 1

 SCF Done:  E(RB3LYP) =  -807.665546117     A.U. after   18 cycles
 SCF Done:  E(RB3LYP) =  -807.690598121     A.U. after   15 cycles
 SCF Done:  E(RB3LYP) =  -807.708345382     A.U. after   15 cycles
 SCF Done:  E(RB3LYP) =  -807.720206110     A.U. after   14 cycles
 SCF Done:  E(RB3LYP) =  -807.727675332     A.U. after   14 cycles
 SCF Done:  E(RB3LYP) =  -807.730459364     A.U. after   14 cycles
 SCF Done:  E(RB3LYP) =  -807.731283129     A.U. after   12 cycles
 SCF Done:  E(RB3LYP) =  -807.731672395     A.U. after   13 cycles
 SCF Done:  E(RB3LYP) =  -807.732144357     A.U. after   14 cycles
 SCF Done:  E(RB3LYP) =  -807.732686745     A.U. after   15 cycles
 SCF Done:  E(RB3LYP) =  -807.736707235     A.U. after   10 cycles
 SCF Done:  E(RB3LYP) =  -807.736677062     A.U. after   12 cycles
 SCF Done:  E(RB3LYP) =  -807.736735001     A.U. after   11 cycles
 SCF Done:  E(RB3LYP) =  -807.736736015     A.U. after   10 cycles
 SCF Done:  E(RB3LYP) =  -807.736738549     A.U. after    9 cycles
 SCF Done:  E(RB3LYP) =  -807.736738997     A.U. after    7 cycles
 SCF Done:  E(RB3LYP) =  -807.736739094     A.U. after    7 cycles
 SCF Done:  E(RB3LYP) =  -807.736739162     A.U. after    7 cycles
 SCF Done:  E(RB3LYP) =  -807.736739187     A.U. after    6 cycles
 Optimization completed.
    -- Stationary point found.
 Normal termination of Gaussian 16 at Sun May 28 06:08:43 2023.

 ----------------------------------------------------------------------
 #N Geom=AllCheck Guess=TCheck SCRF=Check GenChk RB3LYP/6-31G(2df,p) Fr
 eq
 ----------------------------------------------------------------------

 Structure from the checkpoint file:  "CCC1dCdCNdCqCqCCCCqCrNrCOOrC1.chk"
 -------------------
 Title Card Required
 -------------------
 Charge =  0 Multiplicity = 1

                         Standard orientation:
 ---------------------------------------------------------------------
 Center     Atomic      Atomic             Coordinates (Angstroms)
 Number     Number       Type             X           Y           Z
 ---------------------------------------------------------------------
      1          6           0        1.891054    4.208996    0.045909
      2          6           0        1.142213    3.301866   -0.931203
      3          6           0       -0.242232    2.928420   -0.487262
      4          6           0       -0.851483    3.305763    0.640735
      5          6           0       -1.645608    2.572273    1.405372
      6          7           0       -1.608608    1.136637    1.219884
      7          6           0       -1.379604    0.785477    0.011043
      8          6           0       -1.558180   -0.671509   -0.377008
      9          6           0       -0.452316   -1.561165    0.236084
     10          6           0        0.962062   -1.250251   -0.266090
     11          6           0        2.009995   -2.199235    0.326116
     12          6           0        3.437926   -2.013748   -0.208190
     13          6           0        4.030559   -0.637735    0.134869
     14          7           0        4.254104   -3.140234    0.273090
     15          6           0       -2.957139   -1.140830    0.050501
     16          8           0       -3.140566   -2.431433   -0.517050
     17          8           0       -4.478944   -2.854380   -0.183179
     18          6           0       -0.983925    1.785798   -1.126783
     19          1           0        2.879242    4.469680   -0.343623
     20          1           0        2.023357    3.717741    1.014180
     21          1           0        1.334094    5.134008    0.221971
     22          1           0        1.712879    2.377047   -1.105090
     23          1           0        1.082901    3.780913   -1.920822
     24          1           0       -2.405454    2.911949    2.099378
     25          1           0       -1.505121   -0.752714   -1.469753
     26          1           0       -0.698661   -2.604653    0.013486
     27          1           0       -0.491916   -1.443627    1.325650
     28          1           0        1.215987   -0.212052   -0.019270
     29          1           0        0.985403   -1.324871   -1.362872
     30          1           0        1.717313   -3.236726    0.127671
     31          1           0        2.022709   -2.086772    1.420746
     32          1           0        3.400743   -2.108090   -1.302997
     33          1           0        4.057081   -0.488111    1.221392
     34          1           0        3.455226    0.185210   -0.302822
     35          1           0        5.056777   -0.556072   -0.239777
     36          1           0        4.321988   -3.092627    1.288046
     37          1           0        5.207043   -3.039914   -0.067702
     38          1           0       -3.730363   -0.459505   -0.325759
     39          1           0       -3.030726   -1.177221    1.143994
     40          1           0       -4.298155   -3.494648    0.520494
     41          1           0       -1.925664    2.048132   -1.631948
     42          1           0       -0.369008    1.279867   -1.878120
 ---------------------------------------------------------------------

 SCF Done:  E(RB3LYP) =  -807.736739187     A.U. after    1 cycles

 The electronic state is 1-A.
 Alpha  occ. eigenvalues --  -19.19069 -19.18845 -14.32719 -14.30458 -10.24097
 Alpha  occ. eigenvalues --  -10.22898 -10.21261 -10.20956 -10.20938 -10.20603
 Alpha  occ. eigenvalues --  -10.20316 -10.19508 -10.18391 -10.18346 -10.17653
 Alpha  occ. eigenvalues --  -10.17536 -10.17438 -10.16500  -1.11420  -0.93940
 Alpha  occ. eigenvalues --   -0.90962  -0.88209  -0.82238  -0.81019  -0.77273
 Alpha  occ. eigenvalues --   -0.75119  -0.73454  -0.71424  -0.67388  -0.65005
 Alpha  occ. eigenvalues --   -0.62500  -0.61666  -0.59873  -0.56941  -0.54273
 Alpha  occ. eigenvalues --   -0.52607  -0.49711  -0.48712  -0.47464  -0.47023
 Alpha  occ. eigenvalues --   -0.46401  -0.46136  -0.44954  -0.44628  -0.44371
 Alpha  occ. eigenvalues --   -0.43498  -0.42601  -0.41966  -0.40974  -0.40510
 Alpha  occ. eigenvalues --   -0.39230  -0.38511  -0.37602  -0.36359  -0.35918
 Alpha  occ. eigenvalues --   -0.35637  -0.35187  -0.34727  -0.33943  -0.33594
 Alpha  occ. eigenvalues --   -0.32873  -0.32536  -0.31463  -0.29050  -0.27006
 Alpha  occ. eigenvalues --   -0.26021  -0.25262  -0.23529  -0.20490
 Alpha virt. eigenvalues --   -0.07171  -0.00014   0.03883   0.05860   0.07117
 Alpha virt. eigenvalues --    0.08235   0.08303   0.09846   0.11095   0.11177
 Alpha virt. eigenvalues --    0.12474   0.12794   0.13251   0.14291   0.14755

 Mulliken charges:
               1
     1  C   -0.378281
     2  C   -0.281881
     3  C    0.232168
     4  C   -0.108266
     5  C   -0.077696
     6  N   -0.263330
     7  C    0.314338
     8  C   -0.133303
     9  C   -0.179923
    10  C   -0.212353
    11  C   -0.158789
    12  C    0.036582
    13  C   -0.390130
    14  N   -0.512045
    15  C   -0.020652
    16  O   -0.200088
    17  O   -0.317578
    18  C   -0.411368
    19  H    0.109453
    20  H    0.127651
    21  H    0.130678
    22  H    0.116229
    23  H    0.114486
    24  H    0.114511
    25  H    0.090367
    26  H    0.113729
    27  H    0.115025
    28  H    0.103086
    29  H    0.091414
    30  H    0.108621
    31  H    0.087195
    32  H    0.077045
    33  H    0.108806
    34  H    0.114493
    35  H    0.104763
    36  H    0.217208
    37  H    0.219524
    38  H    0.102052
    39  H    0.111534
    40  H    0.310692
    41  H    0.148237
    42  H    0.125796
 Sum of Mulliken charges =  -0.00000

 Dipole moment (field-independent basis, Debye):
    X=              1.8469    Y=              0.4244    Z=             -0.3677  Tot=              1.9304
 Quadrupole moment (field-independent basis, Debye-Ang):
   XX=           -107.2652   YY=           -117.8589   ZZ=           -108.3018
   XY=              2.1745   XZ=             -3.2484   YZ=            -10.2315

  Exact polarizability: 190.209  15.866 192.124 -14.683   2.284 146.594
 Approx polarizability: 251.119  19.576 269.871 -34.135  12.402 266.732

                      1                      2                      3
                      A                      A                      A
 Frequencies --     16.8597                24.8871                28.1321
 Red. masses --      4.3651                 3.3472                 3.2031
 Frc consts  --      0.0007                 0.0012                 0.0015
 IR Inten    --      1.1205                 0.4811                 0.7088

                      4                      5                      6
                      A                      A                      A
 Frequencies --     52.4510                56.0235                68.5117
 Red. masses --      2.8440                 4.4994                 3.7056
 Frc consts  --      0.0046                 0.0083                 0.0102
 IR Inten    --      0.2463                 1.1375                 0.1451

                      7                      8                      9
                      A                      A                      A
 Frequencies --     94.2079                99.9878               104.3689
 Red. masses --      2.8572                 3.2452                 3.5000
 Frc consts  --      0.0149                 0.0191                 0.0225
 IR Inten    --      7.9966                 2.8508                 4.8322

                     10                     11                     12
                      A                      A                      A
 Frequencies --    117.4915               126.9994               154.1329
 Red. masses --      2.3832                 1.7537                 3.7419
 Frc consts  --      0.0194                 0.0167                 0.0524
 IR Inten    --      1.3380                 0.6377                 1.1309

                     13                     14                     15
                      A                      A                      A
 Frequencies --    193.3913               213.2995               220.5711
 Red. masses --      2.3835                 2.4072                 1.2665
 Frc consts  --      0.0525                 0.0645                 0.0363
 IR Inten    --      1.1758                 8.9651                 0.5869

                     16                     17                     18
                      A                      A                      A
 Frequencies --    230.7331               237.5274               251.8094
 Red. masses --      2.5359                 1.3431                 1.0741
 Frc consts  --      0.0795                 0.0446                 0.0401
 IR Inten    --     16.7302                62.7214                20.1463

                     19                     20                     21
                      A                      A                      A
 Frequencies --    261.0234               271.2071               291.8008
 Red. masses --      1.4315                 3.2598                 4.9293
 Frc consts  --      0.0575                 0.1413                 0.2473
 IR Inten    --     19.0762                 6.9838                 1.4023

                     22                     23                     24
                      A                      A                      A
 Frequencies --    312.0750               353.9323               400.0625
 Red. masses --      2.2972                 3.1062                 3.0028
 Frc consts  --      0.1318                 0.2293                 0.2832
 IR Inten    --      1.1146                 1.5551                14.0200

                     25                     26                     27
                      A                      A                      A
 Frequencies --    407.5137               430.4804               452.5903
 Red. masses --      3.8558                 2.4388                 2.8353
 Frc consts  --      0.3773                 0.2663                 0.3422
 IR Inten    --     10.0706                 4.5009                 9.8070

                     28                     29                     30
                      A                      A                      A
 Frequencies --    475.2516               494.9112               536.9244
 Red. masses --      2.6332                 2.6935                 3.3899
 Frc consts  --      0.3504                 0.3887                 0.5758
 IR Inten    --     10.6160                 9.3007                11.0830

                     31                     32                     33
                      A                      A                      A
 Frequencies --    570.5769               582.7829               617.0109
 Red. masses --      3.9500                 3.2710                 4.2769
 Frc consts  --      0.7577                 0.6546                 0.9593
 IR Inten    --     45.2237                 0.5704                13.9334

                     34                     35                     36
                      A                      A                      A
 Frequencies --    717.7374               759.2485               768.3829
 Red. masses --      2.0856                 1.4644                 2.4873
 Frc consts  --      0.6330                 0.4974                 0.8652
 IR Inten    --     16.5779                 5.9041                 7.5649

                     37                     38                     39
                      A                      A                      A
 Frequencies --    775.4296               822.5604               833.4586
 Red. masses --      1.3405                 2.4987                 3.4425
 Frc consts  --      0.4749                 0.9961                 1.4089
 IR Inten    --      1.6683                 6.1340                14.0537

                     40                     41                     42
                      A                      A                      A
 Frequencies --    853.5425               863.6134               895.3303
 Red. masses --      2.0926                 1.5571                 1.8456
 Frc consts  --      0.8982                 0.6842                 0.8717
 IR Inten    --     10.1791                28.1786                70.3088

                     43                     44                     45
                      A                      A                      A
 Frequencies --    904.7111               919.0914               950.1753
 Red. masses --      1.7262                 1.9076                 3.8834
 Frc consts  --      0.8324                 0.9494                 2.0657
 IR Inten    --     55.7753                27.4256                10.3970

                     46                     47                     48
                      A                      A                      A
 Frequencies --    959.6981               981.6112               992.0143
 Red. masses --      2.0077                 2.0321                 1.8315
 Frc consts  --      1.0895                 1.1537                 1.0620
 IR Inten    --      4.5642                16.0263                 1.3058

                     49                     50                     51
                      A                      A                      A
 Frequencies --   1003.1007              1020.5445              1030.4479
 Red. masses --      3.1815                 2.0507                 3.0360
 Frc consts  --      1.8861                 1.2584                 1.8993
 IR Inten    --     10.8915                 3.8621                 6.0335

                     52                     53                     54
                      A                      A                      A
 Frequencies --   1050.0604              1065.8629              1067.0485
 Red. masses --      2.4748                 2.4088                 2.0468
 Frc consts  --      1.6078                 1.6123                 1.3731
 IR Inten    --     19.6411                 0.6640                 5.3095

                     55                     56                     57
                      A                      A                      A
 Frequencies --   1073.8974              1085.7537              1110.8002
 Red. masses --      1.7319                 2.1792                 3.5004
 Frc consts  --      1.1768                 1.5136                 2.5447
 IR Inten    --      2.4673                 8.5341                 3.0945

                     58                     59                     60
                      A                      A                      A
 Frequencies --   1123.7107              1132.6631              1154.7395
 Red. masses --      1.8441                 1.7492                 1.5547
 Frc consts  --      1.3720                 1.3221                 1.2214
 IR Inten    --      8.3122                18.1531                 5.7473

                     61                     62                     63
                      A                      A                      A
 Frequencies --   1163.5419              1174.8069              1184.9784
 Red. masses --      2.2693                 1.8575                 1.8264
 Frc consts  --      1.8101                 1.5105                 1.5110
 IR Inten    --     24.0060                11.0140                 3.1812

                     64                     65                     66
                      A                      A                      A
 Frequencies --   1229.8914              1242.2516              1243.3502
 Red. masses --      1.2181                 1.4689                 1.4490
 Frc consts  --      1.0856                 1.3356                 1.3198
 IR Inten    --      5.3160                 6.5091                11.2311

                     67                     68                     69
                      A                      A                      A
 Frequencies --   1279.1128              1286.8848              1293.3763
 Red. masses --      1.1869                 1.3243                 1.3525
 Frc consts  --      1.1441                 1.2922                 1.3331
 IR Inten    --      0.4655                 2.1893                21.4820

                     70                     71                     72
                      A                      A                      A
 Frequencies --   1302.5047              1331.1608              1333.8268
 Red. masses --      1.2886                 1.2220                 1.1493
 Frc consts  --      1.2881                 1.2758                 1.2048
 IR Inten    --      6.1708                 2.2071                 1.9955

                     73                     74                     75
                      A                      A                      A
 Frequencies --   1356.6472              1363.7906              1367.7505
 Red. masses --      1.3467                 1.3685                 1.7385
 Frc consts  --      1.4604                 1.4997                 1.9162
 IR Inten    --      6.8351                15.6976                 0.2649

                     76                     77                     78
                      A                      A                      A
 Frequencies --   1374.2613              1388.6515              1394.4775
 Red. masses --      1.3031                 1.1503                 1.4694
 Frc consts  --      1.4500                 1.3069                 1.6835
 IR Inten    --      2.0199                49.4256                 7.1735

                     79                     80                     81
                      A                      A                      A
 Frequencies --   1397.6868              1403.6702              1408.1294
 Red. masses --      1.4315                 1.2939                 1.4084
 Frc consts  --      1.6476                 1.5021                 1.6454
 IR Inten    --      5.2197                 7.8330                20.7074

                     82                     83                     84
                      A                      A                      A
 Frequencies --   1411.9540              1417.7061              1445.3175
 Red. masses --      1.3732                 1.3292                 1.4311
 Frc consts  --      1.6129                 1.5741                 1.7614
 IR Inten    --      5.9948                 9.2309                 5.1815

                     85                     86                     87
                      A                      A                      A
 Frequencies --   1471.6452              1480.3907              1485.3710
 Red. masses --      1.3298                 1.0736                 1.0866
 Frc consts  --      1.6968                 1.3863                 1.4125
 IR Inten    --      4.7341                 0.5174                 2.4203

                     88                     89                     90
                      A                      A                      A
 Frequencies --   1492.1748              1494.8064              1498.0326
 Red. masses --      1.0414                 1.0710                 1.0580
 Frc consts  --      1.3662                 1.4100                 1.3989
 IR Inten    --      6.4139                 0.6702                 4.4813

                     91                     92                     93
                      A                      A                      A
 Frequencies --   1501.6050              1506.8021              1519.7167
 Red. masses --      1.0619                 1.0948                 1.0844
 Frc consts  --      1.4107                 1.4645                 1.4756
 IR Inten    --      5.1057                 3.1879                 7.1890

                     94                     95                     96
                      A                      A                      A
 Frequencies --   1632.1713              1657.9429              1803.2770
 Red. masses --      7.6568                 1.0907                 9.9960
 Frc consts  --     12.0180                 1.7664                19.1514
 IR Inten    --     22.7705                21.4448                33.6880

                     97                     98                     99
                      A                      A                      A
 Frequencies --   2988.7191              2994.0971              3000.5490
 Red. masses --      1.0610                 1.0711                 1.0692
 Frc consts  --      5.5841                 5.6575                 5.6719
 IR Inten    --     20.3367                 1.9338                 2.8590

                    100                    101                    102
                      A                      A                      A
 Frequencies --   3004.8376              3008.6726              3010.7374
 Red. masses --      1.0701                 1.0946                 1.0701
 Frc consts  --      5.6928                 5.8380                 5.7152
 IR Inten    --      8.7609                23.9222                50.4666

                    103                    104                    105
                      A                      A                      A
 Frequencies --   3018.9683              3019.1042              3029.6157
 Red. masses --      1.0523                 1.0400                 1.0775
 Frc consts  --      5.6509                 5.5854                 5.8270
 IR Inten    --     14.6349                26.2852                 7.4507

                    106                    107                    108
                      A                      A                      A
 Frequencies --   3039.1580              3041.8074              3043.7968
 Red. masses --      1.0661                 1.0920                 1.0349
 Frc consts  --      5.8015                 5.9529                 5.6490
 IR Inten    --     22.4046                 7.4513                18.6258

                    109                    110                    111
                      A                      A                      A
 Frequencies --   3066.3431              3068.5688              3079.2983
 Red. masses --      1.0996                 1.1055                 1.0913
 Frc consts  --      6.0918                 6.1330                 6.0965
 IR Inten    --     30.1274                29.1188                 8.2173

                    112                    113                    114
                      A                      A                      A
 Frequencies --   3088.4383              3089.1126              3093.3935
 Red. masses --      1.1010                 1.1032                 1.1005
 Frc consts  --      6.1873                 6.2028                 6.2043
 IR Inten    --     29.2775                48.5818                58.3174

                    115                    116                    117
                      A                      A                      A
 Frequencies --   3115.0281              3115.6293              3194.9342
 Red. masses --      1.1015                 1.1022                 1.0917
 Frc consts  --      6.2975                 6.3036                 6.5657
 IR Inten    --     21.5084                27.8433                17.1229

                    118                    119                    120
                      A                      A                      A
 Frequencies --   3465.0232              3542.9690              3742.6526
 Red. masses --      1.0494                 1.0910                 1.0687
 Frc consts  --      7.4234                 8.0690                 8.8200
 IR Inten    --      1.6485                 0.5852                29.5376

 - Thermochemistry -
 -------------------
 Temperature   298.150 Kelvin.  Pressure   1.00000 Atm.
 Atom     1 has atomic number  6 and mass  12.00000

 Molecular mass:   252.18378 amu.
 Principal axes and moments of inertia in atomic units:
                           1         2         3
     Eigenvalues --  5513.859726247.60507**********
           X            0.99983  -0.01830  -0.00108
           Y            0.01829   0.99978  -0.00998
           Z            0.00126   0.00996   0.99995
 This molecule is an asymmetric top.
 Rotational symmetry number  1.
 Warning -- assumption of classical behavior for rotation
           may cause significant error
 Rotational temperatures (Kelvin)      0.01571     0.01386     0.00795
 Rotational constants (GHZ):           0.32731     0.28887     0.16555
 Zero-point vibrational energy     956210.3 (Joules/Mol)
                                  228.53975 (Kcal/Mol)
 Warning -- explicit consideration of  33 degrees of freedom as
           vibrations may cause significant error
 Vibrational temperatures:     24.26    35.81    40.48    75.47    80.61
          (Kelvin)             98.57   135.54   143.86   150.16   169.04
                              182.72   221.76   278.25   306.89   317.35
                              331.97   341.75   362.30   375.55   390.21
                              419.84   449.01   509.23   575.60   586.32
                              619.37   651.18   683.78   712.07   772.51
                              820.93   838.49   887.74  1032.66  1092.39
                             1105.53  1115.67  1183.48  1199.16  1228.06
                             1242.55  1288.18  1301.68  1322.37  1367.09
                             1380.79  1412.32  1427.29  1443.24  1468.34
                             1482.58  1510.80  1533.54  1535.24  1545.10
                             1562.16  1598.19  1616.77  1629.65  1661.41
                             1674.08  1690.29  1704.92  1769.54  1787.32
                             1788.90  1840.36  1851.54  1860.88  1874.01
                             1915.24  1919.08  1951.91  1962.19  1967.89
                             1977.26  1997.96  2006.34  2010.96  2019.57
                             2025.98  2031.49  2039.76  2079.49  2117.37
                             2129.95  2137.12  2146.91  2150.69  2155.33
                             2160.47  2167.95  2186.53  2348.33  2385.41
                             2594.51  4300.10  4307.84  4317.12  4323.29
                             4328.81  4331.78  4343.62  4343.82  4358.94
                             4372.67  4376.48  4379.34  4411.78  4414.99
                             4430.42  4443.57  4444.54  4450.70  4481.83
                             4482.70  4596.80  4985.40  5097.54  5384.84

 Zero-point correction=                           0.364201 (Hartree/Particle)
 Thermal correction to Energy=                    0.385576
 Thermal correction to Enthalpy=                  0.386520
 Thermal correction to Gibbs Free Energy=         0.311279
 Sum of electronic and zero-point Energies=           -807.372538
 Sum of electronic and thermal Energies=              -807.351163
 Sum of electronic and thermal Enthalpies=            -807.350219
 Sum of electronic and thermal Free Energies=         -807.425460

                     E (Thermal)             CV                S
                      KCal/Mol        Cal/Mol-Kelvin    Cal/Mol-Kelvin
 Total                  241.953             77.402            158.359
 Electronic               0.000              0.000              0.000
 Translational            0.889              2.981             42.475
 Rotational               0.889              2.981             34.284
 Vibrational            240.175             71.441             81.599
 Vibration     1          0.593              1.986              6.973
 Vibration     2          0.593              1.985              6.200
 Vibration     3          0.593              1.984              5.957
 Vibration     4          0.596              1.977              4.723
 Vibration     5          0.596              1.975              4.593
 Vibration     6          0.598              1.969              4.196
 Vibration     7          0.603              1.953              3.571
 Vibration     8          0.604              1.949              3.455
 Vibration     9          0.605              1.946              3.371
 Vibration    10          0.608              1.935              3.141
 Vibration    11          0.611              1.926              2.991
 Vibration    12          0.620              1.898              2.621
 Vibration    13          0.635              1.849              2.195
 Vibration    14          0.644              1.821              2.015
 Vibration    15          0.647              1.810              1.954
 Vibration    16          0.652              1.794              1.873
 Vibration    17          0.656              1.783              1.821
 Vibration    18          0.664              1.760              1.718
 Vibration    19          0.669              1.744              1.655
 Vibration    20          0.675              1.726              1.589
 Vibration    21          0.687              1.689              1.463
 Vibration    22          0.700              1.651              1.351
 Vibration    23          0.730              1.567              1.149
 Vibration    24          0.766              1.470              0.962
 Vibration    25          0.772              1.454              0.935
 Vibration    26          0.792              1.404              0.857
 Vibration    27          0.811              1.355              0.788
 Vibration    28          0.832              1.305              0.723
 Vibration    29          0.851              1.261              0.671
 Vibration    30          0.892              1.168              0.572
 Vibration    31          0.927              1.095              0.503
 Vibration    32          0.940              1.069              0.480
 Vibration    33          0.977              0.996              0.421

                           ! Non-Optimized Parameters !
 Normal termination of Gaussian 16 at Sun May 28 10:55:40 2023.
