 Gaussian 16, Revision A.03,
 Gaussian 16:  ES64L-G16RevA.03 25-Dec-2016

 -----------------------------
 # opt freq b3lyp/6-31g(2df,p)
 -----------------------------

 -------------------
 Title Card Required
 -------------------
 Symbolic Z-matrix:
 Charge =  0 Multiplicity = 1

 SCF Done:  E(RB3LYP) =  -353.836448053     A.U. after   12 cycles
 SCF Done:  E(RB3LYP) =  -353.838896803     A.U. after   10 cycles
 SCF Done:  E(RB3LYP) =  -353.839275146     A.U. after    9 cycles
 SCF Done:  E(RB3LYP) =  -353.839439782     A.U. after    9 cycles
 SCF Done:  E(RB3LYP) =  -353.839464510     A.U. after    9 cycles
 SCF Done:  E(RB3LYP) =  -353.839478633     A.U. after    7 cycles
 SCF Done:  E(RB3LYP) =  -353.839584570     A.U. after    8 cycles
 SCF Done:  E(RB3LYP) =  -353.840046796     A.U. after   10 cycles
 SCF Done:  E(RB3LYP) =  -353.837514620     A.U. after   11 cycles
 SCF Done:  E(RB3LYP) =  -353.840702968     A.U. after   10 cycles
 SCF Done:  E(RB3LYP) =  -353.842191045     A.U. after   10 cycles
 SCF Done:  E(RB3LYP) =  -353.842085879     A.U. after    9 cycles
 SCF Done:  E(RB3LYP) =  -353.842271790     A.U. after   10 cycles
 SCF Done:  E(RB3LYP) =  -353.842309057     A.U. after    9 cycles
 SCF Done:  E(RB3LYP) =  -353.842316841     A.U. after    8 cycles
 SCF Done:  E(RB3LYP) =  -353.842321530     A.U. after    9 cycles
 SCF Done:  E(RB3LYP) =  -353.842322264     A.U. after    8 cycles
 SCF Done:  E(RB3LYP) =  -353.842322596     A.U. after    7 cycles
 SCF Done:  E(RB3LYP) =  -353.842322612     A.U. after    6 cycles
 Optimization completed.
    -- Stationary point found.
 Normal termination of Gaussian 16 at Sun May 28 21:21:59 2023.

 ----------------------------------------------------------------------
 #N Geom=AllCheck Guess=TCheck SCRF=Check GenChk RB3LYP/6-31G(2df,p) Fr
 eq
 ----------------------------------------------------------------------

 Structure from the checkpoint file:  "CCC1CCqCrCC1C.chk"
 -------------------
 Title Card Required
 -------------------
 Charge =  0 Multiplicity = 1

                         Standard orientation:
 ---------------------------------------------------------------------
 Center     Atomic      Atomic             Coordinates (Angstroms)
 Number     Number       Type             X           Y           Z
 ---------------------------------------------------------------------
      1          6           0        2.360766   -1.370117    0.818151
      2          6           0        2.023892   -0.766515   -0.550978
      3          6           0        0.630549   -0.124844   -0.685588
      4          6           0       -0.567810   -1.109029   -0.527991
      5          6           0       -1.612210   -0.402021    0.377303
      6          6           0       -3.065301   -0.691333    0.004444
      7          6           0       -1.210256    1.081400    0.309037
      8          6           0        0.325271    1.046560    0.284254
      9          6           0        0.989696    2.368166   -0.098351
     10          1           0        3.337627   -1.863168    0.789360
     11          1           0        1.625886   -2.120595    1.127898
     12          1           0        2.404550   -0.608050    1.602379
     13          1           0        2.114625   -1.548764   -1.315907
     14          1           0        2.785455   -0.017432   -0.804022
     15          1           0        0.582108    0.294518   -1.700151
     16          1           0       -0.261333   -2.069542   -0.102139
     17          1           0       -1.003319   -1.334806   -1.507998
     18          1           0       -1.450694   -0.737737    1.410913
     19          1           0       -3.277066   -0.366644   -1.021386
     20          1           0       -3.761833   -0.169064    0.669611
     21          1           0       -3.288420   -1.762207    0.065494
     22          1           0       -1.615835    1.673884    1.136324
     23          1           0       -1.584598    1.528737   -0.623787
     24          1           0        0.663120    0.767232    1.291944
     25          1           0        0.667894    2.692729   -1.095325
     26          1           0        2.081694    2.283303   -0.113899
     27          1           0        0.732558    3.164007    0.609001
 ---------------------------------------------------------------------

 SCF Done:  E(RB3LYP) =  -353.842322612     A.U. after    1 cycles

 The electronic state is 1-A.
 Alpha  occ. eigenvalues --  -10.17665 -10.17452 -10.17413 -10.17387 -10.16877
 Alpha  occ. eigenvalues --  -10.16729 -10.16698 -10.16683 -10.16674  -0.83786
 Alpha  occ. eigenvalues --   -0.76818  -0.74639  -0.69918  -0.67255  -0.63745
 Alpha  occ. eigenvalues --   -0.59296  -0.55285  -0.52670  -0.47295  -0.44361
 Alpha  occ. eigenvalues --   -0.44192  -0.42534  -0.41913  -0.40240  -0.39101
 Alpha  occ. eigenvalues --   -0.37732  -0.37280  -0.36519  -0.34843  -0.34171
 Alpha  occ. eigenvalues --   -0.31897  -0.31175  -0.31003  -0.29721  -0.29590
 Alpha  occ. eigenvalues --   -0.29100
 Alpha virt. eigenvalues --    0.07875   0.09524   0.10180   0.11730   0.13588
 Alpha virt. eigenvalues --    0.14114   0.14900   0.16126   0.16522   0.16817
 Alpha virt. eigenvalues --    0.17367   0.18033   0.18318   0.19106   0.19408

 Mulliken charges:
               1
     1  C   -0.378198
     2  C   -0.209728
     3  C    0.053316
     4  C   -0.245849
     5  C    0.054246
     6  C   -0.409058
     7  C   -0.215224
     8  C    0.035380
     9  C   -0.415660
    10  H    0.111029
    11  H    0.116150
    12  H    0.117713
    13  H    0.091669
    14  H    0.092878
    15  H    0.059761
    16  H    0.092695
    17  H    0.089754
    18  H    0.065817
    19  H    0.109239
    20  H    0.108465
    21  H    0.109680
    22  H    0.085098
    23  H    0.084207
    24  H    0.066627
    25  H    0.109726
    26  H    0.111496
    27  H    0.108772
 Sum of Mulliken charges =  -0.00000

 Dipole moment (field-independent basis, Debye):
    X=              0.0891    Y=             -0.0320    Z=              0.0505  Tot=              0.1073
 Quadrupole moment (field-independent basis, Debye-Ang):
   XX=            -60.4383   YY=            -60.1010   ZZ=            -59.1617
   XY=             -0.2247   XZ=             -0.1159   YZ=              0.1167

  Exact polarizability: 106.166   0.312  96.484  -0.338   0.653  84.316
 Approx polarizability: 133.053  -0.533 132.484   0.330   0.103 131.961

                      1                      2                      3
                      A                      A                      A
 Frequencies --     24.0873               102.7210               132.8265
 Red. masses --      2.5153                 1.8128                 2.1774
 Frc consts  --      0.0009                 0.0113                 0.0226
 IR Inten    --      0.0011                 0.0052                 0.0092

                      4                      5                      6
                      A                      A                      A
 Frequencies --    198.5636               220.8807               235.1680
 Red. masses --      1.4950                 1.4459                 1.3119
 Frc consts  --      0.0347                 0.0416                 0.0427
 IR Inten    --      0.0054                 0.0371                 0.0065

                      7                      8                      9
                      A                      A                      A
 Frequencies --    241.2701               267.4814               274.7770
 Red. masses --      1.3895                 1.8495                 1.6047
 Frc consts  --      0.0477                 0.0780                 0.0714
 IR Inten    --      0.0139                 0.0182                 0.0201

                     10                     11                     12
                      A                      A                      A
 Frequencies --    379.0980               416.6101               422.9356
 Red. masses --      2.1268                 2.0349                 2.2280
 Frc consts  --      0.1801                 0.2081                 0.2348
 IR Inten    --      0.1957                 0.1348                 0.0603

                     13                     14                     15
                      A                      A                      A
 Frequencies --    501.0947               535.8657               588.8061
 Red. masses --      2.9555                 3.2207                 2.6317
 Frc consts  --      0.4372                 0.5449                 0.5376
 IR Inten    --      0.7045                 0.2950                 0.8206

                     16                     17                     18
                      A                      A                      A
 Frequencies --    746.9379               785.3282               842.8917
 Red. masses --      1.8273                 1.3972                 2.5768
 Frc consts  --      0.6006                 0.5077                 1.0786
 IR Inten    --      0.4358                 1.9868                 0.5281

                     19                     20                     21
                      A                      A                      A
 Frequencies --    882.4877               903.3084               915.3822
 Red. masses --      1.5482                 2.1451                 1.5752
 Frc consts  --      0.7104                 1.0313                 0.7777
 IR Inten    --      0.3505                 0.6747                 1.1946

                     22                     23                     24
                      A                      A                      A
 Frequencies --    926.2790               956.2973               978.9012
 Red. masses --      1.6750                 1.7247                 1.9545
 Frc consts  --      0.8468                 0.9293                 1.1035
 IR Inten    --      0.3749                 0.7539                 0.5649

                     25                     26                     27
                      A                      A                      A
 Frequencies --    998.9129              1039.7902              1054.0366
 Red. masses --      1.2849                 1.2589                 1.4678
 Frc consts  --      0.7554                 0.8019                 0.9608
 IR Inten    --      1.0707                 0.5833                 2.0198

                     28                     29                     30
                      A                      A                      A
 Frequencies --   1069.9208              1103.1758              1112.6931
 Red. masses --      1.9911                 2.2369                 2.3803
 Frc consts  --      1.3429                 1.6040                 1.7363
 IR Inten    --      0.1742                 0.2002                 0.0456

                     31                     32                     33
                      A                      A                      A
 Frequencies --   1164.7339              1166.7937              1181.1761
 Red. masses --      2.1123                 1.9087                 2.0419
 Frc consts  --      1.6883                 1.5310                 1.6784
 IR Inten    --      0.0218                 0.5287                 3.9551

                     34                     35                     36
                      A                      A                      A
 Frequencies --   1201.5464              1249.6897              1279.9347
 Red. masses --      1.8109                 1.4649                 1.3280
 Frc consts  --      1.5404                 1.3479                 1.2818
 IR Inten    --      0.1698                 0.7163                 0.1584

                     37                     38                     39
                      A                      A                      A
 Frequencies --   1299.3594              1304.2931              1314.0314
 Red. masses --      1.2319                 1.3045                 1.2410
 Frc consts  --      1.2254                 1.3075                 1.2626
 IR Inten    --      0.7260                 0.9240                 1.1036

                     40                     41                     42
                      A                      A                      A
 Frequencies --   1340.3063              1350.8840              1360.5247
 Red. masses --      1.3380                 1.2758                 1.4729
 Frc consts  --      1.4162                 1.3718                 1.6063
 IR Inten    --      1.7175                 4.1811                 1.9497

                     43                     44                     45
                      A                      A                      A
 Frequencies --   1380.1572              1382.2399              1397.7497
 Red. masses --      1.4514                 1.4216                 1.4229
 Frc consts  --      1.6289                 1.6003                 1.6379
 IR Inten    --      0.8361                 4.0427                 3.3132

                     46                     47                     48
                      A                      A                      A
 Frequencies --   1410.4960              1411.7066              1417.7411
 Red. masses --      1.2367                 1.2708                 1.2906
 Frc consts  --      1.4496                 1.4922                 1.5284
 IR Inten    --      0.4973                 1.7736                10.8899

                     49                     50                     51
                      A                      A                      A
 Frequencies --   1484.7304              1489.1429              1495.0222
 Red. masses --      1.0689                 1.0809                 1.0715
 Frc consts  --      1.3882                 1.4123                 1.4111
 IR Inten    --      1.5799                 0.4048                 0.1537

                     52                     53                     54
                      A                      A                      A
 Frequencies --   1496.5509              1497.1883              1500.0468
 Red. masses --      1.0558                 1.0515                 1.0441
 Frc consts  --      1.3932                 1.3886                 1.3842
 IR Inten    --      2.1083                 3.4200                 2.5414

                     55                     56                     57
                      A                      A                      A
 Frequencies --   1501.0135              1506.7044              1511.1962
 Red. masses --      1.0491                 1.0640                 1.0659
 Frc consts  --      1.3926                 1.4232                 1.4341
 IR Inten    --      6.3537                 2.0402                 6.4690

                     58                     59                     60
                      A                      A                      A
 Frequencies --   2989.1542              2995.7160              3002.8511
 Red. masses --      1.0798                 1.0740                 1.0793
 Frc consts  --      5.6845                 5.6790                 5.7340
 IR Inten    --      5.5058                 6.9721                 2.5631

                     61                     62                     63
                      A                      A                      A
 Frequencies --   3012.8515              3016.6044              3020.8323
 Red. masses --      1.0727                 1.0610                 1.0361
 Frc consts  --      5.7371                 5.6885                 5.5708
 IR Inten    --     32.8496                30.8943                41.5145

                     64                     65                     66
                      A                      A                      A
 Frequencies --   3022.9624              3035.7853              3038.6281
 Red. masses --      1.0408                 1.0427                 1.0561
 Frc consts  --      5.6040                 5.6615                 5.7452
 IR Inten    --     49.8049                41.1068                20.8932

                     67                     68                     69
                      A                      A                      A
 Frequencies --   3042.6371              3067.1674              3075.5749
 Red. masses --      1.1009                 1.0974                 1.1016
 Frc consts  --      6.0050                 6.0824                 6.1392
 IR Inten    --     26.6483                25.8152                26.3944

                     70                     71                     72
                      A                      A                      A
 Frequencies --   3087.1328              3088.8924              3090.7852
 Red. masses --      1.1006                 1.1002                 1.1012
 Frc consts  --      6.1799                 6.1850                 6.1983
 IR Inten    --     16.3627                85.4723                25.9899

                     73                     74                     75
                      A                      A                      A
 Frequencies --   3091.9030              3099.9542              3104.6039
 Red. masses --      1.1009                 1.1005                 1.1010
 Frc consts  --      6.2007                 6.2307                 6.2524
 IR Inten    --     38.6181                41.6635                43.6383

 - Thermochemistry -
 -------------------
 Temperature   298.150 Kelvin.  Pressure   1.00000 Atm.
 Atom     1 has atomic number  6 and mass  12.00000

 Molecular mass:   126.14085 amu.
 Principal axes and moments of inertia in atomic units:
                           1         2         3
     Eigenvalues --   861.136471524.610322063.10956
           X            0.99998   0.00303   0.00560
           Y           -0.00299   0.99996  -0.00853
           Z           -0.00562   0.00852   0.99995
 This molecule is an asymmetric top.
 Rotational symmetry number  1.
 Warning -- assumption of classical behavior for rotation
           may cause significant error
 Rotational temperatures (Kelvin)      0.10058     0.05681     0.04198
 Rotational constants (GHZ):           2.09577     1.18374     0.87477
 Zero-point vibrational energy     662955.6 (Joules/Mol)
                                  158.45020 (Kcal/Mol)
 Warning -- explicit consideration of  15 degrees of freedom as
           vibrations may cause significant error
 Vibrational temperatures:     34.66   147.79   191.11   285.69   317.80
          (Kelvin)            338.35   347.13   384.85   395.34   545.44
                              599.41   608.51   720.96   770.99   847.16
                             1074.68  1129.91  1212.73  1269.70  1299.66
                             1317.03  1332.71  1375.90  1408.42  1437.21
                             1496.03  1516.52  1539.38  1587.22  1600.92
                             1675.79  1678.76  1699.45  1728.76  1798.02
                             1841.54  1869.49  1876.59  1890.60  1928.40
                             1943.62  1957.49  1985.74  1988.73  2011.05
                             2029.39  2031.13  2039.81  2136.20  2142.54
                             2151.00  2153.20  2154.12  2158.23  2159.62
                             2167.81  2174.27  4300.73  4310.17  4320.43
                             4334.82  4340.22  4346.30  4349.37  4367.82
                             4371.91  4377.68  4412.97  4425.07  4441.70
                             4444.23  4446.95  4448.56  4460.14  4466.83

 Zero-point correction=                           0.252506 (Hartree/Particle)
 Thermal correction to Energy=                    0.263108
 Thermal correction to Enthalpy=                  0.264052
 Thermal correction to Gibbs Free Energy=         0.216418
 Sum of electronic and zero-point Energies=           -353.589816
 Sum of electronic and thermal Energies=              -353.579214
 Sum of electronic and thermal Enthalpies=            -353.578270
 Sum of electronic and thermal Free Energies=         -353.625905

                     E (Thermal)             CV                S
                      KCal/Mol        Cal/Mol-Kelvin    Cal/Mol-Kelvin
 Total                  165.103             40.347            100.256
 Electronic               0.000              0.000              0.000
 Translational            0.889              2.981             40.410
 Rotational               0.889              2.981             29.384
 Vibrational            163.325             34.385             30.462
 Vibration     1          0.593              1.985              6.265
 Vibration     2          0.605              1.947              3.402
 Vibration     3          0.613              1.921              2.905
 Vibration     4          0.637              1.842              2.146
 Vibration     5          0.648              1.809              1.952
 Vibration     6          0.655              1.787              1.839
 Vibration     7          0.658              1.777              1.793
 Vibration     8          0.673              1.733              1.612
 Vibration     9          0.677              1.720              1.566
 Vibration    10          0.749              1.515              1.043
 Vibration    11          0.780              1.434              0.904
 Vibration    12          0.785              1.420              0.882
 Vibration    13          0.856              1.248              0.655
 Vibration    14          0.891              1.171              0.574
 Vibration    15          0.946              1.056              0.469

 Optimization completed.
    -- Stationary point found.
 Normal termination of Gaussian 16 at Sun May 28 22:09:06 2023.
