 Gaussian 16, Revision A.03,
 Gaussian 16:  ES64L-G16RevA.03 25-Dec-2016

 -----------------------------
 # opt freq b3lyp/6-31g(2df,p)
 -----------------------------

 -------------------
 Title Card Required
 -------------------
 Symbolic Z-matrix:
 Charge =  0 Multiplicity = 1

 SCF Done:  E(RB3LYP) =  -668.307716725     A.U. after   12 cycles
 SCF Done:  E(RB3LYP) =  -668.318922967     A.U. after   10 cycles
 SCF Done:  E(RB3LYP) =  -668.323393091     A.U. after    9 cycles
 SCF Done:  E(RB3LYP) =  -668.327025573     A.U. after   10 cycles
 SCF Done:  E(RB3LYP) =  -668.330314050     A.U. after   10 cycles
 SCF Done:  E(RB3LYP) =  -668.333589553     A.U. after   10 cycles
 SCF Done:  E(RB3LYP) =  -668.338264607     A.U. after   10 cycles
 SCF Done:  E(RB3LYP) =  -668.340687389     A.U. after    9 cycles
 SCF Done:  E(RB3LYP) =  -668.343794722     A.U. after   10 cycles
 SCF Done:  E(RB3LYP) =  -668.346510931     A.U. after   10 cycles
 SCF Done:  E(RB3LYP) =  -668.354343395     A.U. after    9 cycles
 SCF Done:  E(RB3LYP) =  -668.354433352     A.U. after    9 cycles
 SCF Done:  E(RB3LYP) =  -668.354437940     A.U. after    8 cycles
 SCF Done:  E(RB3LYP) =  -668.354441012     A.U. after    7 cycles
 SCF Done:  E(RB3LYP) =  -668.354442930     A.U. after    6 cycles
 SCF Done:  E(RB3LYP) =  -668.354445256     A.U. after    7 cycles
 SCF Done:  E(RB3LYP) =  -668.354445439     A.U. after    6 cycles
 SCF Done:  E(RB3LYP) =  -668.354445494     A.U. after    5 cycles
 SCF Done:  E(RB3LYP) =  -668.354445525     A.U. after    5 cycles
 Optimization completed.
    -- Stationary point found.
 Normal termination of Gaussian 16 at Mon May 22 02:21:12 2023.

 ----------------------------------------------------------------------
 #N Geom=AllCheck Guess=TCheck SCRF=Check GenChk RB3LYP/6-31G(2df,p) Fr
 eq
 ----------------------------------------------------------------------

 Structure from the checkpoint file:  "CCC1CCCCCCCCCqCrCqCrCC1.chk"
 -------------------
 Title Card Required
 -------------------
 Charge =  0 Multiplicity = 1

                         Standard orientation:
 ---------------------------------------------------------------------
 Center     Atomic      Atomic             Coordinates (Angstroms)
 Number     Number       Type             X           Y           Z
 ---------------------------------------------------------------------
      1          6           0       -2.937209   -3.219060   -0.249236
      2          6           0       -2.439954   -1.949096   -0.951139
      3          6           0       -1.696763   -0.922186   -0.064475
      4          6           0       -2.635266   -0.213468    0.940947
      5          6           0       -3.431447    0.977225    0.363370
      6          6           0       -2.783274    2.375802    0.469035
      7          6           0       -1.579152    2.703496   -0.440994
      8          6           0       -0.192165    2.303936    0.085459
      9          6           0        0.939629    2.722545   -0.864537
     10          6           0        2.357112    2.247032   -0.490127
     11          6           0        2.622805    0.734618   -0.694142
     12          6           0        2.446077   -0.148312    0.564078
     13          6           0        3.663792   -0.019894    1.493679
     14          6           0        2.124823   -1.639823    0.249890
     15          6           0        3.168499   -2.300980   -0.664877
     16          6           0        0.708264   -1.840544   -0.336264
     17          6           0       -0.446188   -1.502461    0.627924
     18          1           0       -3.492201   -3.849575   -0.951188
     19          1           0       -3.608139   -2.994953    0.586313
     20          1           0       -2.110706   -3.819717    0.143287
     21          1           0       -3.294245   -1.445548   -1.421719
     22          1           0       -1.779013   -2.241190   -1.776618
     23          1           0       -1.331621   -0.153001   -0.756684
     24          1           0       -2.051147    0.143058    1.798565
     25          1           0       -3.337723   -0.945479    1.356366
     26          1           0       -4.390793    1.038294    0.891496
     27          1           0       -3.688321    0.778482   -0.686354
     28          1           0       -2.506196    2.562193    1.516327
     29          1           0       -3.573318    3.102263    0.241529
     30          1           0       -1.568665    3.787953   -0.614649
     31          1           0       -1.738161    2.251300   -1.430055
     32          1           0       -0.153821    1.226339    0.252098
     33          1           0       -0.030380    2.768116    1.068524
     34          1           0        0.944238    3.818649   -0.935328
     35          1           0        0.709765    2.361739   -1.877417
     36          1           0        2.579364    2.533887    0.546351
     37          1           0        3.064533    2.811024   -1.109244
     38          1           0        3.645994    0.599784   -1.065446
     39          1           0        1.970494    0.380771   -1.501368
     40          1           0        1.592256    0.246635    1.125322
     41          1           0        4.577360   -0.393203    1.018178
     42          1           0        3.515689   -0.582522    2.421760
     43          1           0        3.845883    1.024532    1.767098
     44          1           0        2.152528   -2.168365    1.214663
     45          1           0        3.147651   -1.870933   -1.672193
     46          1           0        2.967751   -3.372820   -0.763895
     47          1           0        4.185907   -2.192212   -0.277915
     48          1           0        0.618337   -2.879601   -0.675579
     49          1           0        0.612046   -1.231331   -1.244835
     50          1           0       -0.102130   -0.762590    1.357928
     51          1           0       -0.710722   -2.384957    1.223144
 ---------------------------------------------------------------------

 SCF Done:  E(RB3LYP) =  -668.354445525     A.U. after    1 cycles

 The electronic state is 1-A.
 Alpha  occ. eigenvalues --  -10.17851 -10.17667 -10.17592 -10.17313 -10.17303
 Alpha  occ. eigenvalues --  -10.17278 -10.17268 -10.17240 -10.17223 -10.16984
 Alpha  occ. eigenvalues --  -10.16975 -10.16971 -10.16854 -10.16834 -10.16831
 Alpha  occ. eigenvalues --  -10.16581 -10.16566  -0.82409  -0.80741  -0.79765
 Alpha  occ. eigenvalues --   -0.76623  -0.75180  -0.73099  -0.71067  -0.69435
 Alpha  occ. eigenvalues --   -0.66371  -0.64478  -0.62238  -0.60103  -0.59817
 Alpha  occ. eigenvalues --   -0.56379  -0.55719  -0.53685  -0.52872  -0.47886
 Alpha  occ. eigenvalues --   -0.46528  -0.45496  -0.44808  -0.44214  -0.43871
 Alpha  occ. eigenvalues --   -0.42863  -0.42461  -0.41376  -0.40200  -0.40157
 Alpha  occ. eigenvalues --   -0.39360  -0.38590  -0.37987  -0.37397  -0.37246
 Alpha  occ. eigenvalues --   -0.36623  -0.35987  -0.35403  -0.34789  -0.34188
 Alpha  occ. eigenvalues --   -0.33672  -0.33431  -0.32671  -0.32172  -0.31642
 Alpha  occ. eigenvalues --   -0.31479  -0.31015  -0.30483  -0.29643  -0.29251
 Alpha  occ. eigenvalues --   -0.29228  -0.28955  -0.28131
 Alpha virt. eigenvalues --    0.07491   0.08159   0.08711   0.09616   0.10486
 Alpha virt. eigenvalues --    0.11288   0.11506   0.12422   0.12602   0.13247
 Alpha virt. eigenvalues --    0.13833   0.13906   0.14653   0.15013   0.15451

 Mulliken charges:
               1
     1  C   -0.379798
     2  C   -0.202078
     3  C    0.055398
     4  C   -0.208022
     5  C   -0.194603
     6  C   -0.197504
     7  C   -0.172834
     8  C   -0.170198
     9  C   -0.174774
    10  C   -0.218125
    11  C   -0.186075
    12  C    0.048831
    13  C   -0.410345
    14  C    0.016211
    15  C   -0.405758
    16  C   -0.204532
    17  C   -0.219853
    18  H    0.110719
    19  H    0.117200
    20  H    0.117336
    21  H    0.092166
    22  H    0.095000
    23  H    0.071378
    24  H    0.086195
    25  H    0.091028
    26  H    0.089037
    27  H    0.091785
    28  H    0.088941
    29  H    0.089572
    30  H    0.088314
    31  H    0.089660
    32  H    0.115315
    33  H    0.085351
    34  H    0.087683
    35  H    0.089519
    36  H    0.091479
    37  H    0.088927
    38  H    0.089671
    39  H    0.089417
    40  H    0.072071
    41  H    0.113658
    42  H    0.107090
    43  H    0.111490
    44  H    0.063869
    45  H    0.114244
    46  H    0.107760
    47  H    0.110658
    48  H    0.089343
    49  H    0.093626
    50  H    0.095097
    51  H    0.089460
 Sum of Mulliken charges =  -0.00000

 Dipole moment (field-independent basis, Debye):
    X=             -0.1083    Y=              0.0508    Z=             -0.0181  Tot=              0.1210
 Quadrupole moment (field-independent basis, Debye-Ang):
   XX=           -113.6933   YY=           -112.8204   ZZ=           -112.9124
   XY=              0.0902   XZ=             -0.0095   YZ=              0.0627

  Exact polarizability: 203.400  -0.485 193.071  -0.112   0.832 152.697
 Approx polarizability: 256.500   0.765 257.764   0.904   0.998 252.406

                      1                      2                      3
                      A                      A                      A
 Frequencies --     34.9425                48.5293                57.8129
 Red. masses --      2.9811                 2.6952                 2.7542
 Frc consts  --      0.0021                 0.0037                 0.0054
 IR Inten    --      0.0075                 0.0050                 0.0126

                      4                      5                      6
                      A                      A                      A
 Frequencies --     70.6306                95.9481               103.7805
 Red. masses --      2.5611                 2.2470                 2.9544
 Frc consts  --      0.0075                 0.0122                 0.0187
 IR Inten    --      0.0340                 0.0067                 0.0071

                      7                      8                      9
                      A                      A                      A
 Frequencies --    116.4449               156.3452               158.7872
 Red. masses --      2.2631                 2.6228                 2.0392
 Frc consts  --      0.0181                 0.0378                 0.0303
 IR Inten    --      0.0069                 0.0433                 0.0091

                     10                     11                     12
                      A                      A                      A
 Frequencies --    169.7337               190.8698               215.7903
 Red. masses --      2.1241                 2.3167                 1.2996
 Frc consts  --      0.0361                 0.0497                 0.0357
 IR Inten    --      0.0294                 0.0384                 0.0425

                     13                     14                     15
                      A                      A                      A
 Frequencies --    225.9843               232.0155               248.9474
 Red. masses --      1.6116                 1.1039                 2.0805
 Frc consts  --      0.0485                 0.0350                 0.0760
 IR Inten    --      0.0050                 0.0111                 0.0808

                     16                     17                     18
                      A                      A                      A
 Frequencies --    260.6331               269.3218               270.0594
 Red. masses --      2.0678                 2.0376                 2.2656
 Frc consts  --      0.0828                 0.0871                 0.0974
 IR Inten    --      0.0273                 0.0264                 0.0231

                     19                     20                     21
                      A                      A                      A
 Frequencies --    286.9921               304.4458               308.9230
 Red. masses --      2.2632                 2.1074                 2.1782
 Frc consts  --      0.1098                 0.1151                 0.1225
 IR Inten    --      0.0200                 0.0041                 0.0194

                     22                     23                     24
                      A                      A                      A
 Frequencies --    337.1301               363.8044               391.3622
 Red. masses --      2.5006                 2.7129                 2.1015
 Frc consts  --      0.1675                 0.2115                 0.1896
 IR Inten    --      0.0182                 0.0514                 0.0602

                     25                     26                     27
                      A                      A                      A
 Frequencies --    432.8145               440.0386               452.4917
 Red. masses --      2.0581                 1.8712                 2.4517
 Frc consts  --      0.2272                 0.2135                 0.2958
 IR Inten    --      0.0940                 0.1466                 0.2217

                     28                     29                     30
                      A                      A                      A
 Frequencies --    474.1660               508.0713               543.7002
 Red. masses --      2.2916                 2.5634                 2.1699
 Frc consts  --      0.3036                 0.3899                 0.3779
 IR Inten    --      0.1302                 0.5375                 2.5002

                     31                     32                     33
                      A                      A                      A
 Frequencies --    559.8279               725.0655               730.2562
 Red. masses --      2.2658                 1.2761                 1.6340
 Frc consts  --      0.4184                 0.3953                 0.5134
 IR Inten    --      2.1339                 2.5915                 0.9184

                     34                     35                     36
                      A                      A                      A
 Frequencies --    754.2434               774.5509               784.5421
 Red. masses --      1.7543                 2.1835                 1.5418
 Frc consts  --      0.5880                 0.7718                 0.5591
 IR Inten    --      0.5321                 1.2062                 3.2960

                     37                     38                     39
                      A                      A                      A
 Frequencies --    791.0968               818.1409               825.1777
 Red. masses --      1.6809                 1.5403                 1.6674
 Frc consts  --      0.6198                 0.6075                 0.6689
 IR Inten    --      1.7614                 1.8130                 0.9815

                     40                     41                     42
                      A                      A                      A
 Frequencies --    842.6636               868.1125               905.6864
 Red. masses --      1.6954                 1.8151                 1.9089
 Frc consts  --      0.7093                 0.8060                 0.9226
 IR Inten    --      1.0129                 1.0335                 0.8368

                     43                     44                     45
                      A                      A                      A
 Frequencies --    910.1193               921.9257               942.6029
 Red. masses --      1.7232                 1.9032                 2.3125
 Frc consts  --      0.8410                 0.9531                 1.2106
 IR Inten    --      0.7634                 0.3078                 0.5426

                     46                     47                     48
                      A                      A                      A
 Frequencies --    961.8779               968.4352               980.1015
 Red. masses --      1.8862                 2.2213                 1.6130
 Frc consts  --      1.0282                 1.2274                 0.9129
 IR Inten    --      2.0478                 2.5841                 0.1579

                     49                     50                     51
                      A                      A                      A
 Frequencies --    987.7429              1001.3079              1009.4720
 Red. masses --      1.8510                 1.9138                 1.9128
 Frc consts  --      1.0640                 1.1305                 1.1484
 IR Inten    --      0.2236                 0.4238                 1.6220

                     52                     53                     54
                      A                      A                      A
 Frequencies --   1023.3800              1043.7710              1049.4954
 Red. masses --      1.8707                 1.8169                 2.2039
 Frc consts  --      1.1543                 1.1662                 1.4302
 IR Inten    --      2.4514                 1.7207                 0.2703

                     55                     56                     57
                      A                      A                      A
 Frequencies --   1054.9215              1067.3591              1084.7227
 Red. masses --      1.9147                 1.9877                 2.4029
 Frc consts  --      1.2554                 1.3342                 1.6658
 IR Inten    --      0.8944                 0.1403                 0.7335

                     58                     59                     60
                      A                      A                      A
 Frequencies --   1091.4228              1094.1840              1102.1179
 Red. masses --      1.9306                 1.7508                 2.2251
 Frc consts  --      1.3550                 1.2350                 1.5924
 IR Inten    --      2.1816                 0.5605                 0.5009

                     61                     62                     63
                      A                      A                      A
 Frequencies --   1127.0782              1139.0210              1144.8265
 Red. masses --      1.8504                 1.6399                 1.8114
 Frc consts  --      1.3849                 1.2535                 1.3988
 IR Inten    --      0.2034                 4.7261                 1.7409

                     64                     65                     66
                      A                      A                      A
 Frequencies --   1158.8553              1175.8184              1188.1128
 Red. masses --      2.2701                 1.8923                 1.7992
 Frc consts  --      1.7962                 1.5414                 1.4964
 IR Inten    --      1.6166                 2.6741                 3.6814

                     67                     68                     69
                      A                      A                      A
 Frequencies --   1207.4105              1223.6916              1236.8616
 Red. masses --      1.4495                 1.3058                 1.3174
 Frc consts  --      1.2450                 1.1521                 1.1874
 IR Inten    --      2.4668                 0.5067                 0.2793

                     70                     71                     72
                      A                      A                      A
 Frequencies --   1250.4604              1270.1683              1279.1174
 Red. masses --      1.2782                 1.2492                 1.2542
 Frc consts  --      1.1776                 1.1874                 1.2091
 IR Inten    --      0.1810                 0.2330                 0.4789

                     73                     74                     75
                      A                      A                      A
 Frequencies --   1288.4471              1304.1164              1310.1542
 Red. masses --      1.2467                 1.1914                 1.2086
 Frc consts  --      1.2194                 1.1938                 1.2223
 IR Inten    --      0.6108                 1.9150                 1.0815

                     76                     77                     78
                      A                      A                      A
 Frequencies --   1315.7261              1321.0260              1330.3040
 Red. masses --      1.1712                 1.2072                 1.1716
 Frc consts  --      1.1946                 1.2412                 1.2216
 IR Inten    --      1.4244                 0.6189                 1.3565

                     79                     80                     81
                      A                      A                      A
 Frequencies --   1332.9793              1338.4659              1348.8412
 Red. masses --      1.1647                 1.1553                 1.2256
 Frc consts  --      1.2193                 1.2194                 1.3137
 IR Inten    --      1.3597                 1.1127                 0.4743

                     82                     83                     84
                      A                      A                      A
 Frequencies --   1363.2434              1364.6630              1368.2392
 Red. masses --      1.3508                 1.4557                 1.3295
 Frc consts  --      1.4790                 1.5972                 1.4664
 IR Inten    --      8.7592                 1.1765                 0.5830

                     85                     86                     87
                      A                      A                      A
 Frequencies --   1375.4503              1381.1627              1386.1611
 Red. masses --      1.4326                 1.3835                 1.3660
 Frc consts  --      1.5968                 1.5549                 1.5464
 IR Inten    --      0.9009                 0.5391                 2.2378

                     88                     89                     90
                      A                      A                      A
 Frequencies --   1389.3805              1391.4590              1394.9613
 Red. masses --      1.3723                 1.3761                 1.2960
 Frc consts  --      1.5608                 1.5698                 1.4859
 IR Inten    --      7.2413                 1.4696                 0.7917

                     91                     92                     93
                      A                      A                      A
 Frequencies --   1397.5749              1400.2187              1403.4880
 Red. masses --      1.4310                 1.4542                 1.3448
 Frc consts  --      1.6468                 1.6798                 1.5607
 IR Inten    --      1.7736                 4.2192                 1.5774

                     94                     95                     96
                      A                      A                      A
 Frequencies --   1409.4193              1416.0104              1417.0058
 Red. masses --      1.3019                 1.2807                 1.2228
 Frc consts  --      1.5237                 1.5129                 1.4466
 IR Inten    --      6.7279                 6.2509                 2.7935

                     97                     98                     99
                      A                      A                      A
 Frequencies --   1477.4203              1479.8119              1481.1540
 Red. masses --      1.0748                 1.0834                 1.0806
 Frc consts  --      1.3822                 1.3979                 1.3967
 IR Inten    --      1.5622                 1.1337                 2.2633

                    100                    101                    102
                      A                      A                      A
 Frequencies --   1483.7383              1485.4648              1487.6256
 Red. masses --      1.0856                 1.0732                 1.0787
 Frc consts  --      1.4081                 1.3952                 1.4065
 IR Inten    --      1.4124                 4.7215                 1.5297

                    103                    104                    105
                      A                      A                      A
 Frequencies --   1488.1175              1489.2819              1494.7453
 Red. masses --      1.0795                 1.0850                 1.0447
 Frc consts  --      1.4084                 1.4178                 1.3753
 IR Inten    --      0.3030                 1.0296                 4.0235

                    106                    107                    108
                      A                      A                      A
 Frequencies --   1495.9288              1500.9201              1502.2164
 Red. masses --      1.0674                 1.0736                 1.0572
 Frc consts  --      1.4073                 1.4250                 1.4056
 IR Inten    --      0.3834                 7.5139                 2.3287

                    109                    110                    111
                      A                      A                      A
 Frequencies --   1504.5401              1505.5849              1506.8814
 Red. masses --      1.0607                 1.0655                 1.0843
 Frc consts  --      1.4146                 1.4230                 1.4506
 IR Inten    --      6.4690                10.4676                 3.4005

                    112                    113                    114
                      A                      A                      A
 Frequencies --   1508.9938              1512.1128              2985.6952
 Red. masses --      1.0503                 1.0741                 1.0818
 Frc consts  --      1.4091                 1.4470                 5.6820
 IR Inten    --      1.4791                 0.8275                19.2153

                    115                    116                    117
                      A                      A                      A
 Frequencies --   2998.6261              3002.1841              3005.2538
 Red. masses --      1.0606                 1.0614                 1.0650
 Frc consts  --      5.6189                 5.6365                 5.6670
 IR Inten    --      2.8328                18.9742                11.0384

                    118                    119                    120
                      A                      A                      A
 Frequencies --   3008.1121              3011.5408              3012.2672
 Red. masses --      1.0659                 1.0694                 1.0704
 Frc consts  --      5.6826                 5.7143                 5.7223
 IR Inten    --     20.6762                 6.0468                24.4450

                    121                    122                    123
                      A                      A                      A
 Frequencies --   3014.0419              3014.9095              3020.1270
 Red. masses --      1.0665                 1.0618                 1.0639
 Frc consts  --      5.7083                 5.6864                 5.7174
 IR Inten    --     24.2250                 6.7121                 3.6192

                    124                    125                    126
                      A                      A                      A
 Frequencies --   3020.8076              3026.0132              3027.9714
 Red. masses --      1.0613                 1.0678                 1.0372
 Frc consts  --      5.7059                 5.7610                 5.6028
 IR Inten    --      9.5284                20.7264                23.9905

                    127                    128                    129
                      A                      A                      A
 Frequencies --   3032.3478              3034.7215              3035.1869
 Red. masses --      1.0645                 1.0611                 1.0740
 Frc consts  --      5.7672                 5.7578                 5.8293
 IR Inten    --     16.0251                22.1548                13.8860

                    130                    131                    132
                      A                      A                      A
 Frequencies --   3037.5877              3037.9564              3042.2414
 Red. masses --      1.0527                 1.0838                 1.0917
 Frc consts  --      5.7231                 5.8932                 5.9531
 IR Inten    --     12.7722                 9.9300                60.0603

                    133                    134                    135
                      A                      A                      A
 Frequencies --   3045.3840              3048.3166              3048.6092
 Red. masses --      1.0952                 1.0956                 1.0935
 Frc consts  --      5.9847                 5.9985                 5.9879
 IR Inten    --     77.4631                19.0995                22.0358

                    136                    137                    138
                      A                      A                      A
 Frequencies --   3051.6096              3056.1164              3057.5482
 Red. masses --      1.0984                 1.0973                 1.0950
 Frc consts  --      6.0266                 6.0384                 6.0315
 IR Inten    --     47.9193                99.2119                29.3199

                    139                    140                    141
                      A                      A                      A
 Frequencies --   3059.6760              3072.4598              3094.3004
 Red. masses --      1.0984                 1.0987                 1.1010
 Frc consts  --      6.0586                 6.1107                 6.2110
 IR Inten    --    104.1180                77.9920                24.9325

                    142                    143                    144
                      A                      A                      A
 Frequencies --   3095.5048              3096.4372              3099.8764
 Red. masses --      1.1002                 1.1006                 1.1004
 Frc consts  --      6.2114                 6.2171                 6.2300
 IR Inten    --     29.9813                67.7742                34.4350

                    145                    146                    147
                      A                      A                      A
 Frequencies --   3104.0413              3106.9277              3127.0878
 Red. masses --      1.1012                 1.0999                 1.0865
 Frc consts  --      6.2515                 6.2555                 6.2599
 IR Inten    --     50.7469                34.4075                29.8808

 - Thermochemistry -
 -------------------
 Temperature   298.150 Kelvin.  Pressure   1.00000 Atm.
 Atom     1 has atomic number  6 and mass  12.00000

 Molecular mass:   238.26605 amu.
 Principal axes and moments of inertia in atomic units:
                           1         2         3
     Eigenvalues --  3721.992365430.576928153.32387
           X            0.99999   0.00499   0.00106
           Y           -0.00499   0.99998   0.00230
           Z           -0.00105  -0.00231   1.00000
 This molecule is an asymmetric top.
 Rotational symmetry number  1.
 Warning -- assumption of classical behavior for rotation
           may cause significant error
 Rotational temperatures (Kelvin)      0.02327     0.01595     0.01062
 Rotational constants (GHZ):           0.48489     0.33233     0.22135
 Zero-point vibrational energy    1265235.1 (Joules/Mol)
                                  302.39844 (Kcal/Mol)
 Warning -- explicit consideration of  31 degrees of freedom as
           vibrations may cause significant error
 Vibrational temperatures:     50.27    69.82    83.18   101.62   138.05
          (Kelvin)            149.32   167.54   224.95   228.46   244.21
                              274.62   310.47   325.14   333.82   358.18
                              374.99   387.49   388.56   412.92   438.03
                              444.47   485.05   523.43   563.08   622.72
                              633.12   651.03   682.22   731.00   782.26
                              805.47  1043.21  1050.68  1085.19  1114.41
                             1128.78  1138.21  1177.12  1187.25  1212.41
                             1249.02  1303.08  1309.46  1326.45  1356.20
                             1383.93  1393.36  1410.15  1421.14  1440.66
                             1452.41  1472.42  1501.75  1509.99  1517.80
                             1535.69  1560.67  1570.31  1574.29  1585.70
                             1621.61  1638.80  1647.15  1667.33  1691.74
                             1709.43  1737.19  1760.62  1779.57  1799.13
                             1827.49  1840.36  1853.79  1876.33  1885.02
                             1893.04  1900.66  1914.01  1917.86  1925.75
                             1940.68  1961.40  1963.45  1968.59  1978.97
                             1987.19  1994.38  1999.01  2002.00  2007.04
                             2010.80  2014.60  2019.31  2027.84  2037.32
                             2038.76  2125.68  2129.12  2131.05  2134.77
                             2137.25  2140.36  2141.07  2142.74  2150.61
                             2152.31  2159.49  2161.35  2164.70  2166.20
                             2168.07  2171.11  2175.59  4295.75  4314.35
                             4319.47  4323.89  4328.00  4332.94  4333.98
                             4336.53  4337.78  4345.29  4346.27  4353.76
                             4356.58  4362.87  4366.29  4366.96  4370.41
                             4370.94  4377.11  4381.63  4385.85  4386.27
                             4390.59  4397.07  4399.13  4402.19  4420.58
                             4452.01  4453.74  4455.08  4460.03  4466.02
                             4470.18  4499.18

 Zero-point correction=                           0.481903 (Hartree/Particle)
 Thermal correction to Energy=                    0.502081
 Thermal correction to Enthalpy=                  0.503025
 Thermal correction to Gibbs Free Energy=         0.434258
 Sum of electronic and zero-point Energies=           -667.872543
 Sum of electronic and thermal Energies=              -667.852365
 Sum of electronic and thermal Enthalpies=            -667.851421
 Sum of electronic and thermal Free Energies=         -667.920188

                     E (Thermal)             CV                S
                      KCal/Mol        Cal/Mol-Kelvin    Cal/Mol-Kelvin
 Total                  315.060             78.601            144.733
 Electronic               0.000              0.000              0.000
 Translational            0.889              2.981             42.306
 Rotational               0.889              2.981             33.466
 Vibrational            313.283             72.640             68.961
 Vibration     1          0.594              1.983              5.527
 Vibration     2          0.595              1.978              4.876
 Vibration     3          0.596              1.974              4.530
 Vibration     4          0.598              1.968              4.136
 Vibration     5          0.603              1.952              3.535
 Vibration     6          0.605              1.946              3.382
 Vibration     7          0.608              1.936              3.159
 Vibration     8          0.620              1.896              2.594
 Vibration     9          0.621              1.893              2.564
 Vibration    10          0.625              1.880              2.438
 Vibration    11          0.634              1.852              2.219
 Vibration    12          0.645              1.817              1.994
 Vibration    13          0.650              1.801              1.911
 Vibration    14          0.653              1.792              1.863
 Vibration    15          0.662              1.765              1.738
 Vibration    16          0.669              1.745              1.658
 Vibration    17          0.674              1.730              1.601
 Vibration    18          0.674              1.728              1.596
 Vibration    19          0.684              1.698              1.492
 Vibration    20          0.695              1.665              1.392
 Vibration    21          0.698              1.657              1.368
 Vibration    22          0.718              1.601              1.226
 Vibration    23          0.737              1.547              1.106
 Vibration    24          0.759              1.489              0.995
 Vibration    25          0.794              1.399              0.850
 Vibration    26          0.800              1.383              0.826
 Vibration    27          0.811              1.355              0.788
 Vibration    28          0.831              1.307              0.726
 Vibration    29          0.863              1.232              0.638
 Vibration    30          0.899              1.153              0.557
 Vibration    31          0.915              1.118              0.524

 Optimization completed.
    -- Stationary point found.
 Normal termination of Gaussian 16 at Mon May 22 10:22:33 2023.
