 Gaussian 16, Revision A.03,
 Gaussian 16:  ES64L-G16RevA.03 25-Dec-2016

 -----------------------------
 # opt freq b3lyp/6-31g(2df,p)
 -----------------------------

 -------------------
 Title Card Required
 -------------------
 Symbolic Z-matrix:
 Charge =  0 Multiplicity = 1

 SCF Done:  E(RB3LYP) =  -702.961683279     A.U. after   12 cycles
 SCF Done:  E(RB3LYP) =  -702.975419373     A.U. after   11 cycles
 SCF Done:  E(RB3LYP) =  -702.988078418     A.U. after   10 cycles
 SCF Done:  E(RB3LYP) =  -702.991832191     A.U. after   10 cycles
 SCF Done:  E(RB3LYP) =  -702.993211246     A.U. after   10 cycles
 SCF Done:  E(RB3LYP) =  -702.992754049     A.U. after   10 cycles
 SCF Done:  E(RB3LYP) =  -702.994394914     A.U. after   10 cycles
 SCF Done:  E(RB3LYP) =  -702.996469514     A.U. after   10 cycles
 SCF Done:  E(RB3LYP) =  -702.997483886     A.U. after   10 cycles
 SCF Done:  E(RB3LYP) =  -703.000278806     A.U. after   11 cycles
 SCF Done:  E(RB3LYP) =  -703.021474743     A.U. after    9 cycles
 SCF Done:  E(RB3LYP) =  -703.021518565     A.U. after    9 cycles
 SCF Done:  E(RB3LYP) =  -703.021567201     A.U. after   10 cycles
 SCF Done:  E(RB3LYP) =  -703.021594358     A.U. after    9 cycles
 SCF Done:  E(RB3LYP) =  -703.021607364     A.U. after    9 cycles
 SCF Done:  E(RB3LYP) =  -703.021616577     A.U. after    8 cycles
 SCF Done:  E(RB3LYP) =  -703.021618198     A.U. after    8 cycles
 SCF Done:  E(RB3LYP) =  -703.021618408     A.U. after    6 cycles
 SCF Done:  E(RB3LYP) =  -703.021618469     A.U. after    5 cycles
 Optimization completed.
    -- Stationary point found.
 Normal termination of Gaussian 16 at Wed May 24 00:02:41 2023.

 ----------------------------------------------------------------------
 #N Geom=AllCheck Guess=TCheck SCRF=Check GenChk RB3LYP/6-31G(2df,p) Fr
 eq
 ----------------------------------------------------------------------

 Structure from the checkpoint file:  "CCC1CCCCqCC2CCqOCrC2rC1CC.chk"
 -------------------
 Title Card Required
 -------------------
 Charge =  0 Multiplicity = 1

                         Standard orientation:
 ---------------------------------------------------------------------
 Center     Atomic      Atomic             Coordinates (Angstroms)
 Number     Number       Type             X           Y           Z
 ---------------------------------------------------------------------
      1          6           0        5.091793    0.003303   -0.000489
      2          6           0        3.995379    0.015132   -1.075145
      3          6           0        2.599240   -0.485203   -0.640835
      4          6           0        2.677616   -1.924254   -0.092007
      5          6           0        1.305064   -2.507856    0.257551
      6          6           0        0.547318   -1.580963    1.216425
      7          6           0        0.424387   -0.145015    0.668277
      8          6           0       -0.565276   -0.047739   -0.516772
      9          6           0       -2.028081   -0.220844   -0.120520
     10          6           0       -2.713456    0.887799    0.734055
     11          6           0       -3.971959    0.764739   -0.152003
     12          8           0       -4.922035   -0.049568    0.503248
     13          6           0       -6.092738   -0.259050   -0.250638
     14          6           0       -3.114753    0.009713   -1.211307
     15          6           0        1.839757    0.432356    0.357068
     16          6           0        1.753497    1.919900   -0.070721
     17          6           0        2.841527    2.837412    0.502549
     18          1           0        6.013097    0.447914   -0.390777
     19          1           0        5.333953   -1.013751    0.321173
     20          1           0        4.805909    0.570899    0.890227
     21          1           0        4.326945   -0.614491   -1.911554
     22          1           0        3.904433    1.025046   -1.490056
     23          1           0        1.997383   -0.516012   -1.561336
     24          1           0        3.298441   -1.928967    0.813777
     25          1           0        3.190534   -2.566245   -0.819498
     26          1           0        1.421993   -3.499460    0.710022
     27          1           0        0.723104   -2.660290   -0.660201
     28          1           0        1.088047   -1.544097    2.171949
     29          1           0       -0.442014   -1.992819    1.443387
     30          1           0        0.011698    0.481333    1.472038
     31          1           0       -0.318626   -0.788167   -1.287539
     32          1           0       -0.460992    0.930815   -1.001443
     33          1           0       -2.188951   -1.195326    0.349393
     34          1           0       -2.225788    1.860427    0.612606
     35          1           0       -2.876278    0.697114    1.796819
     36          1           0       -4.447872    1.699521   -0.483877
     37          1           0       -6.760940   -0.879868    0.351503
     38          1           0       -5.892824   -0.777334   -1.200649
     39          1           0       -6.601428    0.690819   -0.481089
     40          1           0       -2.764705    0.681628   -2.002281
     41          1           0       -3.566625   -0.871507   -1.673990
     42          1           0        2.385475    0.400159    1.312199
     43          1           0        0.785958    2.319956    0.256652
     44          1           0        1.747357    1.997938   -1.165434
     45          1           0        2.846948    2.797654    1.597804
     46          1           0        2.662729    3.878193    0.212142
     47          1           0        3.843423    2.568875    0.159139
 ---------------------------------------------------------------------

 SCF Done:  E(RB3LYP) =  -703.021618469     A.U. after    1 cycles

 The electronic state is 1-A.
 Alpha  occ. eigenvalues --  -19.13436 -10.22413 -10.21925 -10.17850 -10.17586
 Alpha  occ. eigenvalues --  -10.17569 -10.17520 -10.17329 -10.17272 -10.17189
 Alpha  occ. eigenvalues --  -10.17118 -10.17041 -10.16915 -10.16883 -10.16871
 Alpha  occ. eigenvalues --  -10.16861 -10.16757  -1.02773  -0.84186  -0.82840
 Alpha  occ. eigenvalues --   -0.77549  -0.76934  -0.73701  -0.70444  -0.69977
 Alpha  occ. eigenvalues --   -0.67163  -0.65425  -0.63301  -0.61382  -0.60049
 Alpha  occ. eigenvalues --   -0.57353  -0.55779  -0.53631  -0.52109  -0.48699
 Alpha  occ. eigenvalues --   -0.48025  -0.46260  -0.45660  -0.45178  -0.44518
 Alpha  occ. eigenvalues --   -0.43895  -0.42910  -0.42048  -0.41563  -0.40499
 Alpha  occ. eigenvalues --   -0.40046  -0.39121  -0.38644  -0.37934  -0.36786
 Alpha  occ. eigenvalues --   -0.36578  -0.35768  -0.34699  -0.34548  -0.33862
 Alpha  occ. eigenvalues --   -0.33694  -0.32897  -0.32339  -0.31655  -0.31609
 Alpha  occ. eigenvalues --   -0.30977  -0.30403  -0.29062  -0.28146  -0.27838
 Alpha  occ. eigenvalues --   -0.27467  -0.24233
 Alpha virt. eigenvalues --    0.07842   0.08574   0.08988   0.09483   0.10005
 Alpha virt. eigenvalues --    0.10814   0.12438   0.12631   0.13096   0.13698
 Alpha virt. eigenvalues --    0.14041   0.14710   0.15125   0.15314   0.15566

 Mulliken charges:
               1
     1  C   -0.375945
     2  C   -0.211341
     3  C    0.030904
     4  C   -0.192707
     5  C   -0.209672
     6  C   -0.220772
     7  C   -0.002540
     8  C   -0.228997
     9  C    0.051739
    10  C   -0.255398
    11  C    0.136950
    12  O   -0.246866
    13  C   -0.234705
    14  C   -0.286266
    15  C    0.025056
    16  C   -0.202222
    17  C   -0.396844
    18  H    0.108462
    19  H    0.114870
    20  H    0.118735
    21  H    0.088116
    22  H    0.094016
    23  H    0.065425
    24  H    0.092720
    25  H    0.082448
    26  H    0.086772
    27  H    0.094440
    28  H    0.086456
    29  H    0.091408
    30  H    0.065129
    31  H    0.093189
    32  H    0.086638
    33  H    0.081343
    34  H    0.095353
    35  H    0.106689
    36  H    0.055980
    37  H    0.124661
    38  H    0.104034
    39  H    0.101645
    40  H    0.093257
    41  H    0.098050
    42  H    0.058981
    43  H    0.092455
    44  H    0.094539
    45  H    0.111660
    46  H    0.107347
    47  H    0.124806
 Sum of Mulliken charges =  -0.00000

 Dipole moment (field-independent basis, Debye):
    X=             -0.0785    Y=              0.2118    Z=             -0.9420  Tot=              0.9687
 Quadrupole moment (field-independent basis, Debye-Ang):
   XX=           -107.7598   YY=           -108.8349   ZZ=           -109.7103
   XY=             -0.6821   XZ=              4.4821   YZ=             -0.0881

  Exact polarizability: 212.584   2.183 166.421  -0.122   0.042 145.165
 Approx polarizability: 247.514   0.941 239.667   1.219  -0.657 237.885

                      1                      2                      3
                      A                      A                      A
 Frequencies --     19.5537                40.0487                46.1026
 Red. masses --      3.5661                 3.1252                 3.1213
 Frc consts  --      0.0008                 0.0030                 0.0039
 IR Inten    --      0.1187                 0.3108                 0.2542

                      4                      5                      6
                      A                      A                      A
 Frequencies --     78.0511                88.4565               106.2578
 Red. masses --      3.1292                 2.5533                 2.4064
 Frc consts  --      0.0112                 0.0118                 0.0160
 IR Inten    --      0.1625                 0.1524                 0.7328

                      7                      8                      9
                      A                      A                      A
 Frequencies --    125.6551               140.2304               146.3402
 Red. masses --      3.2937                 2.1224                 2.5118
 Frc consts  --      0.0306                 0.0246                 0.0317
 IR Inten    --      0.0672                 1.4658                 0.1279

                     10                     11                     12
                      A                      A                      A
 Frequencies --    173.8157               199.2153               199.3012
 Red. masses --      1.7865                 1.5874                 1.3210
 Frc consts  --      0.0318                 0.0371                 0.0309
 IR Inten    --      0.0381                 0.2782                 0.7547

                     13                     14                     15
                      A                      A                      A
 Frequencies --    225.6197               251.1211               262.9906
 Red. masses --      1.5112                 1.8281                 2.3536
 Frc consts  --      0.0453                 0.0679                 0.0959
 IR Inten    --      0.3084                 0.4791                 1.1394

                     16                     17                     18
                      A                      A                      A
 Frequencies --    271.1769               299.3975               306.8658
 Red. masses --      2.3589                 2.2485                 2.0871
 Frc consts  --      0.1022                 0.1188                 0.1158
 IR Inten    --      0.4118                 0.1306                 0.1221

                     19                     20                     21
                      A                      A                      A
 Frequencies --    334.5090               360.8832               373.8043
 Red. masses --      2.3675                 2.5338                 2.2037
 Frc consts  --      0.1561                 0.1944                 0.1814
 IR Inten    --      1.1134                 0.7167                 0.8690

                     22                     23                     24
                      A                      A                      A
 Frequencies --    386.0594               417.9148               438.7747
 Red. masses --      2.5906                 2.4822                 1.9775
 Frc consts  --      0.2275                 0.2554                 0.2243
 IR Inten    --      0.9223                 0.9883                 0.5578

                     25                     26                     27
                      A                      A                      A
 Frequencies --    465.7544               486.6689               537.8885
 Red. masses --      2.3870                 2.1392                 2.9383
 Frc consts  --      0.3051                 0.2985                 0.5009
 IR Inten    --      1.1829                 0.0108                 0.6840

                     28                     29                     30
                      A                      A                      A
 Frequencies --    548.6876               622.3251               721.6029
 Red. masses --      2.4716                 2.5137                 2.6968
 Frc consts  --      0.4384                 0.5736                 0.8274
 IR Inten    --      0.0234                 1.8782                 2.4215

                     31                     32                     33
                      A                      A                      A
 Frequencies --    764.8542               775.4084               791.9283
 Red. masses --      1.4002                 1.2860                 2.0864
 Frc consts  --      0.4826                 0.4556                 0.7709
 IR Inten    --      0.8729                 3.2052                 0.9316

                     34                     35                     36
                      A                      A                      A
 Frequencies --    796.8275               824.4405               833.6309
 Red. masses --      1.6606                 1.9693                 1.9782
 Frc consts  --      0.6212                 0.7886                 0.8100
 IR Inten    --      0.9287                 4.6769                 9.3507

                     37                     38                     39
                      A                      A                      A
 Frequencies --    834.6005               871.7480               880.3230
 Red. masses --      1.9652                 2.1557                 1.9677
 Frc consts  --      0.8065                 0.9652                 0.8985
 IR Inten    --      1.7219                 1.3798                 1.4534

                     40                     41                     42
                      A                      A                      A
 Frequencies --    897.6911               923.1191               932.4217
 Red. masses --      2.4514                 2.1137                 2.2001
 Frc consts  --      1.1639                 1.0612                 1.1270
 IR Inten    --      1.6664                 3.0345                 1.3516

                     43                     44                     45
                      A                      A                      A
 Frequencies --    939.0981               966.8552               975.2812
 Red. masses --      1.6605                 2.3104                 1.9710
 Frc consts  --      0.8628                 1.2725                 1.1046
 IR Inten    --      6.5911                 4.4601                 1.9887

                     46                     47                     48
                      A                      A                      A
 Frequencies --    987.6907               998.1732              1023.6637
 Red. masses --      2.1273                 1.7359                 2.3045
 Frc consts  --      1.2227                 1.0190                 1.4228
 IR Inten    --      1.0016                 0.6142                 2.2358

                     49                     50                     51
                      A                      A                      A
 Frequencies --   1037.8611              1044.0876              1050.4552
 Red. masses --      1.9574                 1.4754                 2.0179
 Frc consts  --      1.2422                 0.9476                 1.3119
 IR Inten    --      0.3266                 0.5405                 0.3795

                     52                     53                     54
                      A                      A                      A
 Frequencies --   1067.7479              1084.5353              1092.0664
 Red. masses --      1.8388                 1.5410                 2.0033
 Frc consts  --      1.2352                 1.0679                 1.4077
 IR Inten    --      4.9617                 3.1157                 1.3871

                     55                     56                     57
                      A                      A                      A
 Frequencies --   1099.1552              1106.3055              1112.1789
 Red. masses --      1.7277                 1.6517                 2.0999
 Frc consts  --      1.2298                 1.1911                 1.5304
 IR Inten    --     12.1638                20.6286                 0.7503

                     58                     59                     60
                      A                      A                      A
 Frequencies --   1123.4698              1146.2666              1154.6879
 Red. masses --      1.5952                 2.9461                 2.2054
 Frc consts  --      1.1863                 2.2807                 1.7324
 IR Inten    --      1.3649                73.5957                14.4185

                     61                     62                     63
                      A                      A                      A
 Frequencies --   1165.6901              1181.6248              1185.0850
 Red. masses --      2.0533                 1.5943                 1.3584
 Frc consts  --      1.6439                 1.3115                 1.1240
 IR Inten    --     37.1493                 1.3657                 4.5579

                     64                     65                     66
                      A                      A                      A
 Frequencies --   1213.3479              1221.3679              1234.2035
 Red. masses --      1.7320                 1.5167                 1.5841
 Frc consts  --      1.5024                 1.3331                 1.4217
 IR Inten    --      9.2540                 1.8107                 1.8319

                     67                     68                     69
                      A                      A                      A
 Frequencies --   1244.1659              1255.1136              1266.6274
 Red. masses --      1.5880                 1.3588                 1.3861
 Frc consts  --      1.4483                 1.2612                 1.3102
 IR Inten    --     23.5640                12.7277                 7.4988

                     70                     71                     72
                      A                      A                      A
 Frequencies --   1271.3412              1275.7096              1291.2179
 Red. masses --      1.4037                 1.3970                 1.3895
 Frc consts  --      1.3367                 1.3395                 1.3649
 IR Inten    --      1.5774                 1.8929                 3.7888

                     73                     74                     75
                      A                      A                      A
 Frequencies --   1294.8054              1300.9986              1304.4803
 Red. masses --      1.3212                 1.2438                 1.2269
 Frc consts  --      1.3051                 1.2404                 1.2301
 IR Inten    --      2.7940                 1.3654                 1.7616

                     76                     77                     78
                      A                      A                      A
 Frequencies --   1323.7487              1325.5697              1339.8688
 Red. masses --      1.2827                 1.3209                 1.2228
 Frc consts  --      1.3243                 1.3675                 1.2934
 IR Inten    --      1.4709                 6.2810                 1.4404

                     79                     80                     81
                      A                      A                      A
 Frequencies --   1347.8289              1369.0110              1370.0105
 Red. masses --      1.4160                 1.4026                 1.3578
 Frc consts  --      1.5156                 1.5488                 1.5016
 IR Inten    --      5.0443                 3.5265                 3.1085

                     82                     83                     84
                      A                      A                      A
 Frequencies --   1377.5912              1381.9004              1383.6675
 Red. masses --      1.4460                 1.3829                 1.3088
 Frc consts  --      1.6168                 1.5559                 1.4763
 IR Inten    --      0.9237                24.0736                26.7958

                     85                     86                     87
                      A                      A                      A
 Frequencies --   1389.1338              1393.1269              1401.3543
 Red. masses --      1.4228                 1.4265                 1.3739
 Frc consts  --      1.6177                 1.6312                 1.5897
 IR Inten    --      6.1376                 5.5327                 0.4483

                     88                     89                     90
                      A                      A                      A
 Frequencies --   1411.4914              1412.5078              1416.9090
 Red. masses --      1.2657                 1.3625                 1.2784
 Frc consts  --      1.4857                 1.6016                 1.5122
 IR Inten    --      2.0863                 0.4718                 9.2040

                     91                     92                     93
                      A                      A                      A
 Frequencies --   1457.3621              1477.3550              1481.0859
 Red. masses --      1.0908                 1.1121                 1.1304
 Frc consts  --      1.3650                 1.4301                 1.4610
 IR Inten    --      2.3548                 2.7738                 2.1079

                     94                     95                     96
                      A                      A                      A
 Frequencies --   1482.7800              1484.5178              1485.7273
 Red. masses --      1.0861                 1.0904                 1.0889
 Frc consts  --      1.4070                 1.4158                 1.4162
 IR Inten    --      1.2936                 0.6427                 3.7610

                     97                     98                     99
                      A                      A                      A
 Frequencies --   1487.2117              1492.1019              1494.5599
 Red. masses --      1.0659                 1.0521                 1.0804
 Frc consts  --      1.3890                 1.3800                 1.4219
 IR Inten    --      3.1681                 0.9627                 9.5462

                    100                    101                    102
                      A                      A                      A
 Frequencies --   1502.5027              1503.5025              1504.7291
 Red. masses --      1.0532                 1.0604                 1.0637
 Frc consts  --      1.4008                 1.4123                 1.4190
 IR Inten    --      6.9516                 1.6936                 5.4188

                    103                    104                    105
                      A                      A                      A
 Frequencies --   1506.3347              1510.5711              1515.8443
 Red. masses --      1.0860                 1.0608                 1.0572
 Frc consts  --      1.4519                 1.4262                 1.4312
 IR Inten    --      0.5533                 6.1175                 1.8441

                    106                    107                    108
                      A                      A                      A
 Frequencies --   2969.9763              2976.7847              2983.3132
 Red. masses --      1.0427                 1.0796                 1.0798
 Frc consts  --      5.4188                 5.6366                 5.6624
 IR Inten    --     39.6549                 3.0332               108.3864

                    109                    110                    111
                      A                      A                      A
 Frequencies --   2990.4327              2993.8422              3011.3133
 Red. masses --      1.0807                 1.0809                 1.0603
 Frc consts  --      5.6942                 5.7082                 5.6648
 IR Inten    --     20.3578                13.2900                39.9677

                    112                    113                    114
                      A                      A                      A
 Frequencies --   3015.1405              3016.3796              3017.9199
 Red. masses --      1.0622                 1.0689                 1.1007
 Frc consts  --      5.6894                 5.7299                 5.9064
 IR Inten    --     26.5217                39.7468                45.9278

                    115                    116                    117
                      A                      A                      A
 Frequencies --   3019.2523              3021.2053              3027.4047
 Red. masses --      1.0661                 1.0648                 1.0618
 Frc consts  --      5.7257                 5.7263                 5.7335
 IR Inten    --     20.9275                22.2167                16.0197

                    118                    119                    120
                      A                      A                      A
 Frequencies --   3032.5522              3039.5945              3044.6396
 Red. masses --      1.0413                 1.0386                 1.0598
 Frc consts  --      5.6424                 5.6534                 5.7880
 IR Inten    --     29.8074                26.6172                36.5290

                    121                    122                    123
                      A                      A                      A
 Frequencies --   3047.2024              3048.7115              3050.5512
 Red. masses --      1.0968                 1.0960                 1.0882
 Frc consts  --      6.0002                 6.0018                 5.9667
 IR Inten    --      8.5623                37.0221                51.5039

                    124                    125                    126
                      A                      A                      A
 Frequencies --   3053.8089              3058.2950              3061.3951
 Red. masses --      1.0669                 1.0947                 1.0951
 Frc consts  --      5.8620                 6.0324                 6.0469
 IR Inten    --      2.8623                30.8419                39.9729

                    127                    128                    129
                      A                      A                      A
 Frequencies --   3064.1908              3072.4921              3091.9133
 Red. masses --      1.0982                 1.0934                 1.1009
 Frc consts  --      6.0754                 6.0815                 6.2007
 IR Inten    --     86.0619                40.7784                35.4756

                    130                    131                    132
                      A                      A                      A
 Frequencies --   3101.6450              3103.8015              3110.4333
 Red. masses --      1.0998                 1.1050                 1.0969
 Frc consts  --      6.2340                 6.2722                 6.2528
 IR Inten    --     42.5979                38.6619                35.1178

                    133                    134                    135
                      A                      A                      A
 Frequencies --   3110.4751              3117.1674              3122.3838
 Red. masses --      1.1004                 1.1048                 1.0979
 Frc consts  --      6.2727                 6.3249                 6.3063
 IR Inten    --     48.0215                27.2865                18.9553

 - Thermochemistry -
 -------------------
 Temperature   298.150 Kelvin.  Pressure   1.00000 Atm.
 Atom     1 has atomic number  6 and mass  12.00000

 Molecular mass:   238.22967 amu.
 Principal axes and moments of inertia in atomic units:
                           1         2         3
     Eigenvalues --  1884.776129453.82241**********
           X            0.99998   0.00400   0.00447
           Y           -0.00401   0.99999   0.00308
           Z           -0.00446  -0.00309   0.99999
 This molecule is an asymmetric top.
 Rotational symmetry number  1.
 Warning -- assumption of classical behavior for rotation
           may cause significant error
 Rotational temperatures (Kelvin)      0.04595     0.00916     0.00827
 Rotational constants (GHZ):           0.95754     0.19090     0.17240
 Zero-point vibrational energy    1141964.5 (Joules/Mol)
                                  272.93605 (Kcal/Mol)
 Warning -- explicit consideration of  28 degrees of freedom as
           vibrations may cause significant error
 Vibrational temperatures:     28.13    57.62    66.33   112.30   127.27
          (Kelvin)            152.88   180.79   201.76   210.55   250.08
                              286.63   286.75   324.62   361.31   378.38
                              390.16   430.77   441.51   481.28   519.23
                              537.82   555.45   601.29   631.30   670.12
                              700.21   773.90   789.44   895.39  1038.23
                             1100.45  1115.64  1139.41  1146.46  1186.19
                             1199.41  1200.80  1254.25  1266.59  1291.58
                             1328.16  1341.55  1351.15  1391.09  1403.21
                             1421.07  1436.15  1472.82  1493.25  1502.21
                             1511.37  1536.25  1560.40  1571.24  1581.44
                             1591.73  1600.18  1616.42  1649.22  1661.34
                             1677.17  1700.09  1705.07  1745.74  1757.28
                             1775.74  1790.08  1805.83  1822.39  1829.18
                             1835.46  1857.77  1862.94  1871.85  1876.86
                             1904.58  1907.20  1927.77  1939.23  1969.70
                             1971.14  1982.05  1988.25  1990.79  1998.65
                             2004.40  2016.24  2030.82  2032.28  2038.62
                             2096.82  2125.58  2130.95  2133.39  2135.89
                             2137.63  2139.77  2146.80  2150.34  2161.77
                             2163.20  2164.97  2167.28  2173.37  2180.96
                             4273.13  4282.93  4292.32  4302.57  4307.47
                             4332.61  4338.11  4339.90  4342.11  4344.03
                             4346.84  4355.76  4363.17  4373.30  4380.56
                             4384.24  4386.42  4389.06  4393.75  4400.20
                             4404.66  4408.69  4420.63  4448.57  4462.58
                             4465.68  4475.22  4475.28  4484.91  4492.41

 Zero-point correction=                           0.434951 (Hartree/Particle)
 Thermal correction to Energy=                    0.453982
 Thermal correction to Enthalpy=                  0.454926
 Thermal correction to Gibbs Free Energy=         0.387176
 Sum of electronic and zero-point Energies=           -702.586667
 Sum of electronic and thermal Energies=              -702.567636
 Sum of electronic and thermal Enthalpies=            -702.566692
 Sum of electronic and thermal Free Energies=         -702.634443

                     E (Thermal)             CV                S
                      KCal/Mol        Cal/Mol-Kelvin    Cal/Mol-Kelvin
 Total                  284.878             73.548            142.593
 Electronic               0.000              0.000              0.000
 Translational            0.889              2.981             42.306
 Rotational               0.889              2.981             33.589
 Vibrational            283.101             67.587             66.699
 Vibration     1          0.593              1.986              6.679
 Vibration     2          0.594              1.981              5.257
 Vibration     3          0.595              1.979              4.978
 Vibration     4          0.599              1.964              3.939
 Vibration     5          0.601              1.957              3.694
 Vibration     6          0.605              1.944              3.336
 Vibration     7          0.611              1.927              3.011
 Vibration     8          0.615              1.913              2.801
 Vibration     9          0.617              1.907              2.719
 Vibration    10          0.627              1.875              2.394
 Vibration    11          0.637              1.841              2.140
 Vibration    12          0.637              1.841              2.140
 Vibration    13          0.650              1.802              1.914
 Vibration    14          0.663              1.761              1.723
 Vibration    15          0.670              1.741              1.642
 Vibration    16          0.675              1.726              1.589
 Vibration    17          0.692              1.675              1.420
 Vibration    18          0.697              1.661              1.379
 Vibration    19          0.716              1.607              1.238
 Vibration    20          0.735              1.553              1.118
 Vibration    21          0.745              1.526              1.064
 Vibration    22          0.755              1.500              1.015
 Vibration    23          0.781              1.431              0.899
 Vibration    24          0.799              1.386              0.830
 Vibration    25          0.823              1.326              0.750
 Vibration    26          0.843              1.280              0.692
 Vibration    27          0.893              1.166              0.570
 Vibration    28          0.904              1.143              0.547

                           ! Non-Optimized Parameters !
 Normal termination of Gaussian 16 at Wed May 24 05:38:39 2023.
