 Gaussian 16, Revision A.03,
 Gaussian 16:  ES64L-G16RevA.03 25-Dec-2016

 -----------------------------
 # opt freq b3lyp/6-31g(2df,p)
 -----------------------------

 -------------------
 Title Card Required
 -------------------
 Symbolic Z-matrix:
 Charge =  0 Multiplicity = 1

 SCF Done:  E(RB3LYP) =  -945.154003701     A.U. after   12 cycles
 SCF Done:  E(RB3LYP) =  -945.165380026     A.U. after   11 cycles
 SCF Done:  E(RB3LYP) =  -945.168196503     A.U. after   10 cycles
 SCF Done:  E(RB3LYP) =  -945.169147893     A.U. after   10 cycles
 SCF Done:  E(RB3LYP) =  -945.169848510     A.U. after    9 cycles
 SCF Done:  E(RB3LYP) =  -945.169908011     A.U. after   12 cycles
 SCF Done:  E(RB3LYP) =  -945.171188411     A.U. after   10 cycles
 SCF Done:  E(RB3LYP) =  -945.171500232     A.U. after    9 cycles
 SCF Done:  E(RB3LYP) =  -945.171731734     A.U. after    9 cycles
 SCF Done:  E(RB3LYP) =  -945.171782318     A.U. after    9 cycles
 SCF Done:  E(RB3LYP) =  -945.171816449     A.U. after    9 cycles
 SCF Done:  E(RB3LYP) =  -945.171841519     A.U. after    8 cycles
 SCF Done:  E(RB3LYP) =  -945.171845036     A.U. after    7 cycles
 SCF Done:  E(RB3LYP) =  -945.171845435     A.U. after    6 cycles
 SCF Done:  E(RB3LYP) =  -945.171845575     A.U. after    6 cycles
 SCF Done:  E(RB3LYP) =  -945.171845591     A.U. after    5 cycles
 Optimization completed.
    -- Stationary point found.
 Normal termination of Gaussian 16 at Tue May 23 09:06:52 2023.

 ----------------------------------------------------------------------
 #N Geom=AllCheck Guess=TCheck SCRF=Check GenChk RB3LYP/6-31G(2df,p) Fr
 eq
 ----------------------------------------------------------------------

 Structure from the checkpoint file:  "CCC1CCqCrqCOCrCCCCS1.chk"
 -------------------
 Title Card Required
 -------------------
 Charge =  0 Multiplicity = 1

                         Standard orientation:
 ---------------------------------------------------------------------
 Center     Atomic      Atomic             Coordinates (Angstroms)
 Number     Number       Type             X           Y           Z
 ---------------------------------------------------------------------
      1          6           0       -2.004683   -3.177717    0.961915
      2          6           0       -2.409819   -2.068800   -0.017498
      3          6           0       -1.530979   -0.797555    0.045317
      4          6           0       -0.089193   -1.092876   -0.388569
      5          6           0        1.025066   -0.021868   -0.213613
      6          6           0        1.138424    0.889377   -1.449696
      7          6           0        2.333105   -0.841963   -0.122836
      8          8           0        3.452022    0.017636   -0.103768
      9          6           0        4.674914   -0.670482   -0.012105
     10          6           0        0.907955    0.776848    1.119226
     11          6           0        0.177096    2.133595    1.169471
     12          6           0       -1.359905    2.213547    1.099087
     13          6           0       -1.992539    2.118605   -0.295471
     14         16           0       -2.427732    0.456547   -0.969796
     15          1           0       -2.739295   -3.988712    0.936931
     16          1           0       -1.962250   -2.802311    1.990742
     17          1           0       -1.030743   -3.615630    0.725421
     18          1           0       -3.442815   -1.773320    0.190276
     19          1           0       -2.403594   -2.461416   -1.042536
     20          1           0       -1.545821   -0.440203    1.077997
     21          1           0       -0.105448   -1.418601   -1.436182
     22          1           0        0.222934   -1.968908    0.196736
     23          1           0        1.395410    0.290400   -2.330634
     24          1           0        1.929488    1.631235   -1.316606
     25          1           0        0.202617    1.400723   -1.672344
     26          1           0        2.400379   -1.529493   -0.983902
     27          1           0        2.321447   -1.463173    0.790478
     28          1           0        5.472502    0.076574   -0.000241
     29          1           0        4.830819   -1.343056   -0.870559
     30          1           0        4.738047   -1.272833    0.908352
     31          1           0        1.935421    0.994663    1.428359
     32          1           0        0.499416    0.115326    1.895652
     33          1           0        0.592933    2.796960    0.401074
     34          1           0        0.465616    2.586961    2.126257
     35          1           0       -1.636535    3.203624    1.484111
     36          1           0       -1.823434    1.499023    1.788943
     37          1           0       -1.353030    2.631788   -1.019863
     38          1           0       -2.953184    2.640278   -0.292964
 ---------------------------------------------------------------------

 SCF Done:  E(RB3LYP) =  -945.171845591     A.U. after    1 cycles

 The electronic state is 1-A.
 Alpha  occ. eigenvalues --  -88.84992 -19.13989 -10.22448 -10.22109 -10.20972
 Alpha  occ. eigenvalues --  -10.20453 -10.19176 -10.18678 -10.18222 -10.17911
 Alpha  occ. eigenvalues --  -10.17732 -10.17622 -10.17293 -10.15945  -7.91319
 Alpha  occ. eigenvalues --   -5.87808  -5.87450  -5.86846  -1.03341  -0.83488
 Alpha  occ. eigenvalues --   -0.79748  -0.79145  -0.74190  -0.71539  -0.69324
 Alpha  occ. eigenvalues --   -0.68169  -0.66049  -0.62784  -0.60670  -0.57954
 Alpha  occ. eigenvalues --   -0.55495  -0.51923  -0.48932  -0.47796  -0.47366
 Alpha  occ. eigenvalues --   -0.45630  -0.44702  -0.43808  -0.43361  -0.43086
 Alpha  occ. eigenvalues --   -0.42004  -0.40414  -0.39424  -0.39160  -0.38837
 Alpha  occ. eigenvalues --   -0.38036  -0.36118  -0.35555  -0.34607  -0.34486
 Alpha  occ. eigenvalues --   -0.33825  -0.32919  -0.32541  -0.31396  -0.30674
 Alpha  occ. eigenvalues --   -0.30061  -0.29504  -0.28017  -0.25429  -0.20710
 Alpha virt. eigenvalues --    0.05106   0.06845   0.08055   0.09013   0.09236
 Alpha virt. eigenvalues --    0.10495   0.11829   0.12428   0.13352   0.13614
 Alpha virt. eigenvalues --    0.14040   0.14663   0.15478   0.15610   0.16074

 Mulliken charges:
               1
     1  C   -0.398655
     2  C   -0.176404
     3  C   -0.004741
     4  C   -0.230843
     5  C    0.246133
     6  C   -0.430904
     7  C   -0.072477
     8  O   -0.236698
     9  C   -0.228530
    10  C   -0.233427
    11  C   -0.202338
    12  C   -0.202481
    13  C   -0.199132
    14  S   -0.201431
    15  H    0.117246
    16  H    0.114250
    17  H    0.122055
    18  H    0.117373
    19  H    0.107541
    20  H    0.098859
    21  H    0.101881
    22  H    0.090470
    23  H    0.103698
    24  H    0.122996
    25  H    0.130741
    26  H    0.081010
    27  H    0.078208
    28  H    0.126034
    29  H    0.104192
    30  H    0.102597
    31  H    0.113290
    32  H    0.083247
    33  H    0.101866
    34  H    0.094727
    35  H    0.101476
    36  H    0.107554
    37  H    0.123121
    38  H    0.127494
 Sum of Mulliken charges =   0.00000

 Dipole moment (field-independent basis, Debye):
    X=              1.3340    Y=             -0.6358    Z=              1.5185  Tot=              2.1188
 Quadrupole moment (field-independent basis, Debye-Ang):
   XX=            -97.4477   YY=            -91.5074   ZZ=            -98.5603
   XY=             -3.3979   XZ=             -3.2177   YZ=              1.0422

  Exact polarizability: 165.828  -1.839 159.798   2.178   0.805 129.348
 Approx polarizability: 214.556  -2.102 231.218   4.265  -0.340 207.682

                      1                      2                      3
                      A                      A                      A
 Frequencies --     55.1370                58.8821                76.9344
 Red. masses --      2.5400                 3.5307                 2.8676
 Frc consts  --      0.0045                 0.0072                 0.0100
 IR Inten    --      0.0428                 0.7063                 2.2574

                      4                      5                      6
                      A                      A                      A
 Frequencies --     90.5158               101.8992               122.1538
 Red. masses --      2.8254                 2.1366                 2.2103
 Frc consts  --      0.0136                 0.0131                 0.0194
 IR Inten    --      1.6052                 0.5689                 1.5102

                      7                      8                      9
                      A                      A                      A
 Frequencies --    165.9091               194.3171               201.4136
 Red. masses --      2.2340                 2.6542                 2.5860
 Frc consts  --      0.0362                 0.0590                 0.0618
 IR Inten    --      0.4197                 0.0997                 0.5133

                     10                     11                     12
                      A                      A                      A
 Frequencies --    215.8444               232.7648               234.1537
 Red. masses --      2.7683                 1.5105                 1.3788
 Frc consts  --      0.0760                 0.0482                 0.0445
 IR Inten    --      0.4505                 0.5052                 1.6286

                     13                     14                     15
                      A                      A                      A
 Frequencies --    241.8426               253.1430               305.9072
 Red. masses --      2.2261                 1.4538                 2.3518
 Frc consts  --      0.0767                 0.0549                 0.1297
 IR Inten    --      0.7474                 1.2822                 1.2114

                     16                     17                     18
                      A                      A                      A
 Frequencies --    325.0149               337.2579               346.0566
 Red. masses --      2.7289                 2.3592                 2.6194
 Frc consts  --      0.1698                 0.1581                 0.1848
 IR Inten    --      0.4342                 0.0608                 0.9296

                     19                     20                     21
                      A                      A                      A
 Frequencies --    371.1414               391.7794               403.1649
 Red. masses --      2.9543                 2.2648                 2.0848
 Frc consts  --      0.2398                 0.2048                 0.1997
 IR Inten    --      0.1716                 1.2489                 0.1282

                     22                     23                     24
                      A                      A                      A
 Frequencies --    416.6949               453.3071               509.2225
 Red. masses --      3.0360                 1.7595                 2.5185
 Frc consts  --      0.3106                 0.2130                 0.3848
 IR Inten    --      2.4128                 0.3241                 0.4912

                     25                     26                     27
                      A                      A                      A
 Frequencies --    613.5159               633.5856               686.6210
 Red. masses --      2.6416                 3.7341                 3.9197
 Frc consts  --      0.5858                 0.8832                 1.0888
 IR Inten    --      0.1105                 0.6516                 1.5737

                     28                     29                     30
                      A                      A                      A
 Frequencies --    705.7372               781.2435               807.1232
 Red. masses --      2.8085                 1.2590                 2.2585
 Frc consts  --      0.8242                 0.4527                 0.8669
 IR Inten    --      1.2014                 2.0164                 0.9569

                     31                     32                     33
                      A                      A                      A
 Frequencies --    841.1545               861.9501               893.6838
 Red. masses --      1.9115                 1.5517                 1.7666
 Frc consts  --      0.7968                 0.6792                 0.8313
 IR Inten    --      4.9433                 4.9734                 2.9965

                     34                     35                     36
                      A                      A                      A
 Frequencies --    902.9159               919.0405               936.4840
 Red. masses --      2.3261                 1.8431                 2.2141
 Frc consts  --      1.1173                 0.9172                 1.1441
 IR Inten    --     10.2195                 3.0832                 0.4174

                     37                     38                     39
                      A                      A                      A
 Frequencies --    959.8504               976.3933              1016.8453
 Red. masses --      1.9553                 1.9146                 2.6072
 Frc consts  --      1.0614                 1.0754                 1.5883
 IR Inten    --      5.0131                 5.6001                 8.9012

                     40                     41                     42
                      A                      A                      A
 Frequencies --   1023.8794              1031.1810              1042.6862
 Red. masses --      1.8776                 2.3990                 1.7835
 Frc consts  --      1.1597                 1.5030                 1.1425
 IR Inten    --      1.8900                 0.9728                 0.5964

                     43                     44                     45
                      A                      A                      A
 Frequencies --   1059.1043              1094.7920              1109.3032
 Red. masses --      2.3379                 1.9762                 2.0190
 Frc consts  --      1.5451                 1.3955                 1.4638
 IR Inten    --      1.2026                 4.8152                 1.9763

                     46                     47                     48
                      A                      A                      A
 Frequencies --   1118.3814              1127.5503              1153.5475
 Red. masses --      1.5211                 1.8396                 2.4787
 Frc consts  --      1.1210                 1.3780                 1.9433
 IR Inten    --      2.1605                 6.8213                99.0490

                     49                     50                     51
                      A                      A                      A
 Frequencies --   1160.4555              1181.1127              1192.6926
 Red. masses --      2.3938                 1.4250                 1.5136
 Frc consts  --      1.8993                 1.1713                 1.2686
 IR Inten    --     92.9883                 0.2264                13.6107

                     52                     53                     54
                      A                      A                      A
 Frequencies --   1212.9307              1232.0408              1237.8406
 Red. masses --      2.1203                 1.5359                 1.4536
 Frc consts  --      1.8379                 1.3736                 1.3123
 IR Inten    --     46.3651                17.5986                 7.6274

                     55                     56                     57
                      A                      A                      A
 Frequencies --   1251.3571              1260.0982              1283.5880
 Red. masses --      1.2365                 1.2890                 1.3224
 Frc consts  --      1.1408                 1.2059                 1.2837
 IR Inten    --      1.2145                 1.8934                 2.2690

                     58                     59                     60
                      A                      A                      A
 Frequencies --   1301.2256              1322.6717              1330.8465
 Red. masses --      1.2345                 1.1993                 1.2305
 Frc consts  --      1.2315                 1.2361                 1.2841
 IR Inten    --      2.2910                25.7484                 7.1536

                     61                     62                     63
                      A                      A                      A
 Frequencies --   1336.3119              1359.2013              1370.5480
 Red. masses --      1.2424                 1.2885                 1.3219
 Frc consts  --      1.3071                 1.4025                 1.4629
 IR Inten    --      2.2165                 7.1250                 4.7243

                     64                     65                     66
                      A                      A                      A
 Frequencies --   1382.0287              1382.1531              1394.7462
 Red. masses --      1.3788                 1.3301                 1.3459
 Frc consts  --      1.5516                 1.4970                 1.5426
 IR Inten    --      5.8745                 2.5391                 5.1929

                     67                     68                     69
                      A                      A                      A
 Frequencies --   1399.2383              1411.2028              1413.0294
 Red. masses --      1.3001                 1.2994                 1.2528
 Frc consts  --      1.4997                 1.5246                 1.4738
 IR Inten    --      6.9182                 5.3038                 2.9512

                     70                     71                     72
                      A                      A                      A
 Frequencies --   1428.3144              1467.1123              1477.1405
 Red. masses --      1.2737                 1.0837                 1.0790
 Frc consts  --      1.5310                 1.3744                 1.3871
 IR Inten    --      6.9781                 2.2447                 6.5942

                     73                     74                     75
                      A                      A                      A
 Frequencies --   1479.4153              1481.9563              1484.8140
 Red. masses --      1.1217                 1.0905                 1.0879
 Frc consts  --      1.4465                 1.4110                 1.4131
 IR Inten    --      1.6600                 3.1729                 3.1866

                     76                     77                     78
                      A                      A                      A
 Frequencies --   1485.4289              1488.5397              1491.3551
 Red. masses --      1.0472                 1.0650                 1.0779
 Frc consts  --      1.3614                 1.3903                 1.4126
 IR Inten    --      4.9627                 1.6339                 6.4939

                     79                     80                     81
                      A                      A                      A
 Frequencies --   1498.2689              1499.5600              1502.2333
 Red. masses --      1.0723                 1.0517                 1.0606
 Frc consts  --      1.4183                 1.3934                 1.4101
 IR Inten    --      0.5205                 8.9911                 8.9103

                     82                     83                     84
                      A                      A                      A
 Frequencies --   1507.8912              1509.0762              1525.1071
 Red. masses --      1.0657                 1.0612                 1.0883
 Frc consts  --      1.4276                 1.4239                 1.4915
 IR Inten    --      3.0750                 5.4695                 1.8198

                     85                     86                     87
                      A                      A                      A
 Frequencies --   2936.1660              2968.3558              2970.9026
 Red. masses --      1.0537                 1.0480                 1.0935
 Frc consts  --      5.3521                 5.4405                 5.6866
 IR Inten    --     32.4586                73.1576                60.3830

                     88                     89                     90
                      A                      A                      A
 Frequencies --   3003.2552              3010.2839              3011.2267
 Red. masses --      1.0612                 1.0676                 1.1023
 Frc consts  --      5.6396                 5.7000                 5.8887
 IR Inten    --     25.2460                23.3477                55.3345

                     91                     92                     93
                      A                      A                      A
 Frequencies --   3013.3485              3026.0476              3027.3982
 Red. masses --      1.0667                 1.0620                 1.0641
 Frc consts  --      5.7069                 5.7297                 5.7461
 IR Inten    --     11.6422                41.6959                 6.4076

                     94                     95                     96
                      A                      A                      A
 Frequencies --   3033.2763              3042.7884              3044.3427
 Red. masses --      1.0378                 1.0495                 1.0675
 Frc consts  --      5.6261                 5.7248                 5.8291
 IR Inten    --     27.6953                 9.5793                 9.1796

                     97                     98                     99
                      A                      A                      A
 Frequencies --   3048.8311              3053.3854              3065.3351
 Red. masses --      1.0895                 1.0943                 1.0919
 Frc consts  --      5.9666                 6.0112                 6.0450
 IR Inten    --     22.3021                32.8649                29.3792

                    100                    101                    102
                      A                      A                      A
 Frequencies --   3069.3890              3072.5027              3083.5168
 Red. masses --      1.0915                 1.0942                 1.0897
 Frc consts  --      6.0586                 6.0861                 6.1044
 IR Inten    --     23.4213                16.2400                27.9427

                    103                    104                    105
                      A                      A                      A
 Frequencies --   3090.8698              3098.9946              3108.8743
 Red. masses --      1.1051                 1.1003                 1.0940
 Frc consts  --      6.2204                 6.2260                 6.2298
 IR Inten    --     20.8778                36.8379                22.3426

                    106                    107                    108
                      A                      A                      A
 Frequencies --   3110.9221              3111.1669              3159.2138
 Red. masses --      1.0998                 1.0965                 1.0972
 Frc consts  --      6.2712                 6.2531                 6.4520
 IR Inten    --     56.1622                17.3617                16.3523

 - Thermochemistry -
 -------------------
 Temperature   298.150 Kelvin.  Pressure   1.00000 Atm.
 Atom     1 has atomic number  6 and mass  12.00000

 Molecular mass:   216.15479 amu.
 Principal axes and moments of inertia in atomic units:
                           1         2         3
     Eigenvalues --  2365.545384514.822675766.82242
           X            0.99992   0.00422  -0.01221
           Y           -0.00426   0.99998  -0.00351
           Z            0.01219   0.00356   0.99992
 This molecule is an asymmetric top.
 Rotational symmetry number  1.
 Warning -- assumption of classical behavior for rotation
           may cause significant error
 Rotational temperatures (Kelvin)      0.03661     0.01918     0.01502
 Rotational constants (GHZ):           0.76293     0.39974     0.31295
 Zero-point vibrational energy     904992.6 (Joules/Mol)
                                  216.29843 (Kcal/Mol)
 Warning -- explicit consideration of  25 degrees of freedom as
           vibrations may cause significant error
 Vibrational temperatures:     79.33    84.72   110.69   130.23   146.61
          (Kelvin)            175.75   238.71   279.58   289.79   310.55
                              334.90   336.89   347.96   364.22   440.13
                              467.62   485.24   497.90   533.99   563.68
                              580.06   599.53   652.21   732.66   882.71
                              911.59   987.89  1015.40  1124.04  1161.27
                             1210.23  1240.15  1285.81  1299.09  1322.29
                             1347.39  1381.01  1404.81  1463.01  1473.13
                             1483.64  1500.19  1523.81  1575.16  1596.04
                             1609.10  1622.29  1659.70  1669.64  1699.36
                             1716.02  1745.14  1772.63  1780.98  1800.42
                             1813.00  1846.80  1872.17  1903.03  1914.79
                             1922.65  1955.59  1971.91  1988.43  1988.61
                             2006.73  2013.19  2030.41  2033.03  2055.03
                             2110.85  2125.28  2128.55  2132.20  2136.32
                             2137.20  2141.68  2145.73  2155.67  2157.53
                             2161.38  2169.52  2171.22  2194.29  4224.49
                             4270.80  4274.47  4321.01  4331.13  4332.48
                             4335.54  4353.81  4355.75  4364.21  4377.89
                             4380.13  4386.59  4393.14  4410.33  4416.17
                             4420.65  4436.49  4447.07  4458.76  4472.98
                             4475.92  4476.28  4545.40

 Zero-point correction=                           0.344693 (Hartree/Particle)
 Thermal correction to Energy=                    0.361381
 Thermal correction to Enthalpy=                  0.362326
 Thermal correction to Gibbs Free Energy=         0.301246
 Sum of electronic and zero-point Energies=           -944.827152
 Sum of electronic and thermal Energies=              -944.810464
 Sum of electronic and thermal Enthalpies=            -944.809520
 Sum of electronic and thermal Free Energies=         -944.870599

                     E (Thermal)             CV                S
                      KCal/Mol        Cal/Mol-Kelvin    Cal/Mol-Kelvin
 Total                  226.770             63.388            128.553
 Electronic               0.000              0.000              0.000
 Translational            0.889              2.981             42.016
 Rotational               0.889              2.981             32.488
 Vibrational            224.993             57.426             54.049
 Vibration     1          0.596              1.976              4.624
 Vibration     2          0.596              1.974              4.494
 Vibration     3          0.599              1.965              3.968
 Vibration     4          0.602              1.956              3.649
 Vibration     5          0.604              1.948              3.418
 Vibration     6          0.610              1.931              3.066
 Vibration     7          0.624              1.884              2.481
 Vibration     8          0.635              1.848              2.186
 Vibration     9          0.638              1.838              2.120
 Vibration    10          0.645              1.817              1.994
 Vibration    11          0.654              1.791              1.858
 Vibration    12          0.654              1.789              1.847
 Vibration    13          0.658              1.776              1.789
 Vibration    14          0.664              1.757              1.709
 Vibration    15          0.696              1.662              1.384
 Vibration    16          0.709              1.625              1.285
 Vibration    17          0.718              1.601              1.225
 Vibration    18          0.724              1.583              1.184
 Vibration    19          0.743              1.531              1.075
 Vibration    20          0.759              1.488              0.993
 Vibration    21          0.769              1.463              0.951
 Vibration    22          0.780              1.434              0.903
 Vibration    23          0.812              1.354              0.786
 Vibration    24          0.864              1.230              0.635
 Vibration    25          0.973              1.003              0.427

 Optimization completed.
    -- Stationary point found.
 Normal termination of Gaussian 16 at Tue May 23 12:02:26 2023.
