 Gaussian 16, Revision A.03,
 Gaussian 16:  ES64L-G16RevA.03 25-Dec-2016

 -----------------------------
 # opt freq b3lyp/6-31g(2df,p)
 -----------------------------

 -------------------
 Title Card Required
 -------------------
 Symbolic Z-matrix:
 Charge =  0 Multiplicity = 1

 SCF Done:  E(RB3LYP) =  -560.490856751     A.U. after   14 cycles
 SCF Done:  E(RB3LYP) =  -560.520986728     A.U. after   13 cycles
 SCF Done:  E(RB3LYP) =  -560.547305289     A.U. after   13 cycles
 SCF Done:  E(RB3LYP) =  -560.562757149     A.U. after   14 cycles
 SCF Done:  E(RB3LYP) =  -560.573549313     A.U. after   13 cycles
 SCF Done:  E(RB3LYP) =  -560.576321050     A.U. after   13 cycles
 SCF Done:  E(RB3LYP) =  -560.577620166     A.U. after   13 cycles
 SCF Done:  E(RB3LYP) =  -560.579741727     A.U. after   13 cycles
 SCF Done:  E(RB3LYP) =  -560.582641745     A.U. after   12 cycles
 SCF Done:  E(RB3LYP) =  -560.584010146     A.U. after   11 cycles
 SCF Done:  E(RB3LYP) =  -560.589542427     A.U. after   11 cycles
 SCF Done:  E(RB3LYP) =  -560.589719743     A.U. after   10 cycles
 SCF Done:  E(RB3LYP) =  -560.589804907     A.U. after   10 cycles
 SCF Done:  E(RB3LYP) =  -560.589829789     A.U. after   10 cycles
 SCF Done:  E(RB3LYP) =  -560.589844744     A.U. after    9 cycles
 SCF Done:  E(RB3LYP) =  -560.589849528     A.U. after    9 cycles
 SCF Done:  E(RB3LYP) =  -560.589850880     A.U. after    7 cycles
 SCF Done:  E(RB3LYP) =  -560.589851236     A.U. after    7 cycles
 SCF Done:  E(RB3LYP) =  -560.589851299     A.U. after    7 cycles
 Optimization completed.
    -- Stationary point found.
 Normal termination of Gaussian 16 at Mon May 22 16:20:19 2023.

 ----------------------------------------------------------------------
 #N Geom=AllCheck Guess=TCheck SCRF=Check GenChk RB3LYP/6-31G(2df,p) Fr
 eq
 ----------------------------------------------------------------------

 Structure from the checkpoint file:  "CCC1CCNC2qCdOrC1C2qCrC.chk"
 -------------------
 Title Card Required
 -------------------
 Charge =  0 Multiplicity = 1

                         Standard orientation:
 ---------------------------------------------------------------------
 Center     Atomic      Atomic             Coordinates (Angstroms)
 Number     Number       Type             X           Y           Z
 ---------------------------------------------------------------------
      1          6           0        3.026404   -1.175774   -1.197391
      2          6           0        2.560370   -1.056009    0.258927
      3          6           0        1.396503   -0.080298    0.532701
      4          6           0        1.676246    1.359241    0.055129
      5          6           0        0.558751    2.341181    0.482395
      6          7           0       -0.686888    1.623768    0.793935
      7          6           0       -1.021261    0.528679   -0.066958
      8          6           0       -1.773901    0.847194   -1.307190
      9          8           0       -1.922550    0.131235   -2.271603
     10          6           0        0.086637   -0.521803   -0.113228
     11          6           0       -1.171159   -0.881821    0.614482
     12          6           0       -2.078543   -1.914428   -0.030255
     13          6           0       -1.218081   -0.908834    2.129770
     14          1           0        3.830438   -1.913818   -1.278086
     15          1           0        3.414563   -0.227266   -1.580972
     16          1           0        2.221422   -1.498654   -1.865173
     17          1           0        3.413151   -0.747058    0.877105
     18          1           0        2.266463   -2.048300    0.624198
     19          1           0        1.263177   -0.054165    1.618958
     20          1           0        1.757727    1.353173   -1.037192
     21          1           0        2.639261    1.715683    0.436604
     22          1           0        0.431038    3.104180   -0.302737
     23          1           0        0.858056    2.875135    1.392404
     24          1           0       -1.461052    2.254287    0.956686
     25          1           0       -2.221789    1.870892   -1.289613
     26          1           0        0.185243   -0.980156   -1.094267
     27          1           0       -2.055262   -1.863330   -1.118645
     28          1           0       -3.116580   -1.781460    0.295725
     29          1           0       -1.764363   -2.918695    0.278284
     30          1           0       -0.745311   -0.030724    2.569038
     31          1           0       -0.721358   -1.809711    2.508993
     32          1           0       -2.258004   -0.940225    2.473666
 ---------------------------------------------------------------------

 SCF Done:  E(RB3LYP) =  -560.589851299     A.U. after    1 cycles

 The electronic state is 1-A.
 Alpha  occ. eigenvalues --  -19.12894 -14.32074 -10.26056 -10.21748 -10.21045
 Alpha  occ. eigenvalues --  -10.20543 -10.18985 -10.18911 -10.18252 -10.18154
 Alpha  occ. eigenvalues --  -10.17329 -10.17095 -10.16760  -1.03581  -0.93002
 Alpha  occ. eigenvalues --   -0.84413  -0.80358  -0.74204  -0.72959  -0.68763
 Alpha  occ. eigenvalues --   -0.66531  -0.65513  -0.60835  -0.58161  -0.53752
 Alpha  occ. eigenvalues --   -0.53089  -0.49891  -0.46990  -0.46645  -0.44542
 Alpha  occ. eigenvalues --   -0.44184  -0.43521  -0.42388  -0.42052  -0.40554
 Alpha  occ. eigenvalues --   -0.39904  -0.38943  -0.38286  -0.37200  -0.36816
 Alpha  occ. eigenvalues --   -0.36425  -0.35710  -0.34626  -0.32692  -0.32404
 Alpha  occ. eigenvalues --   -0.31304  -0.28171  -0.27037  -0.25569  -0.21251
 Alpha virt. eigenvalues --   -0.02025   0.07545   0.09629   0.10052   0.10628
 Alpha virt. eigenvalues --    0.11970   0.12527   0.12777   0.13832   0.14479
 Alpha virt. eigenvalues --    0.15698   0.16353   0.16712   0.16996   0.17867

 Mulliken charges:
               1
     1  C   -0.382899
     2  C   -0.207941
     3  C   -0.002661
     4  C   -0.203655
     5  C   -0.175505
     6  N   -0.355559
     7  C    0.138961
     8  C    0.098841
     9  O   -0.278758
    10  C   -0.085828
    11  C    0.249661
    12  C   -0.472872
    13  C   -0.455986
    14  H    0.113667
    15  H    0.118732
    16  H    0.125434
    17  H    0.091920
    18  H    0.097189
    19  H    0.080135
    20  H    0.107268
    21  H    0.094836
    22  H    0.086717
    23  H    0.101358
    24  H    0.219879
    25  H    0.058021
    26  H    0.101663
    27  H    0.153920
    28  H    0.110073
    29  H    0.112070
    30  H    0.137080
    31  H    0.113853
    32  H    0.110384
 Sum of Mulliken charges =  -0.00000

 Dipole moment (field-independent basis, Debye):
    X=              1.0945    Y=              1.1257    Z=              2.0436  Tot=              2.5771
 Quadrupole moment (field-independent basis, Debye-Ang):
   XX=            -80.0098   YY=            -76.0321   ZZ=            -87.9682
   XY=             -2.1252   XZ=             -4.8666   YZ=             -0.3747

  Exact polarizability: 129.716   0.209 127.938   1.454  -2.393 115.592
 Approx polarizability: 174.139  -1.557 184.930   6.048  -0.446 182.656

                      1                      2                      3
                      A                      A                      A
 Frequencies --     69.0300                82.0555               111.0903
 Red. masses --      3.2750                 2.3101                 3.2072
 Frc consts  --      0.0092                 0.0092                 0.0233
 IR Inten    --      0.2318                 0.6465                 4.8256

                      4                      5                      6
                      A                      A                      A
 Frequencies --    129.4071               142.9275               169.8355
 Red. masses --      2.2416                 1.7973                 1.9106
 Frc consts  --      0.0221                 0.0216                 0.0325
 IR Inten    --      0.3838                 0.7295                 0.2943

                      7                      8                      9
                      A                      A                      A
 Frequencies --    192.4066               196.3227               205.5706
 Red. masses --      1.7368                 1.4386                 1.8062
 Frc consts  --      0.0379                 0.0327                 0.0450
 IR Inten    --      2.3117                 0.5052                 3.3831

                     10                     11                     12
                      A                      A                      A
 Frequencies --    239.0602               254.1232               263.2634
 Red. masses --      1.7568                 2.6374                 1.4330
 Frc consts  --      0.0592                 0.1003                 0.0585
 IR Inten    --      2.4218                 1.0729                 0.8282

                     13                     14                     15
                      A                      A                      A
 Frequencies --    317.1350               333.4748               353.1925
 Red. masses --      3.0930                 2.4005                 2.5889
 Frc consts  --      0.1833                 0.1573                 0.1903
 IR Inten    --      3.9104                 0.7113                 6.2040

                     16                     17                     18
                      A                      A                      A
 Frequencies --    399.8301               439.5237               482.6339
 Red. masses --      2.3705                 2.8668                 2.8275
 Frc consts  --      0.2233                 0.3263                 0.3881
 IR Inten    --     11.4637                 1.2448                 5.6985

                     19                     20                     21
                      A                      A                      A
 Frequencies --    503.1752               548.2671               550.1170
 Red. masses --      3.8057                 2.4976                 2.2080
 Frc consts  --      0.5677                 0.4423                 0.3937
 IR Inten    --      7.1992                 9.8775                37.4616

                     22                     23                     24
                      A                      A                      A
 Frequencies --    583.0240               671.8981               739.4422
 Red. masses --      4.3420                 4.8133                 3.3697
 Frc consts  --      0.8696                 1.2803                 1.0856
 IR Inten    --      1.5077                 7.3279                 3.4083

                     25                     26                     27
                      A                      A                      A
 Frequencies --    749.9689               779.0327               846.9840
 Red. masses --      2.1281                 1.3005                 2.5088
 Frc consts  --      0.7052                 0.4650                 1.0604
 IR Inten    --     34.2944                 6.4833                 1.4418

                     28                     29                     30
                      A                      A                      A
 Frequencies --    859.8206               898.2284               928.5693
 Red. masses --      2.0990                 2.8061                 2.0142
 Frc consts  --      0.9143                 1.3339                 1.0232
 IR Inten    --      1.5507                 4.3202                 6.6968

                     31                     32                     33
                      A                      A                      A
 Frequencies --    958.4095               968.9271               989.6482
 Red. masses --      2.1227                 1.4606                 1.9918
 Frc consts  --      1.1488                 0.8079                 1.1494
 IR Inten    --      3.4427                 5.0818                13.1337

                     34                     35                     36
                      A                      A                      A
 Frequencies --   1014.7559              1031.3087              1036.6191
 Red. masses --      1.3890                 1.3526                 1.7155
 Frc consts  --      0.8427                 0.8476                 1.0861
 IR Inten    --      8.1221                 2.6233                 1.0640

                     37                     38                     39
                      A                      A                      A
 Frequencies --   1045.8915              1075.6656              1079.6954
 Red. masses --      2.0678                 1.6387                 2.2781
 Frc consts  --      1.3327                 1.1171                 1.5647
 IR Inten    --     32.8577                 3.1548                 7.3621

                     40                     41                     42
                      A                      A                      A
 Frequencies --   1113.9751              1130.4946              1147.7832
 Red. masses --      2.6972                 1.9901                 2.2210
 Frc consts  --      1.9721                 1.4985                 1.7239
 IR Inten    --      8.3087                53.2335                 2.5187

                     43                     44                     45
                      A                      A                      A
 Frequencies --   1159.5131              1166.9593              1213.4164
 Red. masses --      2.1428                 2.0722                 2.5961
 Frc consts  --      1.6974                 1.6626                 2.2521
 IR Inten    --      5.2362                17.0047                27.8180

                     46                     47                     48
                      A                      A                      A
 Frequencies --   1236.7446              1258.1057              1279.6317
 Red. masses --      1.3487                 1.3587                 1.9422
 Frc consts  --      1.2155                 1.2671                 1.8737
 IR Inten    --      1.5958                 6.0827                 8.5966

                     49                     50                     51
                      A                      A                      A
 Frequencies --   1296.7005              1304.8045              1325.1903
 Red. masses --      1.2649                 1.4209                 1.3904
 Frc consts  --      1.2531                 1.4253                 1.4386
 IR Inten    --      0.3147                 0.3919                 1.5053

                     52                     53                     54
                      A                      A                      A
 Frequencies --   1339.7216              1369.3959              1375.0806
 Red. masses --      1.7451                 1.3194                 1.4131
 Frc consts  --      1.8454                 1.4578                 1.5742
 IR Inten    --     14.3646                 9.0158                 5.2914

                     55                     56                     57
                      A                      A                      A
 Frequencies --   1395.9997              1399.6171              1417.4724
 Red. masses --      1.4078                 1.2732                 1.2574
 Frc consts  --      1.6164                 1.4695                 1.4885
 IR Inten    --      8.4958                 5.7974                 7.7276

                     58                     59                     60
                      A                      A                      A
 Frequencies --   1419.2432              1424.8476              1439.2864
 Red. masses --      1.2331                 1.3465                 1.8664
 Frc consts  --      1.4634                 1.6107                 2.2779
 IR Inten    --      2.1384                 4.8575                 6.4475

                     61                     62                     63
                      A                      A                      A
 Frequencies --   1479.2162              1483.3050              1484.1527
 Red. masses --      1.1937                 1.1420                 1.0927
 Frc consts  --      1.5389                 1.4804                 1.4181
 IR Inten    --     11.9619                 1.5275                 5.2072

                     64                     65                     66
                      A                      A                      A
 Frequencies --   1496.1966              1497.5918              1504.0813
 Red. masses --      1.0811                 1.0502                 1.0718
 Frc consts  --      1.4259                 1.3878                 1.4286
 IR Inten    --      1.1552                 1.6335                 0.9149

                     67                     68                     69
                      A                      A                      A
 Frequencies --   1506.7401              1508.6838              1516.6101
 Red. masses --      1.0655                 1.1487                 1.0500
 Frc consts  --      1.4252                 1.5404                 1.4230
 IR Inten    --      3.7373                 7.8099                 7.2087

                     70                     71                     72
                      A                      A                      A
 Frequencies --   1527.7218              1791.9781              2830.1912
 Red. masses --      1.0886                10.6473                 1.0809
 Frc consts  --      1.4969                20.1445                 5.1013
 IR Inten    --      1.0104               154.4878               150.2938

                     73                     74                     75
                      A                      A                      A
 Frequencies --   2957.9591              3015.0359              3024.9936
 Red. masses --      1.0728                 1.0607                 1.0401
 Frc consts  --      5.5302                 5.6808                 5.6076
 IR Inten    --     92.7289                25.2944                15.1967

                     76                     77                     78
                      A                      A                      A
 Frequencies --   3030.4647              3031.2026              3036.5709
 Red. masses --      1.0456                 1.0839                 1.0527
 Frc consts  --      5.6576                 5.8676                 5.7191
 IR Inten    --     59.6822                35.5509                 9.4437

                     79                     80                     81
                      A                      A                      A
 Frequencies --   3040.5972              3048.2375              3051.8590
 Red. masses --      1.0432                 1.1021                 1.0827
 Frc consts  --      5.6823                 6.0335                 5.9412
 IR Inten    --     33.5590                19.2813                16.5765

                     82                     83                     84
                      A                      A                      A
 Frequencies --   3078.5590              3079.9475              3083.3876
 Red. masses --      1.1006                 1.1026                 1.0999
 Frc consts  --      6.1460                 6.1625                 6.1613
 IR Inten    --      6.3127                51.6595                41.0013

                     85                     86                     87
                      A                      A                      A
 Frequencies --   3103.3909              3108.4330              3140.4628
 Red. masses --      1.1007                 1.1013                 1.0871
 Frc consts  --      6.2456                 6.2694                 6.3171
 IR Inten    --     40.2054                32.3359                 4.1708

                     88                     89                     90
                      A                      A                      A
 Frequencies --   3145.3275              3150.8320              3560.8047
 Red. masses --      1.0959                 1.0953                 1.0743
 Frc consts  --      6.3878                 6.4065                 8.0257
 IR Inten    --      8.5313                 5.4651                 1.5878

 - Thermochemistry -
 -------------------
 Temperature   298.150 Kelvin.  Pressure   1.00000 Atm.
 Atom     1 has atomic number  6 and mass  12.00000

 Molecular mass:   181.14666 amu.
 Principal axes and moments of inertia in atomic units:
                           1         2         3
     Eigenvalues --  1892.716002776.040862999.57599
           X            0.99887   0.00924  -0.04652
           Y           -0.00895   0.99994   0.00645
           Z            0.04658  -0.00603   0.99890
 This molecule is an asymmetric top.
 Rotational symmetry number  1.
 Warning -- assumption of classical behavior for rotation
           may cause significant error
 Rotational temperatures (Kelvin)      0.04576     0.03120     0.02888
 Rotational constants (GHZ):           0.95352     0.65011     0.60167
 Zero-point vibrational energy     746283.4 (Joules/Mol)
                                  178.36602 (Kcal/Mol)
 Warning -- explicit consideration of  22 degrees of freedom as
           vibrations may cause significant error
 Vibrational temperatures:     99.32   118.06   159.83   186.19   205.64
          (Kelvin)            244.36   276.83   282.46   295.77   343.95
                              365.63   378.78   456.29   479.80   508.17
                              575.27   632.38   694.40   723.96   788.83
                              791.50   838.84   966.71  1063.89  1079.04
                             1120.85  1218.62  1237.09  1292.35  1336.00
                             1378.94  1394.07  1423.88  1460.01  1483.82
                             1491.46  1504.80  1547.64  1553.44  1602.76
                             1626.53  1651.40  1668.28  1678.99  1745.84
                             1779.40  1810.13  1841.10  1865.66  1877.32
                             1906.65  1927.56  1970.26  1978.43  2008.53
                             2013.74  2039.43  2041.97  2050.04  2070.81
                             2128.26  2134.15  2135.36  2152.69  2154.70
                             2164.04  2167.86  2170.66  2182.06  2198.05
                             2578.26  4072.01  4255.84  4337.96  4352.29
                             4360.16  4361.22  4368.95  4374.74  4385.73
                             4390.94  4429.36  4431.36  4436.31  4465.09
                             4472.34  4518.43  4525.42  4533.34  5123.20

 Zero-point correction=                           0.284244 (Hartree/Particle)
 Thermal correction to Energy=                    0.298424
 Thermal correction to Enthalpy=                  0.299368
 Thermal correction to Gibbs Free Energy=         0.244577
 Sum of electronic and zero-point Energies=           -560.305607
 Sum of electronic and thermal Energies=              -560.291428
 Sum of electronic and thermal Enthalpies=            -560.290484
 Sum of electronic and thermal Free Energies=         -560.345275

                     E (Thermal)             CV                S
                      KCal/Mol        Cal/Mol-Kelvin    Cal/Mol-Kelvin
 Total                  187.264             54.370            115.318
 Electronic               0.000              0.000              0.000
 Translational            0.889              2.981             41.489
 Rotational               0.889              2.981             31.133
 Vibrational            185.486             48.409             42.695
 Vibration     1          0.598              1.969              4.181
 Vibration     2          0.600              1.961              3.841
 Vibration     3          0.607              1.940              3.250
 Vibration     4          0.612              1.924              2.955
 Vibration     5          0.616              1.910              2.764
 Vibration     6          0.625              1.880              2.437
 Vibration     7          0.634              1.850              2.205
 Vibration     8          0.636              1.845              2.167
 Vibration     9          0.640              1.832              2.083
 Vibration    10          0.657              1.781              1.810
 Vibration    11          0.665              1.756              1.702
 Vibration    12          0.670              1.740              1.640
 Vibration    13          0.704              1.641              1.325
 Vibration    14          0.715              1.609              1.243
 Vibration    15          0.729              1.569              1.152
 Vibration    16          0.766              1.470              0.963
 Vibration    17          0.800              1.384              0.828
 Vibration    18          0.839              1.289              0.703
 Vibration    19          0.858              1.243              0.650
 Vibration    20          0.904              1.143              0.548
 Vibration    21          0.905              1.139              0.544
 Vibration    22          0.940              1.068              0.480

                           ! Non-Optimized Parameters !
 Normal termination of Gaussian 16 at Mon May 22 18:33:44 2023.
