 Gaussian 16, Revision A.03,
 Gaussian 16:  ES64L-G16RevA.03 25-Dec-2016

 -----------------------------
 # opt freq b3lyp/6-31g(2df,p)
 -----------------------------

 -------------------
 Title Card Required
 -------------------
 Symbolic Z-matrix:
 Charge =  0 Multiplicity = 1

 SCF Done:  E(RB3LYP) =  -978.536286062     A.U. after   19 cycles
 SCF Done:  E(RB3LYP) =  -978.587385762     A.U. after   15 cycles
 SCF Done:  E(RB3LYP) =  -978.628174261     A.U. after   16 cycles
 SCF Done:  E(RB3LYP) =  -978.674880334     A.U. after   14 cycles
 SCF Done:  E(RB3LYP) =  -978.708595985     A.U. after   14 cycles
 SCF Done:  E(RB3LYP) =  -978.718019107     A.U. after   12 cycles
 SCF Done:  E(RB3LYP) =  -978.726530605     A.U. after   13 cycles
 SCF Done:  E(RB3LYP) =  -978.735327458     A.U. after   13 cycles
 SCF Done:  E(RB3LYP) =  -978.739949044     A.U. after   12 cycles
 SCF Done:  E(RB3LYP) =  -978.742226481     A.U. after   12 cycles
 SCF Done:  E(RB3LYP) =  -978.770186757     A.U. after    9 cycles
 SCF Done:  E(RB3LYP) =  -978.770188060     A.U. after    8 cycles
 SCF Done:  E(RB3LYP) =  -978.770189037     A.U. after    8 cycles
 SCF Done:  E(RB3LYP) =  -978.770189565     A.U. after    7 cycles
 SCF Done:  E(RB3LYP) =  -978.770189664     A.U. after    7 cycles
 SCF Done:  E(RB3LYP) =  -978.770189762     A.U. after    7 cycles
 SCF Done:  E(RB3LYP) =  -978.770189807     A.U. after    7 cycles
 SCF Done:  E(RB3LYP) =  -978.770189838     A.U. after    6 cycles
 SCF Done:  E(RB3LYP) =  -978.770189864     A.U. after    6 cycles
 Optimization completed.
    -- Stationary point found.
 Normal termination of Gaussian 16 at Mon May 22 14:16:43 2023.

 ----------------------------------------------------------------------
 #N Geom=AllCheck Guess=TCheck SCRF=Check GenChk RB3LYP/6-31G(2df,p) Fr
 eq
 ----------------------------------------------------------------------

 Structure from the checkpoint file:  "CCC[SH]qCC1CCqOCrO1rOC.chk"
 -------------------
 Title Card Required
 -------------------
 Charge =  0 Multiplicity = 1

                         Standard orientation:
 ---------------------------------------------------------------------
 Center     Atomic      Atomic             Coordinates (Angstroms)
 Number     Number       Type             X           Y           Z
 ---------------------------------------------------------------------
      1          6           0       -4.472825    2.207881   -0.617793
      2          6           0       -3.160748    1.828005    0.079985
      3          6           0       -2.807683    0.364735   -0.167663
      4         16           0       -1.361423   -0.232907    0.798058
      5          6           0        0.070019   -0.664575   -0.263295
      6          6           0        1.238295    0.296770   -0.129635
      7          6           0        2.053998    0.269392    1.182256
      8          6           0        3.224698   -0.156752    0.288435
      9          8           0        4.205705    0.817630    0.226786
     10          6           0        5.229617    0.528235   -0.712121
     11          8           0        2.375561   -0.196243   -0.880854
     12          8           0       -2.022754   -2.083856    0.517992
     13          6           0       -2.299974   -2.698090   -0.696155
     14          1           0       -4.716741    3.259149   -0.439382
     15          1           0       -5.307954    1.602342   -0.251085
     16          1           0       -4.404417    2.059451   -1.700802
     17          1           0       -3.251989    2.008008    1.158014
     18          1           0       -2.351100    2.474635   -0.275894
     19          1           0       -2.593836    0.175115   -1.223050
     20          1           0       -3.601353   -0.316033    0.140239
     21          1           0       -0.886406    1.107394    0.847670
     22          1           0       -0.276546   -0.702004   -1.299020
     23          1           0        0.334292   -1.676200    0.042570
     24          1           0        0.954952    1.301940   -0.463275
     25          1           0        1.731142   -0.477570    1.909146
     26          1           0        2.210212    1.229985    1.671574
     27          1           0        3.676011   -1.147345    0.453519
     28          1           0        5.961861    1.335009   -0.644888
     29          1           0        4.830770    0.481837   -1.732237
     30          1           0        5.724033   -0.426664   -0.479635
     31          1           0       -2.613294   -3.741381   -0.520588
     32          1           0       -1.434672   -2.751940   -1.388200
     33          1           0       -3.122677   -2.223067   -1.269079
 ---------------------------------------------------------------------

 SCF Done:  E(RB3LYP) =  -978.770189864     A.U. after    1 cycles

 The electronic state is 1-A.
 Alpha  occ. eigenvalues --  -88.95920 -19.15312 -19.14294 -19.05360 -10.28381
 Alpha  occ. eigenvalues --  -10.25014 -10.22907 -10.21993 -10.21821 -10.20139
 Alpha  occ. eigenvalues --  -10.19482 -10.18849 -10.18458  -8.00766  -5.97133
 Alpha  occ. eigenvalues --   -5.97031  -5.96605  -1.07778  -1.01943  -0.92524
 Alpha  occ. eigenvalues --   -0.83792  -0.79411  -0.75865  -0.73642  -0.69378
 Alpha  occ. eigenvalues --   -0.66501  -0.62887  -0.61227  -0.60258  -0.56101
 Alpha  occ. eigenvalues --   -0.52004  -0.50473  -0.49431  -0.48524  -0.46887
 Alpha  occ. eigenvalues --   -0.46164  -0.45125  -0.43544  -0.42826  -0.41904
 Alpha  occ. eigenvalues --   -0.40757  -0.39761  -0.38879  -0.38272  -0.37984
 Alpha  occ. eigenvalues --   -0.36597  -0.35799  -0.35377  -0.34939  -0.34568
 Alpha  occ. eigenvalues --   -0.33300  -0.31255  -0.27870  -0.27523  -0.27066
 Alpha  occ. eigenvalues --   -0.20234  -0.20068
 Alpha virt. eigenvalues --    0.02785   0.03039   0.06372   0.07966   0.09601
 Alpha virt. eigenvalues --    0.10136   0.10507   0.11365   0.12225   0.13030
 Alpha virt. eigenvalues --    0.13361   0.14398   0.14784   0.15338   0.15647

 Mulliken charges:
               1
     1  C   -0.385882
     2  C   -0.202248
     3  C   -0.169018
     4  S    0.243351
     5  C   -0.207902
     6  C    0.101073
     7  C   -0.332118
     8  C    0.250041
     9  O   -0.229524
    10  C   -0.248089
    11  O   -0.316802
    12  O   -0.464564
    13  C   -0.225954
    14  H    0.122944
    15  H    0.126499
    16  H    0.121460
    17  H    0.118995
    18  H    0.110443
    19  H    0.135538
    20  H    0.163452
    21  H   -0.012746
    22  H    0.144647
    23  H    0.159403
    24  H    0.090510
    25  H    0.126010
    26  H    0.129793
    27  H    0.073686
    28  H    0.131048
    29  H    0.131952
    30  H    0.110342
    31  H    0.094573
    32  H    0.056632
    33  H    0.052455
 Sum of Mulliken charges =  -0.00000

 Dipole moment (field-independent basis, Debye):
    X=              0.7787    Y=              2.8847    Z=             -0.9766  Tot=              3.1435
 Quadrupole moment (field-independent basis, Debye-Ang):
   XX=            -80.1735   YY=            -93.8022   ZZ=            -90.2325
   XY=            -10.8111   XZ=              2.8572   YZ=              1.2435

  Exact polarizability: 170.657   1.751 139.458   2.138   4.983 106.387
 Approx polarizability: 202.702   8.098 210.009   0.568   6.585 171.456

                      1                      2                      3
                      A                      A                      A
 Frequencies --     19.4114                32.9329                42.4835
 Red. masses --      4.2034                 2.1975                 1.8367
 Frc consts  --      0.0009                 0.0014                 0.0020
 IR Inten    --      0.8727                 0.1508                 0.4513

                      4                      5                      6
                      A                      A                      A
 Frequencies --     46.0248                62.1740                81.8036
 Red. masses --      4.0316                 1.9985                 2.0855
 Frc consts  --      0.0050                 0.0046                 0.0082
 IR Inten    --      0.4300                 0.0666                 0.1467

                      7                      8                      9
                      A                      A                      A
 Frequencies --    108.0115               114.9863               137.1326
 Red. masses --      3.3465                 2.7453                 1.9533
 Frc consts  --      0.0230                 0.0214                 0.0216
 IR Inten    --      5.4887                 3.7498                 0.2906

                     10                     11                     12
                      A                      A                      A
 Frequencies --    169.5434               173.7457               209.5651
 Red. masses --      3.0541                 1.2869                 2.3492
 Frc consts  --      0.0517                 0.0229                 0.0608
 IR Inten    --      1.6161                 0.4047                10.3327

                     13                     14                     15
                      A                      A                      A
 Frequencies --    216.0265               240.2722               245.2215
 Red. masses --      3.4459                 2.0443                 1.3926
 Frc consts  --      0.0947                 0.0695                 0.0493
 IR Inten    --      9.5205                14.4157                 5.5149

                     16                     17                     18
                      A                      A                      A
 Frequencies --    268.5222               312.0653               342.1314
 Red. masses --      3.2181                 4.3443                 3.7602
 Frc consts  --      0.1367                 0.2493                 0.2593
 IR Inten    --      3.7997                11.6095                46.3558

                     19                     20                     21
                      A                      A                      A
 Frequencies --    368.5766               375.5923               410.4362
 Red. masses --      5.6533                 4.6036                 3.3645
 Frc consts  --      0.4525                 0.3826                 0.3339
 IR Inten    --    125.1925                11.9949                 0.9488

                     22                     23                     24
                      A                      A                      A
 Frequencies --    471.3259               560.2279               725.0476
 Red. masses --      2.1079                 6.1080                 3.8502
 Frc consts  --      0.2759                 1.1295                 1.1925
 IR Inten    --      0.5696                 3.2094                 7.1057

                     25                     26                     27
                      A                      A                      A
 Frequencies --    736.5104               760.4468               774.3314
 Red. masses --      1.2546                 3.4241                 2.9173
 Frc consts  --      0.4010                 1.1666                 1.0306
 IR Inten    --      9.4060                 4.1363                 5.5169

                     28                     29                     30
                      A                      A                      A
 Frequencies --    819.0697               853.5351               859.3055
 Red. masses --      1.8985                 1.3321                 1.4508
 Frc consts  --      0.7504                 0.5718                 0.6312
 IR Inten    --      4.0070                 2.5618                 4.5118

                     31                     32                     33
                      A                      A                      A
 Frequencies --    912.8145               926.4039               963.1740
 Red. masses --      1.9413                 2.7595                 7.5921
 Frc consts  --      0.9530                 1.3954                 4.1497
 IR Inten    --      5.2777                 9.2086               304.0565

                     34                     35                     36
                      A                      A                      A
 Frequencies --    974.5854               987.4809              1013.9264
 Red. masses --      1.3461                 2.5333                 1.7798
 Frc consts  --      0.7533                 1.4554                 1.0780
 IR Inten    --     45.5568                58.0095                 5.3979

                     37                     38                     39
                      A                      A                      A
 Frequencies --   1039.1425              1041.9817              1075.0560
 Red. masses --      2.6988                 1.9729                 3.5759
 Frc consts  --      1.7170                 1.2620                 2.4350
 IR Inten    --      6.8368                24.7428               205.5805

                     40                     41                     42
                      A                      A                      A
 Frequencies --   1091.3934              1105.6020              1130.6098
 Red. masses --      2.3085                 1.8682                 1.7209
 Frc consts  --      1.6201                 1.3455                 1.2960
 IR Inten    --     44.8925                 9.4165                50.0097

                     43                     44                     45
                      A                      A                      A
 Frequencies --   1138.5082              1153.2924              1179.7758
 Red. masses --      1.9955                 1.9887                 1.2917
 Frc consts  --      1.5240                 1.5585                 1.0593
 IR Inten    --      5.2789                96.1761                 2.2882

                     46                     47                     48
                      A                      A                      A
 Frequencies --   1182.2428              1184.3915              1199.2243
 Red. masses --      1.3241                 1.2989                 1.2502
 Frc consts  --      1.0904                 1.0735                 1.0593
 IR Inten    --      2.3203                 7.2110                28.8827

                     49                     50                     51
                      A                      A                      A
 Frequencies --   1215.3435              1241.8088              1244.0659
 Red. masses --      1.3756                 1.3899                 1.7597
 Frc consts  --      1.1971                 1.2628                 1.6046
 IR Inten    --      5.6473                 4.3793                83.0891

                     52                     53                     54
                      A                      A                      A
 Frequencies --   1258.6474              1260.4281              1285.4254
 Red. masses --      1.4738                 1.2659                 1.1846
 Frc consts  --      1.3756                 1.1849                 1.1533
 IR Inten    --      4.0473                19.6392                11.6858

                     55                     56                     57
                      A                      A                      A
 Frequencies --   1289.9748              1318.4305              1346.4483
 Red. masses --      1.3284                 1.1059                 1.4718
 Frc consts  --      1.3024                 1.1326                 1.5721
 IR Inten    --      8.6678                 0.3137                 8.8372

                     58                     59                     60
                      A                      A                      A
 Frequencies --   1364.4933              1381.7143              1411.2561
 Red. masses --      1.4318                 1.3501                 1.3186
 Frc consts  --      1.5706                 1.5186                 1.5473
 IR Inten    --      0.2757                54.7847                21.4540

                     61                     62                     63
                      A                      A                      A
 Frequencies --   1412.8277              1461.9274              1469.0968
 Red. masses --      1.2195                 1.0950                 1.1065
 Frc consts  --      1.4342                 1.3788                 1.4071
 IR Inten    --      1.5395                 0.8607                 3.2942

                     64                     65                     66
                      A                      A                      A
 Frequencies --   1474.9025              1483.5649              1484.9413
 Red. masses --      1.1280                 1.1209                 1.0709
 Frc consts  --      1.4457                 1.4536                 1.3913
 IR Inten    --      5.0200                14.4802                13.0582

                     67                     68                     69
                      A                      A                      A
 Frequencies --   1487.2804              1489.6973              1495.4860
 Red. masses --      1.1382                 1.0583                 1.0559
 Frc consts  --      1.4833                 1.3837                 1.3914
 IR Inten    --     12.7501                 2.2927                 1.1222

                     70                     71                     72
                      A                      A                      A
 Frequencies --   1499.1446              1504.7672              1509.0346
 Red. masses --      1.0397                 1.0709                 1.0793
 Frc consts  --      1.3768                 1.4288                 1.4480
 IR Inten    --      6.0881                16.3202                10.3368

                     73                     74                     75
                      A                      A                      A
 Frequencies --   1511.6994              2099.0386              2882.8823
 Red. masses --      1.0576                 1.0328                 1.0395
 Frc consts  --      1.4240                 2.6810                 5.0900
 IR Inten    --      4.5231               467.0818               125.6290

                     76                     77                     78
                      A                      A                      A
 Frequencies --   2899.1817              2970.9000              2983.7999
 Red. masses --      1.0986                 1.0884                 1.0806
 Frc consts  --      5.4404                 5.6597                 5.6685
 IR Inten    --    120.6039               106.9481                43.3884

                     79                     80                     81
                      A                      A                      A
 Frequencies --   2996.1287              3031.4505              3032.1468
 Red. masses --      1.0451                 1.0806                 1.0618
 Frc consts  --      5.5275                 5.8507                 5.7516
 IR Inten    --     85.4591                22.7675                17.5395

                     82                     83                     84
                      A                      A                      A
 Frequencies --   3035.7406              3065.8678              3066.6841
 Red. masses --      1.0376                 1.0962                 1.0956
 Frc consts  --      5.6339                 6.0705                 6.0710
 IR Inten    --     28.6703                 4.6191                33.0670

                     85                     86                     87
                      A                      A                      A
 Frequencies --   3075.9061              3082.1732              3090.3250
 Red. masses --      1.0677                 1.0621                 1.0607
 Frc consts  --      5.9519                 5.9446                 5.9684
 IR Inten    --     10.4307                 3.1724                 9.0102

                     88                     89                     90
                      A                      A                      A
 Frequencies --   3104.8547              3111.1045              3130.3483
 Red. masses --      1.1020                 1.1016                 1.1004
 Frc consts  --      6.2591                 6.2819                 6.3530
 IR Inten    --     33.9870                25.8156                24.5099

                     91                     92                     93
                      A                      A                      A
 Frequencies --   3147.3129              3153.9026              3157.2397
 Red. masses --      1.1017                 1.1033                 1.1065
 Frc consts  --      6.4297                 6.4659                 6.4985
 IR Inten    --      4.8047                 3.1939                 6.2333

 - Thermochemistry -
 -------------------
 Temperature   298.150 Kelvin.  Pressure   1.00000 Atm.
 Atom     1 has atomic number  6 and mass  12.00000

 Molecular mass:   208.11332 amu.
 Principal axes and moments of inertia in atomic units:
                           1         2         3
     Eigenvalues --  1582.708756696.524087591.63768
           X            0.99990  -0.01305   0.00619
           Y            0.01294   0.99974   0.01870
           Z           -0.00643  -0.01862   0.99981
 This molecule is an asymmetric top.
 Rotational symmetry number  1.
 Warning -- assumption of classical behavior for rotation
           may cause significant error
 Rotational temperatures (Kelvin)      0.05473     0.01293     0.01141
 Rotational constants (GHZ):           1.14029     0.26950     0.23773
 Zero-point vibrational energy     746801.5 (Joules/Mol)
                                  178.48984 (Kcal/Mol)
 Warning -- explicit consideration of  23 degrees of freedom as
           vibrations may cause significant error
 Vibrational temperatures:     27.93    47.38    61.12    66.22    89.45
          (Kelvin)            117.70   155.40   165.44   197.30   243.94
                              249.98   301.52   310.81   345.70   352.82
                              386.34   448.99   492.25   530.30   540.39
                              590.53   678.13   806.04  1043.18  1059.67
                             1094.11  1114.09  1178.46  1228.05  1236.35
                             1313.34  1332.89  1385.79  1402.21  1420.76
                             1458.81  1495.09  1499.18  1546.77  1570.27
                             1590.71  1626.70  1638.06  1659.33  1697.43
                             1700.98  1704.08  1725.42  1748.61  1786.69
                             1789.93  1810.91  1813.47  1849.44  1855.99
                             1896.93  1937.24  1963.20  1987.98  2030.48
                             2032.74  2103.39  2113.70  2122.06  2134.52
                             2136.50  2139.86  2143.34  2151.67  2156.93
                             2165.02  2171.16  2175.00  3020.05  4147.82
                             4171.28  4274.46  4293.02  4310.76  4361.58
                             4362.58  4367.75  4411.10  4412.27  4425.54
                             4434.56  4446.29  4467.19  4476.19  4503.87
                             4528.28  4537.76  4542.56

 Zero-point correction=                           0.284442 (Hartree/Particle)
 Thermal correction to Energy=                    0.301657
 Thermal correction to Enthalpy=                  0.302602
 Thermal correction to Gibbs Free Energy=         0.236564
 Sum of electronic and zero-point Energies=           -978.485748
 Sum of electronic and thermal Energies=              -978.468532
 Sum of electronic and thermal Enthalpies=            -978.467588
 Sum of electronic and thermal Free Energies=         -978.533626

                     E (Thermal)             CV                S
                      KCal/Mol        Cal/Mol-Kelvin    Cal/Mol-Kelvin
 Total                  189.293             59.680            138.989
 Electronic               0.000              0.000              0.000
 Translational            0.889              2.981             41.903
 Rotational               0.889              2.981             32.753
 Vibrational            187.515             53.718             64.333
 Vibration     1          0.593              1.986              6.694
 Vibration     2          0.594              1.983              5.644
 Vibration     3          0.595              1.980              5.140
 Vibration     4          0.595              1.979              4.981
 Vibration     5          0.597              1.972              4.387
 Vibration     6          0.600              1.962              3.847
 Vibration     7          0.606              1.943              3.304
 Vibration     8          0.608              1.937              3.183
 Vibration     9          0.614              1.916              2.843
 Vibration    10          0.625              1.880              2.441
 Vibration    11          0.627              1.875              2.395
 Vibration    12          0.642              1.826              2.047
 Vibration    13          0.645              1.817              1.992
 Vibration    14          0.657              1.779              1.801
 Vibration    15          0.660              1.771              1.765
 Vibration    16          0.673              1.731              1.606
 Vibration    17          0.700              1.651              1.351
 Vibration    18          0.721              1.591              1.202
 Vibration    19          0.741              1.537              1.086
 Vibration    20          0.746              1.522              1.057
 Vibration    21          0.775              1.448              0.925
 Vibration    22          0.828              1.314              0.734
 Vibration    23          0.916              1.117              0.523

                           ! Non-Optimized Parameters !
 Normal termination of Gaussian 16 at Mon May 22 15:46:35 2023.
