 Gaussian 16, Revision A.03,
 Gaussian 16:  ES64L-G16RevA.03 25-Dec-2016

 -----------------------------
 # opt freq b3lyp/6-31g(2df,p)
 -----------------------------

 -------------------
 Title Card Required
 -------------------
 Symbolic Z-matrix:
 Charge =  0 Multiplicity = 1

 SCF Done:  E(RB3LYP) =  -775.530844794     A.U. after   14 cycles
 SCF Done:  E(RB3LYP) =  -775.574731027     A.U. after   12 cycles
 SCF Done:  E(RB3LYP) =  -775.614017243     A.U. after   12 cycles
 SCF Done:  E(RB3LYP) =  -775.631733429     A.U. after   11 cycles
 SCF Done:  E(RB3LYP) =  -775.644572788     A.U. after   12 cycles
 SCF Done:  E(RB3LYP) =  -775.648895487     A.U. after   11 cycles
 SCF Done:  E(RB3LYP) =  -775.650971152     A.U. after   12 cycles
 SCF Done:  E(RB3LYP) =  -775.652137422     A.U. after   11 cycles
 SCF Done:  E(RB3LYP) =  -775.653580091     A.U. after   11 cycles
 SCF Done:  E(RB3LYP) =  -775.651989745     A.U. after   13 cycles
 SCF Done:  E(RB3LYP) =  -775.659896876     A.U. after   11 cycles
 SCF Done:  E(RB3LYP) =  -775.659873374     A.U. after    9 cycles
 SCF Done:  E(RB3LYP) =  -775.659934788     A.U. after    9 cycles
 SCF Done:  E(RB3LYP) =  -775.659920251     A.U. after    9 cycles
 SCF Done:  E(RB3LYP) =  -775.659948379     A.U. after    9 cycles
 SCF Done:  E(RB3LYP) =  -775.659949151     A.U. after    7 cycles
 SCF Done:  E(RB3LYP) =  -775.659949326     A.U. after    6 cycles
 SCF Done:  E(RB3LYP) =  -775.659949248     A.U. after    6 cycles
 SCF Done:  E(RB3LYP) =  -775.659949284     A.U. after    5 cycles
 Optimization completed.
    -- Stationary point found.
 Normal termination of Gaussian 16 at Mon May 22 22:30:00 2023.

 ----------------------------------------------------------------------
 #N Geom=AllCheck Guess=TCheck SCRF=Check GenChk RB3LYP/6-31G(2df,p) Fr
 eq
 ----------------------------------------------------------------------

 Structure from the checkpoint file:  "CCCCdCqCrC1CC12CC1CqOCrCC12OC.chk"
 -------------------
 Title Card Required
 -------------------
 Charge =  0 Multiplicity = 1

                         Standard orientation:
 ---------------------------------------------------------------------
 Center     Atomic      Atomic             Coordinates (Angstroms)
 Number     Number       Type             X           Y           Z
 ---------------------------------------------------------------------
      1          6           0       -6.160338    1.382426   -0.226549
      2          6           0       -5.080264    0.300310   -0.299182
      3          6           0       -3.664176    0.845874   -0.032865
      4          6           0       -2.600262   -0.204404   -0.186029
      5          6           0       -1.765139   -0.694468    0.737481
      6          6           0       -1.758708   -0.276917    2.189301
      7          6           0       -0.740556   -1.740122    0.421518
      8          6           0       -0.354368   -2.153636   -0.983112
      9          6           0        0.623022   -1.396877   -0.140390
     10          6           0        1.992547   -1.887497    0.480846
     11          6           0        2.146260   -0.378080    0.880447
     12          6           0        2.742120    1.103626    0.893757
     13          8           0        3.835305    1.449436    0.107524
     14          6           0        5.051112    0.940791    0.606739
     15          6           0        1.372508    1.487801    0.181477
     16          6           0        1.305563   -0.004414   -0.306506
     17          8           0        2.114078   -0.097334   -1.486747
     18          6           0        1.480558    0.369346   -2.653987
     19          1           0       -7.154845    0.967668   -0.418682
     20          1           0       -5.980246    2.172129   -0.964684
     21          1           0       -6.182617    1.855193    0.761842
     22          1           0       -5.101599   -0.177038   -1.287450
     23          1           0       -5.297637   -0.494364    0.424986
     24          1           0       -3.636562    1.307769    0.959226
     25          1           0       -3.468540    1.658115   -0.749101
     26          1           0       -2.536934   -0.619852   -1.190408
     27          1           0       -2.538407    0.446052    2.432771
     28          1           0       -0.793203    0.161506    2.470997
     29          1           0       -1.899490   -1.150812    2.838229
     30          1           0       -0.714010   -2.545363    1.156298
     31          1           0       -0.820038   -1.646139   -1.819147
     32          1           0       -0.164678   -3.207466   -1.161707
     33          1           0        2.675802   -2.219060   -0.300508
     34          1           0        1.948368   -2.621132    1.289971
     35          1           0        1.467504   -0.295420    1.738304
     36          1           0        2.875294    1.493248    1.915697
     37          1           0        5.844509    1.281892   -0.062136
     38          1           0        5.047098   -0.158444    0.631113
     39          1           0        5.258990    1.308805    1.624572
     40          1           0        1.453971    2.260456   -0.585160
     41          1           0        0.604461    1.760679    0.906510
     42          1           0        2.200442    0.259776   -3.469509
     43          1           0        1.198397    1.430263   -2.583041
     44          1           0        0.579636   -0.207837   -2.902876
 ---------------------------------------------------------------------

 SCF Done:  E(RB3LYP) =  -775.659949284     A.U. after    1 cycles

 The electronic state is 1-A.
 Alpha  occ. eigenvalues --  -19.13497 -19.12453 -10.23988 -10.22195 -10.21688
 Alpha  occ. eigenvalues --  -10.21191 -10.20157 -10.18884 -10.18816 -10.18694
 Alpha  occ. eigenvalues --  -10.18537 -10.17908 -10.17862 -10.17819 -10.17786
 Alpha  occ. eigenvalues --  -10.17370 -10.17140 -10.16977  -1.03529  -1.01810
 Alpha  occ. eigenvalues --   -0.87685  -0.83613  -0.80114  -0.76805  -0.74538
 Alpha  occ. eigenvalues --   -0.70605  -0.68542  -0.67417  -0.65518  -0.62194
 Alpha  occ. eigenvalues --   -0.60873  -0.60632  -0.58041  -0.55792  -0.53204
 Alpha  occ. eigenvalues --   -0.51286  -0.49607  -0.47906  -0.47593  -0.46317
 Alpha  occ. eigenvalues --   -0.45016  -0.44648  -0.44257  -0.43552  -0.42567
 Alpha  occ. eigenvalues --   -0.42449  -0.41300  -0.41024  -0.40078  -0.39511
 Alpha  occ. eigenvalues --   -0.38387  -0.37692  -0.37161  -0.36209  -0.35710
 Alpha  occ. eigenvalues --   -0.34875  -0.34617  -0.33781  -0.32930  -0.32556
 Alpha  occ. eigenvalues --   -0.32198  -0.30929  -0.30100  -0.28840  -0.28153
 Alpha  occ. eigenvalues --   -0.26056  -0.24165  -0.22396  -0.21671
 Alpha virt. eigenvalues --    0.02648   0.06088   0.07759   0.08533   0.09652
 Alpha virt. eigenvalues --    0.10253   0.10716   0.11388   0.12503   0.12698
 Alpha virt. eigenvalues --    0.13830   0.14251   0.14327   0.14656   0.15096

 Mulliken charges:
               1
     1  C   -0.378521
     2  C   -0.148453
     3  C   -0.238878
     4  C   -0.144668
     5  C    0.293868
     6  C   -0.493694
     7  C   -0.158013
     8  C   -0.406944
     9  C    0.265099
    10  C   -0.388212
    11  C   -0.015881
    12  C    0.062588
    13  O   -0.213543
    14  C   -0.233987
    15  C   -0.363391
    16  C    0.323175
    17  O   -0.266717
    18  C   -0.241160
    19  H    0.111395
    20  H    0.113122
    21  H    0.112801
    22  H    0.095417
    23  H    0.098999
    24  H    0.093744
    25  H    0.098945
    26  H    0.071190
    27  H    0.122875
    28  H    0.128480
    29  H    0.122653
    30  H    0.081693
    31  H    0.118419
    32  H    0.110670
    33  H    0.128515
    34  H    0.093555
    35  H    0.093699
    36  H    0.062753
    37  H    0.124925
    38  H    0.113433
    39  H    0.098776
    40  H    0.112850
    41  H    0.113384
    42  H    0.121811
    43  H    0.100463
    44  H    0.102765
 Sum of Mulliken charges =  -0.00000

 Dipole moment (field-independent basis, Debye):
    X=             -0.8355    Y=             -0.2638    Z=              0.8846  Tot=              1.2451
 Quadrupole moment (field-independent basis, Debye-Ang):
   XX=           -110.9063   YY=           -111.2659   ZZ=           -106.6396
   XY=             -2.2426   XZ=              3.3723   YZ=             -0.2130

  Exact polarizability: 215.955  -5.347 162.764   8.267  -0.743 163.837
 Approx polarizability: 260.841  -9.259 247.280  13.467  -5.262 257.160

                      1                      2                      3
                      A                      A                      A
 Frequencies --     18.4205                34.2499                55.2158
 Red. masses --      3.6013                 3.0275                 2.3218
 Frc consts  --      0.0007                 0.0021                 0.0042
 IR Inten    --      0.0364                 0.0040                 0.0710

                      4                      5                      6
                      A                      A                      A
 Frequencies --     61.3298                79.6808                83.8153
 Red. masses --      2.8291                 2.7564                 2.1963
 Frc consts  --      0.0063                 0.0103                 0.0091
 IR Inten    --      0.1721                 1.2451                 0.1753

                      7                      8                      9
                      A                      A                      A
 Frequencies --     87.1988                98.8351               108.6338
 Red. masses --      2.3864                 2.0519                 2.3958
 Frc consts  --      0.0107                 0.0118                 0.0167
 IR Inten    --      2.1957                 0.1421                 0.3584

                     10                     11                     12
                      A                      A                      A
 Frequencies --    144.8682               153.1422               164.4418
 Red. masses --      1.0720                 1.9161                 2.4434
 Frc consts  --      0.0133                 0.0265                 0.0389
 IR Inten    --      0.2051                 1.4592                 0.6092

                     13                     14                     15
                      A                      A                      A
 Frequencies --    193.6230               206.8573               240.7856
 Red. masses --      1.6279                 2.7747                 1.1593
 Frc consts  --      0.0360                 0.0700                 0.0396
 IR Inten    --      1.3004                 0.9227                 0.0527

                     16                     17                     18
                      A                      A                      A
 Frequencies --    248.1350               258.0760               272.3194
 Red. masses --      2.6196                 2.8572                 3.0112
 Frc consts  --      0.0950                 0.1121                 0.1316
 IR Inten    --      0.2026                 1.4977                 0.6908

                     19                     20                     21
                      A                      A                      A
 Frequencies --    296.3929               318.9923               334.7258
 Red. masses --      2.8546                 3.3072                 2.5571
 Frc consts  --      0.1478                 0.1983                 0.1688
 IR Inten    --      0.3319                 1.2736                 2.5916

                     22                     23                     24
                      A                      A                      A
 Frequencies --    340.4282               396.6832               437.6298
 Red. masses --      2.7843                 3.7182                 2.9913
 Frc consts  --      0.1901                 0.3447                 0.3375
 IR Inten    --      1.4076                 6.1038                 0.9890

                     25                     26                     27
                      A                      A                      A
 Frequencies --    445.3530               452.0690               475.6645
 Red. masses --      3.2120                 2.4616                 2.4817
 Frc consts  --      0.3753                 0.2964                 0.3308
 IR Inten    --      1.0027                 1.7586                 0.7457

                     28                     29                     30
                      A                      A                      A
 Frequencies --    489.4281               567.2463               578.4745
 Red. masses --      3.2679                 2.5123                 3.5855
 Frc consts  --      0.4612                 0.4763                 0.7069
 IR Inten    --      1.6555                 2.8832                 3.0920

                     31                     32                     33
                      A                      A                      A
 Frequencies --    613.8982               627.7636               687.0022
 Red. masses --      3.0891                 3.1929                 3.5777
 Frc consts  --      0.6859                 0.7414                 0.9949
 IR Inten    --      8.6374                 6.2552                 0.9769

                     34                     35                     36
                      A                      A                      A
 Frequencies --    728.9434               757.4330               804.4564
 Red. masses --      1.4974                 1.3842                 2.1908
 Frc consts  --      0.4688                 0.4679                 0.8353
 IR Inten    --      2.2063                 0.3905                 1.4517

                     37                     38                     39
                      A                      A                      A
 Frequencies --    811.1862               830.4563               862.4996
 Red. masses --      2.6906                 2.9962                 1.5137
 Frc consts  --      1.0431                 1.2174                 0.6634
 IR Inten    --     11.7985                 1.1202                 1.8350

                     40                     41                     42
                      A                      A                      A
 Frequencies --    871.5839               884.8262               890.6287
 Red. masses --      2.0418                 2.9850                 1.5141
 Frc consts  --      0.9138                 1.3769                 0.7076
 IR Inten    --      2.0429                15.8559                 0.6939

                     43                     44                     45
                      A                      A                      A
 Frequencies --    918.5675               931.8507               955.6428
 Red. masses --      1.5238                 2.3665                 3.0024
 Frc consts  --      0.7575                 1.2108                 1.6155
 IR Inten    --      6.8241                 7.2872                 8.0034

                     46                     47                     48
                      A                      A                      A
 Frequencies --    965.2075               974.9725              1023.0087
 Red. masses --      1.9274                 2.2737                 2.0190
 Frc consts  --      1.0580                 1.2734                 1.2449
 IR Inten    --      3.3351                 4.3989                 8.0227

                     49                     50                     51
                      A                      A                      A
 Frequencies --   1039.0594              1043.0334              1055.0747
 Red. masses --      2.1002                 2.5121                 1.5754
 Frc consts  --      1.3360                 1.6102                 1.0333
 IR Inten    --      8.9393                17.3018                 4.7735

                     52                     53                     54
                      A                      A                      A
 Frequencies --   1063.9515              1073.2900              1074.9740
 Red. masses --      1.7432                 1.5765                 2.1233
 Frc consts  --      1.1626                 1.0700                 1.4456
 IR Inten    --     11.7482                 1.4715                13.8443

                     55                     56                     57
                      A                      A                      A
 Frequencies --   1096.8765              1099.7429              1108.3436
 Red. masses --      1.9748                 2.0865                 2.0789
 Frc consts  --      1.3999                 1.4868                 1.5047
 IR Inten    --     18.2758                44.5638                14.2184

                     58                     59                     60
                      A                      A                      A
 Frequencies --   1111.2043              1115.2695              1136.2475
 Red. masses --      1.8886                 3.7519                 2.2090
 Frc consts  --      1.3739                 2.7495                 1.6803
 IR Inten    --     14.9267                43.7434                17.4861

                     61                     62                     63
                      A                      A                      A
 Frequencies --   1149.8203              1154.9998              1169.9622
 Red. masses --      1.8574                 1.9933                 1.9312
 Frc consts  --      1.4468                 1.5667                 1.5575
 IR Inten    --     50.5194                 0.7519                34.6441

                     64                     65                     66
                      A                      A                      A
 Frequencies --   1178.3661              1181.6244              1189.2440
 Red. masses --      1.5836                 1.2934                 1.9682
 Frc consts  --      1.2956                 1.0640                 1.6401
 IR Inten    --     49.9657                 1.6116                77.6300

                     67                     68                     69
                      A                      A                      A
 Frequencies --   1208.3133              1215.0358              1216.5794
 Red. masses --      1.3270                 1.4497                 2.3031
 Frc consts  --      1.1415                 1.2610                 2.0084
 IR Inten    --      6.8921                16.2716                12.2910

                     70                     71                     72
                      A                      A                      A
 Frequencies --   1224.8829              1237.5918              1249.2124
 Red. masses --      1.6366                 1.7295                 1.6372
 Frc consts  --      1.4468                 1.5608                 1.5053
 IR Inten    --     20.2460                66.8219                20.6233

                     73                     74                     75
                      A                      A                      A
 Frequencies --   1262.9619              1276.5083              1296.9949
 Red. masses --      1.3772                 1.7092                 1.3280
 Frc consts  --      1.2943                 1.6409                 1.3162
 IR Inten    --      3.0191                 0.7820                 6.0175

                     76                     77                     78
                      A                      A                      A
 Frequencies --   1323.1105              1325.2967              1369.4151
 Red. masses --      1.3980                 1.3576                 1.4427
 Frc consts  --      1.4420                 1.4049                 1.5940
 IR Inten    --      5.0446                 2.9613                 0.5991

                     79                     80                     81
                      A                      A                      A
 Frequencies --   1384.5811              1391.8846              1408.8670
 Red. masses --      1.5122                 1.1569                 1.4316
 Frc consts  --      1.7081                 1.3206                 1.6742
 IR Inten    --      1.3721                31.0465                 2.2896

                     82                     83                     84
                      A                      A                      A
 Frequencies --   1411.3460              1415.2160              1430.6605
 Red. masses --      1.2468                 1.5565                 1.1690
 Frc consts  --      1.4632                 1.8367                 1.4098
 IR Inten    --      1.0189                 6.3201                23.0065

                     85                     86                     87
                      A                      A                      A
 Frequencies --   1460.1935              1474.9203              1476.3005
 Red. masses --      1.1166                 1.1454                 1.0969
 Frc consts  --      1.4027                 1.4681                 1.4086
 IR Inten    --      0.8538                 1.2163                 0.8596

                     88                     89                     90
                      A                      A                      A
 Frequencies --   1478.0820              1481.3847              1483.1949
 Red. masses --      1.1761                 1.0593                 1.1200
 Frc consts  --      1.5139                 1.3697                 1.4517
 IR Inten    --      1.0807                 3.8318                 3.4764

                     91                     92                     93
                      A                      A                      A
 Frequencies --   1483.5557              1485.6104              1488.8969
 Red. masses --      1.1447                 1.1783                 1.1088
 Frc consts  --      1.4844                 1.5322                 1.4482
 IR Inten    --      1.7104                 4.4214                 3.4014

                     94                     95                     96
                      A                      A                      A
 Frequencies --   1489.6068              1496.7200              1498.9847
 Red. masses --      1.0680                 1.0668                 1.0405
 Frc consts  --      1.3963                 1.4081                 1.3775
 IR Inten    --      0.5468                 1.3620                 5.1535

                     97                     98                     99
                      A                      A                      A
 Frequencies --   1507.2848              1508.0332              1510.4802
 Red. masses --      1.0605                 1.0572                 1.0833
 Frc consts  --      1.4196                 1.4165                 1.4563
 IR Inten    --      7.7167                 3.4096                 2.8414

                    100                    101                    102
                      A                      A                      A
 Frequencies --   1734.3971              2961.6282              2973.6459
 Red. masses --      6.9331                 1.0785                 1.0472
 Frc consts  --     12.2878                 5.5736                 5.4560
 IR Inten    --      3.4199                44.6433               113.7073

                    103                    104                    105
                      A                      A                      A
 Frequencies --   2989.2134              2995.1472              3017.5456
 Red. masses --      1.0373                 1.0692                 1.0785
 Frc consts  --      5.4608                 5.6511                 5.7859
 IR Inten    --     47.1166                22.8833                20.3363

                    106                    107                    108
                      A                      A                      A
 Frequencies --   3020.6139              3021.4985              3027.5983
 Red. masses --      1.0454                 1.0597                 1.0381
 Frc consts  --      5.6199                 5.7001                 5.6067
 IR Inten    --     36.0559                17.5359                27.1693

                    109                    110                    111
                      A                      A                      A
 Frequencies --   3027.6715              3038.3190              3050.1324
 Red. masses --      1.0947                 1.0992                 1.0953
 Frc consts  --      5.9122                 5.9787                 6.0040
 IR Inten    --     51.4819                45.1172                 7.6636

                    112                    113                    114
                      A                      A                      A
 Frequencies --   3062.3085              3065.5197              3072.8458
 Red. masses --      1.0980                 1.0613                 1.0939
 Frc consts  --      6.0668                 5.8764                 6.0858
 IR Inten    --     21.8790                51.0506                13.3706

                    115                    116                    117
                      A                      A                      A
 Frequencies --   3079.6045              3093.8992              3095.0549
 Red. masses --      1.0576                 1.0862                 1.1013
 Frc consts  --      5.9097                 6.1259                 6.2158
 IR Inten    --     23.4872                12.9116                66.2997

                    118                    119                    120
                      A                      A                      A
 Frequencies --   3100.3569              3106.0273              3118.0507
 Red. masses --      1.1008                 1.0976                 1.0969
 Frc consts  --      6.2344                 6.2390                 6.2832
 IR Inten    --     38.7239                32.2386                32.3507

                    121                    122                    123
                      A                      A                      A
 Frequencies --   3131.7461              3132.9488              3137.6613
 Red. masses --      1.0744                 1.0808                 1.0814
 Frc consts  --      6.2086                 6.2502                 6.2725
 IR Inten    --     10.2107                18.4708                34.0486

                    124                    125                    126
                      A                      A                      A
 Frequencies --   3143.2798              3145.9475              3216.9110
 Red. masses --      1.1089                 1.1048                 1.1129
 Frc consts  --      6.4551                 6.4425                 6.7857
 IR Inten    --     10.4736                24.0976                 7.5213

 - Thermochemistry -
 -------------------
 Temperature   298.150 Kelvin.  Pressure   1.00000 Atm.
 Atom     1 has atomic number  6 and mass  12.00000

 Molecular mass:   250.19328 amu.
 Principal axes and moments of inertia in atomic units:
                           1         2         3
     Eigenvalues --  2324.280579332.090079509.35762
           X            0.99995  -0.00979   0.00312
           Y            0.00982   0.99990  -0.01001
           Z           -0.00302   0.01004   0.99995
 This molecule is an asymmetric top.
 Rotational symmetry number  1.
 Warning -- assumption of classical behavior for rotation
           may cause significant error
 Rotational temperatures (Kelvin)      0.03726     0.00928     0.00911
 Rotational constants (GHZ):           0.77647     0.19339     0.18979
 Zero-point vibrational energy    1018949.2 (Joules/Mol)
                                  243.53471 (Kcal/Mol)
 Warning -- explicit consideration of  31 degrees of freedom as
           vibrations may cause significant error
 Vibrational temperatures:     26.50    49.28    79.44    88.24   114.64
          (Kelvin)            120.59   125.46   142.20   156.30   208.43
                              220.34   236.60   278.58   297.62   346.44
                              357.01   371.31   391.81   426.44   458.96
                              481.60   489.80   570.74   629.65   640.76
                              650.43   684.38   704.18   816.14   832.30
                              883.26   903.21   988.44  1048.79  1089.78
                             1157.43  1167.12  1194.84  1240.94  1254.01
                             1273.07  1281.42  1321.61  1340.73  1374.96
                             1388.72  1402.77  1471.88  1494.97  1500.69
                             1518.02  1530.79  1544.22  1546.65  1578.16
                             1582.28  1594.66  1598.78  1604.62  1634.81
                             1654.34  1661.79  1683.31  1695.41  1700.09
                             1711.06  1738.49  1748.17  1750.39  1762.33
                             1780.62  1797.34  1817.12  1836.61  1866.09
                             1903.66  1906.81  1970.28  1992.10  2002.61
                             2027.05  2030.61  2036.18  2058.40  2100.89
                             2122.08  2124.07  2126.63  2131.38  2133.99
                             2134.51  2137.46  2142.19  2143.21  2153.45
                             2156.70  2168.65  2169.72  2173.24  2495.41
                             4261.12  4278.41  4300.81  4309.35  4341.58
                             4345.99  4347.26  4356.04  4356.14  4371.46
                             4388.46  4405.98  4410.60  4421.14  4430.86
                             4451.43  4453.09  4460.72  4468.88  4486.18
                             4505.88  4507.61  4514.39  4522.48  4526.32
                             4628.42

 Zero-point correction=                           0.388097 (Hartree/Particle)
 Thermal correction to Energy=                    0.408593
 Thermal correction to Enthalpy=                  0.409537
 Thermal correction to Gibbs Free Energy=         0.337809
 Sum of electronic and zero-point Energies=           -775.271852
 Sum of electronic and thermal Energies=              -775.251356
 Sum of electronic and thermal Enthalpies=            -775.250412
 Sum of electronic and thermal Free Energies=         -775.322140

                     E (Thermal)             CV                S
                      KCal/Mol        Cal/Mol-Kelvin    Cal/Mol-Kelvin
 Total                  256.396             76.493            150.964
 Electronic               0.000              0.000              0.000
 Translational            0.889              2.981             42.452
 Rotational               0.889              2.981             33.689
 Vibrational            254.618             70.532             74.824
 Vibration     1          0.593              1.986              6.798
 Vibration     2          0.594              1.983              5.567
 Vibration     3          0.596              1.975              4.621
 Vibration     4          0.597              1.973              4.414
 Vibration     5          0.600              1.963              3.899
 Vibration     6          0.601              1.960              3.799
 Vibration     7          0.601              1.958              3.722
 Vibration     8          0.604              1.950              3.477
 Vibration     9          0.606              1.942              3.293
 Vibration    10          0.616              1.908              2.739
 Vibration    11          0.619              1.899              2.633
 Vibration    12          0.623              1.886              2.498
 Vibration    13          0.635              1.849              2.193
 Vibration    14          0.641              1.830              2.071
 Vibration    15          0.658              1.778              1.797
 Vibration    16          0.662              1.766              1.744
 Vibration    17          0.667              1.749              1.675
 Vibration    18          0.675              1.724              1.581
 Vibration    19          0.690              1.680              1.437
 Vibration    20          0.705              1.637              1.315
 Vibration    21          0.716              1.606              1.237
 Vibration    22          0.720              1.595              1.210
 Vibration    23          0.763              1.477              0.975
 Vibration    24          0.798              1.388              0.834
 Vibration    25          0.805              1.371              0.810
 Vibration    26          0.811              1.356              0.790
 Vibration    27          0.832              1.304              0.722
 Vibration    28          0.845              1.273              0.685
 Vibration    29          0.923              1.102              0.510
 Vibration    30          0.935              1.078              0.488
 Vibration    31          0.973              1.002              0.426

 Optimization completed.
    -- Stationary point found.
 Normal termination of Gaussian 16 at Tue May 23 04:51:01 2023.
