 Gaussian 16, Revision A.03,
 Gaussian 16:  ES64L-G16RevA.03 25-Dec-2016

 -----------------------------
 # opt freq b3lyp/6-31g(2df,p)
 -----------------------------

 -------------------
 Title Card Required
 -------------------
 Symbolic Z-matrix:
 Charge =  0 Multiplicity = 1

 SCF Done:  E(RB3LYP) =  -856.771200689     A.U. after   12 cycles
 SCF Done:  E(RB3LYP) =  -856.807487079     A.U. after   10 cycles
 SCF Done:  E(RB3LYP) =  -856.839153702     A.U. after   11 cycles
 SCF Done:  E(RB3LYP) =  -856.852592242     A.U. after   10 cycles
 SCF Done:  E(RB3LYP) =  -856.860697914     A.U. after   10 cycles
 SCF Done:  E(RB3LYP) =  -856.865714024     A.U. after   10 cycles
 SCF Done:  E(RB3LYP) =  -856.868674742     A.U. after   11 cycles
 SCF Done:  E(RB3LYP) =  -856.869511971     A.U. after   10 cycles
 SCF Done:  E(RB3LYP) =  -856.869714324     A.U. after    9 cycles
 SCF Done:  E(RB3LYP) =  -856.869838148     A.U. after    9 cycles
 SCF Done:  E(RB3LYP) =  -856.876828782     A.U. after    8 cycles
 SCF Done:  E(RB3LYP) =  -856.876841350     A.U. after    8 cycles
 SCF Done:  E(RB3LYP) =  -856.876843454     A.U. after    7 cycles
 SCF Done:  E(RB3LYP) =  -856.876843751     A.U. after    6 cycles
 SCF Done:  E(RB3LYP) =  -856.876843840     A.U. after    6 cycles
 SCF Done:  E(RB3LYP) =  -856.876843869     A.U. after    5 cycles
 SCF Done:  E(RB3LYP) =  -856.876843886     A.U. after    5 cycles
 SCF Done:  E(RB3LYP) =  -856.876843897     A.U. after    5 cycles
 SCF Done:  E(RB3LYP) =  -856.876843902     A.U. after    5 cycles
 Optimization completed.
    -- Stationary point found.
 Normal termination of Gaussian 16 at Tue May 23 07:28:42 2023.

 ----------------------------------------------------------------------
 #N Geom=AllCheck Guess=TCheck SCRF=Check GenChk RB3LYP/6-31G(2df,p) Fr
 eq
 ----------------------------------------------------------------------

 Structure from the checkpoint file:  "CCCCCC1OCqCOCqCrCrCqCrCC2qCrCC12.chk"
 -------------------
 Title Card Required
 -------------------
 Charge =  0 Multiplicity = 1

                         Standard orientation:
 ---------------------------------------------------------------------
 Center     Atomic      Atomic             Coordinates (Angstroms)
 Number     Number       Type             X           Y           Z
 ---------------------------------------------------------------------
      1          6           0       -6.551975   -2.647877    0.309665
      2          6           0       -5.449825   -1.705597    0.801211
      3          6           0       -4.278308   -1.583668   -0.179041
      4          6           0       -3.169667   -0.642358    0.305832
      5          6           0       -2.011159   -0.525795   -0.690423
      6          6           0       -0.817401    0.307802   -0.203038
      7          8           0        0.168789    0.209489   -1.227151
      8          6           0        1.544919    0.270792   -0.862838
      9          6           0        1.997089   -1.079058   -0.292582
     10          8           0        3.401163   -1.038043   -0.145014
     11          6           0        3.992875   -2.201705    0.427475
     12          6           0        4.038729   -3.366292   -0.566228
     13          6           0        5.386383   -1.792075    0.891640
     14          6           0        1.958618    1.511448   -0.030583
     15          6           0        1.897713    1.368407    1.498750
     16          6           0        1.205113    2.752455   -0.553115
     17          6           0       -0.243372    2.933031   -0.068946
     18          6           0       -0.414780    4.050481    0.949075
     19          6           0       -1.377097    2.739421   -1.053146
     20          6           0       -1.190516    1.756273    0.076483
     21          1           0       -7.373675   -2.714270    1.029771
     22          1           0       -6.165353   -3.660977    0.151627
     23          1           0       -6.970990   -2.303931   -0.642637
     24          1           0       -5.074217   -2.055682    1.772092
     25          1           0       -5.873901   -0.709121    0.983567
     26          1           0       -4.653116   -1.231979   -1.150441
     27          1           0       -3.854163   -2.580587   -0.363817
     28          1           0       -2.789881   -1.001178    1.273490
     29          1           0       -3.602096    0.347913    0.496475
     30          1           0       -2.368554   -0.093393   -1.633089
     31          1           0       -1.631709   -1.526245   -0.931305
     32          1           0       -0.444331   -0.147165    0.726828
     33          1           0        2.047879    0.376952   -1.831723
     34          1           0        1.679119   -1.863474   -0.993852
     35          1           0        1.517385   -1.288532    0.677237
     36          1           0        3.395904   -2.505178    1.304618
     37          1           0        4.615870   -3.083525   -1.452573
     38          1           0        3.038142   -3.666447   -0.889263
     39          1           0        4.514141   -4.239277   -0.107728
     40          1           0        5.987781   -1.463877    0.037802
     41          1           0        5.897292   -2.631977    1.371647
     42          1           0        5.326085   -0.965600    1.604618
     43          1           0        3.018160    1.654811   -0.274466
     44          1           0        0.883428    1.222257    1.878432
     45          1           0        2.292869    2.275405    1.969467
     46          1           0        2.516997    0.533038    1.834753
     47          1           0        1.233435    2.736436   -1.648028
     48          1           0        1.766893    3.644713   -0.252212
     49          1           0       -0.091933    5.011674    0.531072
     50          1           0        0.179981    3.866840    1.851217
     51          1           0       -1.460400    4.157140    1.255880
     52          1           0       -1.108973    2.390980   -2.045229
     53          1           0       -2.221793    3.420467   -1.022460
     54          1           0       -1.889910    1.848105    0.904404
 ---------------------------------------------------------------------

 SCF Done:  E(RB3LYP) =  -856.876843902     A.U. after    1 cycles

 The electronic state is 1-A.
 Alpha  occ. eigenvalues --  -19.13568 -19.13004 -10.23264 -10.22503 -10.22242
 Alpha  occ. eigenvalues --  -10.21874 -10.18791 -10.17809 -10.17666 -10.17528
 Alpha  occ. eigenvalues --  -10.17466 -10.17327 -10.17322 -10.17221 -10.17148
 Alpha  occ. eigenvalues --  -10.16961 -10.16930 -10.16923 -10.16857 -10.16554
 Alpha  occ. eigenvalues --   -1.03061  -1.01954  -0.85751  -0.80878  -0.79502
 Alpha  occ. eigenvalues --   -0.77601  -0.75892  -0.71952  -0.71210  -0.69132
 Alpha  occ. eigenvalues --   -0.68433  -0.67678  -0.64124  -0.62400  -0.59765
 Alpha  occ. eigenvalues --   -0.57994  -0.57334  -0.56371  -0.53606  -0.52640
 Alpha  occ. eigenvalues --   -0.50119  -0.48407  -0.48154  -0.46972  -0.45987
 Alpha  occ. eigenvalues --   -0.45237  -0.44786  -0.43520  -0.43012  -0.42380
 Alpha  occ. eigenvalues --   -0.41812  -0.40982  -0.40083  -0.39644  -0.39278
 Alpha  occ. eigenvalues --   -0.38994  -0.38645  -0.38341  -0.38084  -0.37201
 Alpha  occ. eigenvalues --   -0.36965  -0.36116  -0.35790  -0.35177  -0.34793
 Alpha  occ. eigenvalues --   -0.34414  -0.33687  -0.33016  -0.32353  -0.32168
 Alpha  occ. eigenvalues --   -0.31722  -0.31408  -0.30661  -0.30439  -0.28518
 Alpha  occ. eigenvalues --   -0.26633  -0.25345  -0.25153  -0.24322
 Alpha virt. eigenvalues --    0.07426   0.08026   0.09180   0.09932   0.10372
 Alpha virt. eigenvalues --    0.10814   0.11255   0.12321   0.12626   0.12683
 Alpha virt. eigenvalues --    0.13022   0.13727   0.14021   0.14127   0.14678

 Mulliken charges:
               1
     1  C   -0.378778
     2  C   -0.165523
     3  C   -0.158365
     4  C   -0.191197
     5  C   -0.191879
     6  C    0.039516
     7  O   -0.281007
     8  C    0.079518
     9  C   -0.104567
    10  O   -0.263730
    11  C    0.166599
    12  C   -0.393185
    13  C   -0.391321
    14  C    0.009085
    15  C   -0.421154
    16  C   -0.307502
    17  C    0.351680
    18  C   -0.465853
    19  C   -0.351779
    20  C   -0.027724
    21  H    0.109517
    22  H    0.112480
    23  H    0.113155
    24  H    0.092119
    25  H    0.093165
    26  H    0.092989
    27  H    0.090397
    28  H    0.087713
    29  H    0.099007
    30  H    0.103602
    31  H    0.091380
    32  H    0.066662
    33  H    0.088604
    34  H    0.097772
    35  H    0.085054
    36  H    0.063069
    37  H    0.122081
    38  H    0.118722
    39  H    0.113831
    40  H    0.123056
    41  H    0.111834
    42  H    0.120462
    43  H    0.086261
    44  H    0.121631
    45  H    0.108120
    46  H    0.121935
    47  H    0.100584
    48  H    0.086849
    49  H    0.112732
    50  H    0.114706
    51  H    0.106965
    52  H    0.117222
    53  H    0.097431
    54  H    0.076058
 Sum of Mulliken charges =  -0.00000

 Dipole moment (field-independent basis, Debye):
    X=              0.1752    Y=             -0.7831    Z=              1.1858  Tot=              1.4318
 Quadrupole moment (field-independent basis, Debye-Ang):
   XX=           -125.2218   YY=           -124.0259   ZZ=           -128.7692
   XY=             -3.7491   XZ=              0.4271   YZ=             -0.8647

  Exact polarizability: 230.073  -0.917 207.297   3.271   2.982 168.307
 Approx polarizability: 282.815  -0.015 276.334   1.634  -1.959 270.360

                      1                      2                      3
                      A                      A                      A
 Frequencies --     20.2070                23.0934                42.0086
 Red. masses --      2.5905                 3.8372                 2.2755
 Frc consts  --      0.0006                 0.0012                 0.0024
 IR Inten    --      0.1934                 0.0597                 0.0435

                      4                      5                      6
                      A                      A                      A
 Frequencies --     47.2083                51.5142                64.8042
 Red. masses --      2.2271                 2.7176                 3.5343
 Frc consts  --      0.0029                 0.0042                 0.0087
 IR Inten    --      0.0314                 0.0130                 0.0965

                      7                      8                      9
                      A                      A                      A
 Frequencies --     80.7558               113.2268               134.4370
 Red. masses --      3.0707                 2.9083                 2.0609
 Frc consts  --      0.0118                 0.0220                 0.0219
 IR Inten    --      0.0469                 0.4549                 0.6332

                     10                     11                     12
                      A                      A                      A
 Frequencies --    136.6796               148.8946               163.3163
 Red. masses --      2.5060                 2.7760                 3.3318
 Frc consts  --      0.0276                 0.0363                 0.0524
 IR Inten    --      1.5194                 0.2430                 0.3137

                     13                     14                     15
                      A                      A                      A
 Frequencies --    164.5410               184.7355               204.2103
 Red. masses --      2.9038                 2.4220                 1.0856
 Frc consts  --      0.0463                 0.0487                 0.0267
 IR Inten    --      0.6626                 0.0218                 0.0282

                     16                     17                     18
                      A                      A                      A
 Frequencies --    214.6869               233.0500               240.1877
 Red. masses --      2.6737                 1.5626                 1.1853
 Frc consts  --      0.0726                 0.0500                 0.0403
 IR Inten    --      0.7447                 0.2747                 0.1225

                     19                     20                     21
                      A                      A                      A
 Frequencies --    246.4732               247.5407               262.5501
 Red. masses --      1.1800                 1.1551                 2.5735
 Frc consts  --      0.0422                 0.0417                 0.1045
 IR Inten    --      0.3288                 0.2194                 0.0932

                     22                     23                     24
                      A                      A                      A
 Frequencies --    267.3723               284.4649               316.2878
 Red. masses --      2.9302                 1.6945                 3.1082
 Frc consts  --      0.1234                 0.0808                 0.1832
 IR Inten    --      2.3152                 1.0493                 1.8259

                     25                     26                     27
                      A                      A                      A
 Frequencies --    337.6161               347.6605               366.0825
 Red. masses --      2.8040                 2.9821                 2.8808
 Frc consts  --      0.1883                 0.2124                 0.2275
 IR Inten    --      1.2098                 2.9499                 0.7719

                     28                     29                     30
                      A                      A                      A
 Frequencies --    389.0181               399.2663               427.2302
 Red. masses --      2.4792                 2.0836                 3.0922
 Frc consts  --      0.2211                 0.1957                 0.3325
 IR Inten    --      0.8522                 0.5954                 2.2418

                     31                     32                     33
                      A                      A                      A
 Frequencies --    445.8517               457.2402               483.4651
 Red. masses --      2.8444                 2.9226                 2.8701
 Frc consts  --      0.3331                 0.3600                 0.3953
 IR Inten    --      1.8383                 3.2287                 0.9875

                     34                     35                     36
                      A                      A                      A
 Frequencies --    515.2479               543.8665               589.7772
 Red. masses --      2.7042                 2.9111                 2.8480
 Frc consts  --      0.4230                 0.5073                 0.5837
 IR Inten    --      1.3118                 5.3393                 1.6473

                     37                     38                     39
                      A                      A                      A
 Frequencies --    634.4009               686.6760               726.2654
 Red. masses --      2.6850                 3.1664                 1.6659
 Frc consts  --      0.6367                 0.8797                 0.5177
 IR Inten    --      3.3025                 0.1651                 1.6752

                     40                     41                     42
                      A                      A                      A
 Frequencies --    735.6069               752.2109               763.8579
 Red. masses --      1.2925                 1.6625                 2.9620
 Frc consts  --      0.4121                 0.5542                 1.0183
 IR Inten    --      3.6393                 0.6861                 0.3464

                     43                     44                     45
                      A                      A                      A
 Frequencies --    788.0626               833.7003               860.5590
 Red. masses --      1.5868                 2.7011                 1.4273
 Frc consts  --      0.5806                 1.1061                 0.6228
 IR Inten    --      0.1722                 3.5814                 0.1457

                     46                     47                     48
                      A                      A                      A
 Frequencies --    888.3463               896.2230               900.6414
 Red. masses --      1.8827                 1.8588                 1.8431
 Frc consts  --      0.8754                 0.8796                 0.8809
 IR Inten    --      0.8480                 2.3270                 3.6569

                     49                     50                     51
                      A                      A                      A
 Frequencies --    907.0775               925.6572               931.1138
 Red. masses --      2.0612                 1.2404                 1.9283
 Frc consts  --      0.9992                 0.6262                 0.9850
 IR Inten    --      5.3657                 0.3274                 8.2670

                     52                     53                     54
                      A                      A                      A
 Frequencies --    937.5798               948.1115               951.6043
 Red. masses --      1.6756                 1.8709                 1.6241
 Frc consts  --      0.8679                 0.9909                 0.8665
 IR Inten    --      4.5060                11.5123                 2.2956

                     55                     56                     57
                      A                      A                      A
 Frequencies --    961.2188               992.3720               993.6458
 Red. masses --      1.6072                 1.7674                 1.7223
 Frc consts  --      0.8749                 1.0255                 1.0019
 IR Inten    --      5.0693                 0.5026                 6.1332

                     58                     59                     60
                      A                      A                      A
 Frequencies --   1018.3129              1029.1373              1041.1548
 Red. masses --      3.0315                 1.7604                 1.7076
 Frc consts  --      1.8521                 1.0985                 1.0906
 IR Inten    --      0.6215                 2.0582                19.7995

                     61                     62                     63
                      A                      A                      A
 Frequencies --   1050.1907              1058.3068              1067.6208
 Red. masses --      2.1435                 1.9621                 1.7805
 Frc consts  --      1.3929                 1.2948                 1.1957
 IR Inten    --      8.7620                 2.4860                 0.5930

                     64                     65                     66
                      A                      A                      A
 Frequencies --   1071.9758              1081.2409              1112.0525
 Red. masses --      1.6308                 1.7724                 3.0734
 Frc consts  --      1.1041                 1.2209                 2.2394
 IR Inten    --      1.3790                16.5754                79.2004

                     67                     68                     69
                      A                      A                      A
 Frequencies --   1115.2493              1116.2628              1121.1241
 Red. masses --      2.7274                 2.0268                 2.0270
 Frc consts  --      1.9986                 1.4880                 1.5011
 IR Inten    --     59.9062                24.3939                42.8094

                     70                     71                     72
                      A                      A                      A
 Frequencies --   1134.7613              1148.5239              1151.4353
 Red. masses --      1.9027                 2.0751                 2.1777
 Frc consts  --      1.4436                 1.6128                 1.7011
 IR Inten    --     16.6083                37.3124                44.7901

                     73                     74                     75
                      A                      A                      A
 Frequencies --   1154.6533              1165.7971              1171.8435
 Red. masses --      2.1245                 2.0209                 2.2922
 Frc consts  --      1.6689                 1.6182                 1.8546
 IR Inten    --     28.9174                46.5500                11.8189

                     76                     77                     78
                      A                      A                      A
 Frequencies --   1177.5495              1201.6785              1229.7211
 Red. masses --      2.4185                 2.0322                 1.7168
 Frc consts  --      1.9759                 1.7290                 1.5296
 IR Inten    --     90.8118                16.3590                14.5021

                     79                     80                     81
                      A                      A                      A
 Frequencies --   1231.0705              1251.9367              1259.8298
 Red. masses --      1.5713                 1.2588                 1.2902
 Frc consts  --      1.4030                 1.1625                 1.2065
 IR Inten    --     17.5156                 2.4047                 6.2932

                     82                     83                     84
                      A                      A                      A
 Frequencies --   1288.5393              1289.9325              1310.9848
 Red. masses --      1.2829                 1.6900                 1.4889
 Frc consts  --      1.2550                 1.6569                 1.5077
 IR Inten    --      0.7102                 3.8014                 1.0573

                     85                     86                     87
                      A                      A                      A
 Frequencies --   1318.8789              1327.1471              1330.2773
 Red. masses --      1.4109                 1.2883                 1.1481
 Frc consts  --      1.4460                 1.3369                 1.1971
 IR Inten    --      0.7532                 1.1653                 0.1446

                     88                     89                     90
                      A                      A                      A
 Frequencies --   1332.4574              1349.5508              1364.7277
 Red. masses --      1.1423                 1.2234                 1.3800
 Frc consts  --      1.1949                 1.3128                 1.5144
 IR Inten    --      2.0360                22.3328                 5.0686

                     91                     92                     93
                      A                      A                      A
 Frequencies --   1365.6064              1371.7800              1377.6741
 Red. masses --      1.3483                 1.3187                 1.3792
 Frc consts  --      1.4815                 1.4620                 1.5423
 IR Inten    --     10.1858                 5.0615                 5.3267

                     94                     95                     96
                      A                      A                      A
 Frequencies --   1380.6465              1383.3709              1392.1930
 Red. masses --      1.4394                 1.3028                 1.2381
 Frc consts  --      1.6165                 1.4690                 1.4139
 IR Inten    --     12.6357                 7.6818                 0.7643

                     97                     98                     99
                      A                      A                      A
 Frequencies --   1396.8251              1397.8285              1400.4248
 Red. masses --      1.4605                 1.3460                 1.6219
 Frc consts  --      1.6789                 1.5495                 1.8741
 IR Inten    --      9.3009                13.7817                 0.8434

                    100                    101                    102
                      A                      A                      A
 Frequencies --   1413.1687              1413.3825              1414.5876
 Red. masses --      1.2640                 1.2512                 1.2542
 Frc consts  --      1.4873                 1.4726                 1.4787
 IR Inten    --      7.1364                 0.8128                15.0903

                    103                    104                    105
                      A                      A                      A
 Frequencies --   1416.7932              1423.5506              1430.7499
 Red. masses --      1.3017                 1.5774                 1.4112
 Frc consts  --      1.5395                 1.8834                 1.7020
 IR Inten    --      5.5190                 1.1661                12.7860

                    106                    107                    108
                      A                      A                      A
 Frequencies --   1477.4294              1480.2659              1481.9075
 Red. masses --      1.2076                 1.0500                 1.0832
 Frc consts  --      1.5530                 1.3556                 1.4015
 IR Inten    --      6.0238                 1.7962                 0.7608

                    109                    110                    111
                      A                      A                      A
 Frequencies --   1483.6487              1485.0526              1491.0139
 Red. masses --      1.0688                 1.0497                 1.0717
 Frc consts  --      1.3862                 1.3639                 1.4037
 IR Inten    --      0.1870                 0.3559                 0.4198

                    112                    113                    114
                      A                      A                      A
 Frequencies --   1491.8223              1494.8137              1495.4678
 Red. masses --      1.0484                 1.0662                 1.1277
 Frc consts  --      1.3747                 1.4037                 1.4859
 IR Inten    --      2.4081                 4.6989                 2.6478

                    115                    116                    117
                      A                      A                      A
 Frequencies --   1499.7943              1500.6648              1503.9964
 Red. masses --      1.0403                 1.1571                 1.0794
 Frc consts  --      1.3787                 1.5353                 1.4386
 IR Inten    --      4.8802                 3.1192                 0.5292

                    118                    119                    120
                      A                      A                      A
 Frequencies --   1504.9715              1506.5934              1510.2264
 Red. masses --      1.0588                 1.0776                 1.0546
 Frc consts  --      1.4130                 1.4411                 1.4172
 IR Inten    --      2.9528                 0.5783                 4.8370

                    121                    122                    123
                      A                      A                      A
 Frequencies --   1514.1269              1527.5342              2952.8069
 Red. masses --      1.0928                 1.0793                 1.0814
 Frc consts  --      1.4761                 1.4838                 5.5554
 IR Inten    --      2.6602                 6.3929                29.2452

                    124                    125                    126
                      A                      A                      A
 Frequencies --   2968.4382              2985.4923              3000.1113
 Red. masses --      1.0659                 1.0765                 1.0603
 Frc consts  --      5.5337                 5.6533                 5.6226
 IR Inten    --     37.5173                31.3902                 2.2554

                    127                    128                    129
                      A                      A                      A
 Frequencies --   3003.6794              3012.5320              3014.3405
 Red. masses --      1.0606                 1.0906                 1.0613
 Frc consts  --      5.6375                 5.8313                 5.6815
 IR Inten    --      7.2000                12.4915                44.7488

                    130                    131                    132
                      A                      A                      A
 Frequencies --   3017.5687              3021.3298              3024.8752
 Red. masses --      1.0429                 1.0685                 1.0905
 Frc consts  --      5.5949                 5.7470                 5.8788
 IR Inten    --     25.3986                19.6038                 0.3958

                    133                    134                    135
                      A                      A                      A
 Frequencies --   3027.4448              3028.5489              3029.8515
 Red. masses --      1.0497                 1.0510                 1.0743
 Frc consts  --      5.6685                 5.6798                 5.8107
 IR Inten    --     13.7799                60.2542                29.0627

                    136                    137                    138
                      A                      A                      A
 Frequencies --   3037.2029              3039.7591              3040.0701
 Red. masses --      1.0368                 1.0505                 1.0940
 Frc consts  --      5.6350                 5.7193                 5.9572
 IR Inten    --     22.9366                43.5635                15.7100

                    139                    140                    141
                      A                      A                      A
 Frequencies --   3042.1322              3043.9050              3055.4425
 Red. masses --      1.0370                 1.0732                 1.1038
 Frc consts  --      5.6546                 5.8584                 6.0716
 IR Inten    --      8.6589                52.9873                18.4922

                    142                    143                    144
                      A                      A                      A
 Frequencies --   3064.5137              3075.0468              3079.4004
 Red. masses --      1.1016                 1.1042                 1.1002
 Frc consts  --      6.0954                 6.1518                 6.1470
 IR Inten    --     25.8346                64.7601                30.4704

                    145                    146                    147
                      A                      A                      A
 Frequencies --   3093.6625              3094.1800              3099.4406
 Red. masses --      1.1007                 1.1020                 1.1010
 Frc consts  --      6.2069                 6.2162                 6.2315
 IR Inten    --     23.7850                62.0603                39.2350

                    148                    149                    150
                      A                      A                      A
 Frequencies --   3101.8053              3107.1759              3113.9125
 Red. masses --      1.0962                 1.1016                 1.1011
 Frc consts  --      6.2138                 6.2664                 6.2906
 IR Inten    --     30.2682                 5.7165                29.8761

                    151                    152                    153
                      A                      A                      A
 Frequencies --   3116.3091              3120.6447              3120.9838
 Red. masses --      1.1013                 1.0562                 1.1016
 Frc consts  --      6.3017                 6.0600                 6.3220
 IR Inten    --     37.8347                19.9231                30.7724

                    154                    155                    156
                      A                      A                      A
 Frequencies --   3125.4927              3127.4669              3209.5752
 Red. masses --      1.1014                 1.0848                 1.1161
 Frc consts  --      6.3392                 6.2514                 6.7743
 IR Inten    --     29.8039                20.0401                10.1357

 - Thermochemistry -
 -------------------
 Temperature   298.150 Kelvin.  Pressure   1.00000 Atm.
 Atom     1 has atomic number  6 and mass  12.00000

 Molecular mass:   282.25588 amu.
 Principal axes and moments of inertia in atomic units:
                           1         2         3
     Eigenvalues --  4930.14436********************
           X            0.99998   0.00557   0.00121
           Y           -0.00558   0.99996   0.00632
           Z           -0.00118  -0.00632   0.99998
 This molecule is an asymmetric top.
 Rotational symmetry number  1.
 Warning -- assumption of classical behavior for rotation
           may cause significant error
 Rotational temperatures (Kelvin)      0.01757     0.00791     0.00591
 Rotational constants (GHZ):           0.36606     0.16475     0.12323
 Zero-point vibrational energy    1296192.6 (Joules/Mol)
                                  309.79746 (Kcal/Mol)
 Warning -- explicit consideration of  36 degrees of freedom as
           vibrations may cause significant error
 Vibrational temperatures:     29.07    33.23    60.44    67.92    74.12
          (Kelvin)             93.24   116.19   162.91   193.42   196.65
                              214.23   234.98   236.74   265.79   293.81
                              308.89   335.31   345.58   354.62   356.16
                              377.75   384.69   409.28   455.07   485.75
                              500.21   526.71   559.71   574.46   614.69
                              641.48   657.87   695.60   741.33   782.50
                              848.56   912.76   987.97  1044.93  1058.37
                             1082.26  1099.02  1133.85  1199.51  1238.15
                             1278.13  1289.46  1295.82  1305.08  1331.81
                             1339.67  1348.97  1364.12  1369.15  1382.98
                             1427.80  1429.63  1465.13  1480.70  1497.99
                             1510.99  1522.67  1536.07  1542.33  1555.66
                             1600.00  1604.59  1606.05  1613.05  1632.67
                             1652.47  1656.66  1661.29  1677.32  1686.02
                             1694.23  1728.95  1769.29  1771.24  1801.26
                             1812.61  1853.92  1855.93  1886.21  1897.57
                             1909.47  1913.97  1917.11  1941.70  1963.54
                             1964.80  1973.69  1982.17  1986.44  1990.36
                             2003.06  2009.72  2011.16  2014.90  2033.23
                             2033.54  2035.28  2038.45  2048.17  2058.53
                             2125.69  2129.77  2132.13  2134.64  2136.66
                             2145.24  2146.40  2150.70  2151.64  2157.87
                             2159.12  2163.92  2165.32  2167.65  2172.88
                             2178.49  2197.78  4248.43  4270.92  4295.46
                             4316.49  4321.62  4334.36  4336.96  4341.61
                             4347.02  4352.12  4355.82  4357.41  4359.28
                             4369.86  4373.54  4373.98  4376.95  4379.50
                             4396.10  4409.15  4424.31  4430.57  4451.09
                             4451.83  4459.40  4462.81  4470.53  4480.23
                             4483.67  4489.91  4490.40  4496.89  4499.73
                             4617.86

 Zero-point correction=                           0.493694 (Hartree/Particle)
 Thermal correction to Energy=                    0.517386
 Thermal correction to Enthalpy=                  0.518330
 Thermal correction to Gibbs Free Energy=         0.439364
 Sum of electronic and zero-point Energies=           -856.383150
 Sum of electronic and thermal Energies=              -856.359458
 Sum of electronic and thermal Enthalpies=            -856.358514
 Sum of electronic and thermal Free Energies=         -856.437480

                     E (Thermal)             CV                S
                      KCal/Mol        Cal/Mol-Kelvin    Cal/Mol-Kelvin
 Total                  324.665             89.631            166.199
 Electronic               0.000              0.000              0.000
 Translational            0.889              2.981             42.811
 Rotational               0.889              2.981             35.024
 Vibrational            322.887             83.669             88.363
 Vibration     1          0.593              1.986              6.614
 Vibration     2          0.593              1.985              6.349
 Vibration     3          0.595              1.980              5.162
 Vibration     4          0.595              1.979              4.931
 Vibration     5          0.596              1.977              4.758
 Vibration     6          0.597              1.971              4.305
 Vibration     7          0.600              1.962              3.872
 Vibration     8          0.607              1.938              3.213
 Vibration     9          0.613              1.919              2.882
 Vibration    10          0.614              1.917              2.850
 Vibration    11          0.618              1.904              2.686
 Vibration    12          0.623              1.887              2.511
 Vibration    13          0.623              1.886              2.497
 Vibration    14          0.631              1.861              2.280
 Vibration    15          0.640              1.834              2.095
 Vibration    16          0.645              1.819              2.003
 Vibration    17          0.654              1.790              1.855
 Vibration    18          0.657              1.779              1.801
 Vibration    19          0.661              1.769              1.756
 Vibration    20          0.661              1.767              1.748
 Vibration    21          0.670              1.741              1.645
 Vibration    22          0.672              1.733              1.613
 Vibration    23          0.683              1.702              1.507
 Vibration    24          0.703              1.643              1.329
 Vibration    25          0.718              1.600              1.223
 Vibration    26          0.725              1.580              1.177
 Vibration    27          0.739              1.542              1.096
 Vibration    28          0.757              1.494              1.004
 Vibration    29          0.765              1.472              0.965
 Vibration    30          0.789              1.411              0.868
 Vibration    31          0.805              1.370              0.808
 Vibration    32          0.815              1.345              0.774
 Vibration    33          0.840              1.287              0.701
 Vibration    34          0.870              1.216              0.621
 Vibration    35          0.899              1.153              0.557
 Vibration    36          0.947              1.054              0.468

 Optimization completed.
    -- Stationary point found.
 Normal termination of Gaussian 16 at Tue May 23 17:38:07 2023.
