 Gaussian 16, Revision A.03,
 Gaussian 16:  ES64L-G16RevA.03 25-Dec-2016

 -----------------------------
 # opt freq b3lyp/6-31g(2df,p)
 -----------------------------

 -------------------
 Title Card Required
 -------------------
 Symbolic Z-matrix:
 Charge =  0 Multiplicity = 1

 SCF Done:  E(RB3LYP) =  -352.529998861     A.U. after   12 cycles
 SCF Done:  E(RB3LYP) =  -352.551610466     A.U. after   10 cycles
 SCF Done:  E(RB3LYP) =  -352.554962355     A.U. after   10 cycles
 SCF Done:  E(RB3LYP) =  -352.555646866     A.U. after    9 cycles
 SCF Done:  E(RB3LYP) =  -352.556242876     A.U. after   10 cycles
 SCF Done:  E(RB3LYP) =  -352.556450253     A.U. after    9 cycles
 SCF Done:  E(RB3LYP) =  -352.556733768     A.U. after    9 cycles
 SCF Done:  E(RB3LYP) =  -352.556798583     A.U. after    9 cycles
 SCF Done:  E(RB3LYP) =  -352.556800652     A.U. after    6 cycles
 SCF Done:  E(RB3LYP) =  -352.556800804     A.U. after    6 cycles
 SCF Done:  E(RB3LYP) =  -352.556800840     A.U. after    5 cycles
 Optimization completed.
    -- Stationary point found.
 Normal termination of Gaussian 16 at Sun May 28 12:09:11 2023.

 ----------------------------------------------------------------------
 #N Geom=AllCheck Guess=TCheck SCRF=Check GenChk RB3LYP/6-31G(2df,p) Fr
 eq
 ----------------------------------------------------------------------

 Structure from the checkpoint file:  "CCCC12CCqCrqC1rC2.chk"
 -------------------
 Title Card Required
 -------------------
 Charge =  0 Multiplicity = 1

                         Standard orientation:
 ---------------------------------------------------------------------
 Center     Atomic      Atomic             Coordinates (Angstroms)
 Number     Number       Type             X           Y           Z
 ---------------------------------------------------------------------
      1          6           0       -3.843488   -0.153562    0.000159
      2          6           0       -2.361014   -0.535617   -0.000204
      3          6           0       -1.427393    0.682029   -0.000032
      4          6           0        0.039201    0.327886   -0.000034
      5          6           0        0.825729   -0.490225    1.073056
      6          6           0        1.886870   -0.098385    0.000025
      7          6           0        3.353782   -0.437307    0.000074
      8          6           0        0.825925   -0.489577   -1.073444
      9          6           0        1.240771    1.320481    0.000359
     10          1           0       -4.485394   -1.040193   -0.000514
     11          1           0       -4.098966    0.443151   -0.882761
     12          1           0       -4.098897    0.441763    0.884035
     13          1           0       -2.142464   -1.158047   -0.877230
     14          1           0       -2.142172   -1.158493    0.876436
     15          1           0       -1.643719    1.306930    0.878090
     16          1           0       -1.643704    1.307189   -0.877988
     17          1           0        0.586947   -1.555197    1.157312
     18          1           0        0.932731   -0.027652    2.059853
     19          1           0        3.508259   -1.522165   -0.000341
     20          1           0        3.853437   -0.028593    0.885518
     21          1           0        3.853631   -0.027909   -0.884948
     22          1           0        0.587201   -1.554509   -1.158358
     23          1           0        0.933129   -0.026398   -2.059934
     24          1           0        1.378944    1.923141   -0.903465
     25          1           0        1.378739    1.922634    0.904550
 ---------------------------------------------------------------------

 SCF Done:  E(RB3LYP) =  -352.556800840     A.U. after    1 cycles

 The electronic state is 1-A.
 Alpha  occ. eigenvalues --  -10.19784 -10.19553 -10.17536 -10.17498 -10.17498
 Alpha  occ. eigenvalues --  -10.17449 -10.17264 -10.17025 -10.16941  -0.90390
 Alpha  occ. eigenvalues --   -0.78109  -0.72223  -0.68703  -0.65754  -0.65734
 Alpha  occ. eigenvalues --   -0.59113  -0.53777  -0.52629  -0.45689  -0.44576
 Alpha  occ. eigenvalues --   -0.44350  -0.44274  -0.41076  -0.40546  -0.39678
 Alpha  occ. eigenvalues --   -0.38097  -0.36423  -0.34317  -0.34084  -0.32690
 Alpha  occ. eigenvalues --   -0.30007  -0.29920  -0.29154  -0.29136  -0.28224
 Alpha virt. eigenvalues --    0.09132   0.10196   0.11767   0.13209   0.13651
 Alpha virt. eigenvalues --    0.14844   0.14955   0.15349   0.15753   0.16335
 Alpha virt. eigenvalues --    0.16938   0.17144   0.18013   0.18549   0.18934

 Mulliken charges:
               1
     1  C   -0.378989
     2  C   -0.162959
     3  C   -0.324368
     4  C    0.370578
     5  C   -0.286730
     6  C    0.336420
     7  C   -0.508066
     8  C   -0.286729
     9  C   -0.304490
    10  H    0.109061
    11  H    0.112629
    12  H    0.112633
    13  H    0.098191
    14  H    0.098193
    15  H    0.091740
    16  H    0.091739
    17  H    0.081959
    18  H    0.080133
    19  H    0.115481
    20  H    0.115663
    21  H    0.115661
    22  H    0.081955
    23  H    0.080133
    24  H    0.080083
    25  H    0.080080
 Sum of Mulliken charges =  -0.00000

 Dipole moment (field-independent basis, Debye):
    X=              0.0012    Y=             -0.0442    Z=             -0.0000  Tot=              0.0442
 Quadrupole moment (field-independent basis, Debye-Ang):
   XX=            -58.7697   YY=            -58.0524   ZZ=            -57.6215
   XY=              0.1430   XZ=              0.0000   YZ=             -0.0001

  Exact polarizability: 111.013   0.471  87.227  -0.000   0.000  85.875
 Approx polarizability: 130.870   1.018 132.708   0.000  -0.001 133.332

                      1                      2                      3
                      A                      A                      A
 Frequencies --     74.5500                80.1153               109.2874
 Red. masses --      2.6333                 1.6887                 3.0939
 Frc consts  --      0.0086                 0.0064                 0.0218
 IR Inten    --      0.0031                 0.0058                 0.0284

                      4                      5                      6
                      A                      A                      A
 Frequencies --    208.5540               229.6979               249.3286
 Red. masses --      1.0323                 2.0354                 1.1894
 Frc consts  --      0.0265                 0.0633                 0.0436
 IR Inten    --      0.0002                 0.0774                 0.0065

                      7                      8                      9
                      A                      A                      A
 Frequencies --    266.9962               311.3055               365.1853
 Red. masses --      2.6536                 3.1138                 2.1806
 Frc consts  --      0.1115                 0.1778                 0.1713
 IR Inten    --      0.0966                 0.0559                 0.0055

                     10                     11                     12
                      A                      A                      A
 Frequencies --    398.3485               544.1538               546.0669
 Red. masses --      2.6916                 1.7633                 1.8133
 Frc consts  --      0.2516                 0.3076                 0.3186
 IR Inten    --      0.1655                 0.2094                 0.2529

                     13                     14                     15
                      A                      A                      A
 Frequencies --    615.1008               682.0858               736.9094
 Red. masses --      3.3724                 2.8613                 1.2979
 Frc consts  --      0.7518                 0.7843                 0.4152
 IR Inten    --      0.0024                 0.0779                 1.6518

                     16                     17                     18
                      A                      A                      A
 Frequencies --    768.8078               789.2240               869.5332
 Red. masses --      1.9170                 2.7270                 1.3796
 Frc consts  --      0.6676                 1.0008                 0.6146
 IR Inten    --      0.8434                 0.0546                 0.0064

                     19                     20                     21
                      A                      A                      A
 Frequencies --    899.4836               928.6899               948.7970
 Red. masses --      2.0347                 4.4163                 1.6611
 Frc consts  --      0.9699                 2.2441                 0.8810
 IR Inten    --      1.6142                 0.0011                 0.2449

                     22                     23                     24
                      A                      A                      A
 Frequencies --    959.6734               960.6996               992.5821
 Red. masses --      1.7726                 1.2609                 1.0083
 Frc consts  --      0.9618                 0.6857                 0.5853
 IR Inten    --      0.6460                 0.0024                 0.0004

                     25                     26                     27
                      A                      A                      A
 Frequencies --   1044.6661              1049.7470              1070.8928
 Red. masses --      2.6131                 1.2312                 1.6485
 Frc consts  --      1.6802                 0.7994                 1.1138
 IR Inten    --      0.2317                 0.1249                 0.3023

                     28                     29                     30
                      A                      A                      A
 Frequencies --   1098.3044              1104.7075              1110.6762
 Red. masses --      1.5906                 1.6653                 1.8387
 Frc consts  --      1.1305                 1.1974                 1.3364
 IR Inten    --      2.6606                 1.5389                 1.8674

                     31                     32                     33
                      A                      A                      A
 Frequencies --   1144.4327              1144.7627              1170.7574
 Red. masses --      1.3577                 1.3821                 1.7676
 Frc consts  --      1.0477                 1.0671                 1.4275
 IR Inten    --      0.0129                 0.0231                 0.9741

                     34                     35                     36
                      A                      A                      A
 Frequencies --   1189.7781              1210.0494              1215.7407
 Red. masses --      1.6864                 2.2393                 2.3035
 Frc consts  --      1.4065                 1.9318                 2.0060
 IR Inten    --      0.0264                 0.3308                 0.0384

                     37                     38                     39
                      A                      A                      A
 Frequencies --   1277.4156              1300.7601              1318.7833
 Red. masses --      1.3796                 1.6842                 2.1014
 Frc consts  --      1.3264                 1.6789                 2.1533
 IR Inten    --      0.1632                46.2260                20.2748

                     40                     41                     42
                      A                      A                      A
 Frequencies --   1330.7712              1353.3979              1396.7020
 Red. masses --      1.1026                 2.5214                 1.7572
 Frc consts  --      1.1505                 2.7211                 2.0197
 IR Inten    --      0.0988                 0.5639                 1.1083

                     43                     44                     45
                      A                      A                      A
 Frequencies --   1411.2639              1412.0369              1477.7057
 Red. masses --      1.4212                 1.2383                 1.0795
 Frc consts  --      1.6678                 1.4547                 1.3888
 IR Inten    --      1.1732                 0.6117                 0.6251

                     46                     47                     48
                      A                      A                      A
 Frequencies --   1490.1404              1490.2413              1492.4441
 Red. masses --      1.0500                 1.0503                 1.0590
 Frc consts  --      1.3737                 1.3743                 1.3897
 IR Inten    --      3.5856                 3.4552                 0.7022

                     49                     50                     51
                      A                      A                      A
 Frequencies --   1496.0555              1496.1980              1499.4175
 Red. masses --      1.0919                 1.0933                 1.0404
 Frc consts  --      1.4398                 1.4421                 1.3782
 IR Inten    --      0.5904                 0.2592                 5.0420

                     52                     53                     54
                      A                      A                      A
 Frequencies --   1509.9115              1560.0128              2999.4764
 Red. masses --      1.0824                 1.2658                 1.0582
 Frc consts  --      1.4539                 1.8149                 5.6095
 IR Inten    --      2.5116                 0.0203                19.4529

                     55                     56                     57
                      A                      A                      A
 Frequencies --   3020.9860              3022.6506              3027.1255
 Red. masses --      1.0587                 1.0356                 1.0429
 Frc consts  --      5.6929                 5.5744                 5.6305
 IR Inten    --     16.1902                35.3066                48.4204

                     58                     59                     60
                      A                      A                      A
 Frequencies --   3027.3987              3027.9799              3029.0707
 Red. masses --      1.0831                 1.0463                 1.0696
 Frc consts  --      5.8485                 5.6520                 5.7823
 IR Inten    --     44.9289                70.3078                24.4763

                     61                     62                     63
                      A                      A                      A
 Frequencies --   3040.4461              3056.6316              3089.2344
 Red. masses --      1.0546                 1.1030                 1.1117
 Frc consts  --      5.7441                 6.0716                 6.2511
 IR Inten    --      0.8941                26.1488                 0.0023

                     64                     65                     66
                      A                      A                      A
 Frequencies --   3089.8179              3090.0181              3094.4016
 Red. masses --      1.1012                 1.1019                 1.1023
 Frc consts  --      6.1944                 6.1988                 6.2189
 IR Inten    --     10.0719                 8.0007                55.1304

                     67                     68                     69
                      A                      A                      A
 Frequencies --   3096.0125              3097.0606              3099.3387
 Red. masses --      1.1088                 1.1086                 1.1012
 Frc consts  --      6.2620                 6.2648                 6.2322
 IR Inten    --     74.2106                52.8290                57.9847

 - Thermochemistry -
 -------------------
 Temperature   298.150 Kelvin.  Pressure   1.00000 Atm.
 Atom     1 has atomic number  6 and mass  12.00000

 Molecular mass:   124.12520 amu.
 Principal axes and moments of inertia in atomic units:
                           1         2         3
     Eigenvalues --   388.488662304.566832358.78165
           X            1.00000  -0.00075  -0.00000
           Y            0.00075   1.00000   0.00001
           Z            0.00000  -0.00001   1.00000
 This molecule is an asymmetric top.
 Rotational symmetry number  1.
 Rotational temperatures (Kelvin)      0.22295     0.03758     0.03672
 Rotational constants (GHZ):           4.64554     0.78312     0.76512
 Zero-point vibrational energy     599990.6 (Joules/Mol)
                                  143.40120 (Kcal/Mol)
 Warning -- explicit consideration of  13 degrees of freedom as
           vibrations may cause significant error
 Vibrational temperatures:    107.26   115.27   157.24   300.06   330.48
          (Kelvin)            358.73   384.15   447.90   525.42   573.13
                              782.92   785.67   884.99   981.37  1060.25
                             1106.14  1135.52  1251.06  1294.16  1336.18
                             1365.11  1380.76  1382.23  1428.10  1503.04
                             1510.35  1540.78  1580.22  1589.43  1598.02
                             1646.58  1647.06  1684.46  1711.83  1740.99
                             1749.18  1837.92  1871.50  1897.44  1914.68
                             1947.24  2009.54  2030.49  2031.61  2126.09
                             2143.98  2144.12  2147.29  2152.49  2152.70
                             2157.33  2172.43  2244.51  4315.58  4346.53
                             4348.92  4355.36  4355.75  4356.59  4358.16
                             4374.52  4397.81  4444.72  4445.56  4445.85
                             4452.15  4454.47  4455.98  4459.26

 Zero-point correction=                           0.228524 (Hartree/Particle)
 Thermal correction to Energy=                    0.238356
 Thermal correction to Enthalpy=                  0.239300
 Thermal correction to Gibbs Free Energy=         0.193779
 Sum of electronic and zero-point Energies=           -352.328276
 Sum of electronic and thermal Energies=              -352.318445
 Sum of electronic and thermal Enthalpies=            -352.317501
 Sum of electronic and thermal Free Energies=         -352.363022

                     E (Thermal)             CV                S
                      KCal/Mol        Cal/Mol-Kelvin    Cal/Mol-Kelvin
 Total                  149.571             37.891             95.807
 Electronic               0.000              0.000              0.000
 Translational            0.889              2.981             40.362
 Rotational               0.889              2.981             29.136
 Vibrational            147.793             31.930             26.309
 Vibration     1          0.599              1.966              4.029
 Vibration     2          0.600              1.963              3.888
 Vibration     3          0.606              1.942              3.282
 Vibration     4          0.642              1.828              2.056
 Vibration     5          0.652              1.796              1.881
 Vibration     6          0.662              1.764              1.735
 Vibration     7          0.672              1.734              1.616
 Vibration     8          0.700              1.652              1.355
 Vibration     9          0.738              1.544              1.100
 Vibration    10          0.765              1.474              0.969
 Vibration    11          0.899              1.152              0.556
 Vibration    12          0.901              1.148              0.552
 Vibration    13          0.975              1.000              0.424

 Optimization completed.
    -- Stationary point found.
 Normal termination of Gaussian 16 at Sun May 28 12:48:12 2023.
