 Gaussian 16, Revision A.03,
 Gaussian 16:  ES64L-G16RevA.03 25-Dec-2016

 -----------------------------
 # opt freq b3lyp/6-31g(2df,p)
 -----------------------------

 -------------------
 Title Card Required
 -------------------
 Symbolic Z-matrix:
 Charge =  0 Multiplicity = 1

 SCF Done:  E(RB3LYP) =  -315.736627099     A.U. after   12 cycles
 SCF Done:  E(RB3LYP) =  -315.738208505     A.U. after   10 cycles
 SCF Done:  E(RB3LYP) =  -315.738446813     A.U. after    8 cycles
 SCF Done:  E(RB3LYP) =  -315.738476647     A.U. after    8 cycles
 SCF Done:  E(RB3LYP) =  -315.738478504     A.U. after    6 cycles
 Optimization completed.
    -- Stationary point found.
 Normal termination of Gaussian 16 at Sun May 28 14:41:23 2023.

 ----------------------------------------------------------------------
 #N Geom=AllCheck Guess=TCheck SCRF=Check GenChk RB3LYP/6-31G(2df,p) Fr
 eq
 ----------------------------------------------------------------------

 Structure from the checkpoint file:  "CCCCCqCrqCrC.chk"
 -------------------
 Title Card Required
 -------------------
 Charge =  0 Multiplicity = 1

                         Standard orientation:
 ---------------------------------------------------------------------
 Center     Atomic      Atomic             Coordinates (Angstroms)
 Number     Number       Type             X           Y           Z
 ---------------------------------------------------------------------
      1          6           0        3.711161   -0.291160    0.000000
      2          6           0        2.461077    0.592987   -0.000001
      3          6           0        1.153645   -0.209421   -0.000001
      4          6           0       -0.089371    0.689469   -0.000002
      5          6           0       -1.473193   -0.008853   -0.000000
      6          6           0       -1.650204   -0.879633   -1.257912
      7          6           0       -1.650196   -0.879639    1.257909
      8          6           0       -2.555413    1.087643    0.000006
      9          1           0        4.626700    0.308861    0.000001
     10          1           0        3.737925   -0.938933   -0.883471
     11          1           0        3.737924   -0.938932    0.883473
     12          1           0        2.479758    1.254222   -0.876591
     13          1           0        2.479757    1.254223    0.876589
     14          1           0        1.143818   -0.868715    0.877336
     15          1           0        1.143820   -0.868716   -0.877337
     16          1           0       -0.041195    1.351315   -0.876425
     17          1           0       -0.041195    1.351318    0.876419
     18          1           0       -0.940494   -1.712204   -1.282167
     19          1           0       -1.507409   -0.290036   -2.170697
     20          1           0       -2.658183   -1.307653   -1.293764
     21          1           0       -0.940483   -1.712208    1.282156
     22          1           0       -2.658173   -1.307661    1.293764
     23          1           0       -1.507397   -0.290046    2.170696
     24          1           0       -2.470084    1.728218   -0.884908
     25          1           0       -2.470079    1.728213    0.884923
     26          1           0       -3.560048    0.650377    0.000008
 ---------------------------------------------------------------------

 SCF Done:  E(RB3LYP) =  -315.738478504     A.U. after    1 cycles

 The electronic state is 1-A.
 Alpha  occ. eigenvalues --  -10.18856 -10.17462 -10.17131 -10.17012 -10.16878
 Alpha  occ. eigenvalues --  -10.16569 -10.16569 -10.16531  -0.81965  -0.77784
 Alpha  occ. eigenvalues --   -0.70850  -0.67773  -0.67744  -0.62723  -0.57424
 Alpha  occ. eigenvalues --   -0.52302  -0.46692  -0.44719  -0.43619  -0.43558
 Alpha  occ. eigenvalues --   -0.40879  -0.40380  -0.38349  -0.37259  -0.37006
 Alpha  occ. eigenvalues --   -0.35741  -0.34265  -0.34235  -0.33277  -0.32024
 Alpha  occ. eigenvalues --   -0.30962  -0.30518  -0.29602
 Alpha virt. eigenvalues --    0.07639   0.10005   0.12206   0.12414   0.13676
 Alpha virt. eigenvalues --    0.14305   0.14356   0.15927   0.16278   0.16470
 Alpha virt. eigenvalues --    0.18398   0.18437   0.19351   0.19970   0.20361

 Mulliken charges:
               1
     1  C   -0.381009
     2  C   -0.157920
     3  C   -0.182567
     4  C   -0.179099
     5  C    0.262829
     6  C   -0.399169
     7  C   -0.399169
     8  C   -0.400437
     9  H    0.109486
    10  H    0.112272
    11  H    0.112272
    12  H    0.092744
    13  H    0.092744
    14  H    0.093566
    15  H    0.093566
    16  H    0.084468
    17  H    0.084468
    18  H    0.111007
    19  H    0.105355
    20  H    0.105928
    21  H    0.111007
    22  H    0.105928
    23  H    0.105355
    24  H    0.105857
    25  H    0.105857
    26  H    0.104665
 Sum of Mulliken charges =  -0.00000

 Dipole moment (field-independent basis, Debye):
    X=              0.0255    Y=              0.0171    Z=             -0.0000  Tot=              0.0307
 Quadrupole moment (field-independent basis, Debye-Ang):
   XX=            -55.5026   YY=            -55.1089   ZZ=            -54.4933
   XY=              0.3861   XZ=              0.0000   YZ=             -0.0000

  Exact polarizability: 103.259  -0.449  82.444   0.000  -0.000  81.713
 Approx polarizability: 122.924   0.704 120.292   0.000   0.000 121.119

                      1                      2                      3
                      A                      A                      A
 Frequencies --     52.0996                79.8797               127.9934
 Red. masses --      1.6310                 2.4357                 2.8239
 Frc consts  --      0.0026                 0.0092                 0.0273
 IR Inten    --      0.0000                 0.0011                 0.0190

                      4                      5                      6
                      A                      A                      A
 Frequencies --    136.0388               224.7712               244.4791
 Red. masses --      1.8256                 1.0807                 1.1011
 Frc consts  --      0.0199                 0.0322                 0.0388
 IR Inten    --      0.0209                 0.0003                 0.0008

                      7                      8                      9
                      A                      A                      A
 Frequencies --    259.9225               271.8959               281.9081
 Red. masses --      1.1331                 1.0684                 2.5288
 Frc consts  --      0.0451                 0.0465                 0.1184
 IR Inten    --      0.0875                 0.0002                 0.0115

                     10                     11                     12
                      A                      A                      A
 Frequencies --    298.6174               331.0833               371.5255
 Red. masses --      2.5086                 2.0474                 2.2733
 Frc consts  --      0.1318                 0.1322                 0.1849
 IR Inten    --      0.0060                 0.0111                 0.0075

                     13                     14                     15
                      A                      A                      A
 Frequencies --    411.8279               463.9980               490.5438
 Red. masses --      2.0480                 2.3742                 2.5385
 Frc consts  --      0.2047                 0.3012                 0.3599
 IR Inten    --      0.0200                 0.2058                 0.2640

                     16                     17                     18
                      A                      A                      A
 Frequencies --    735.0892               747.0100               789.5798
 Red. masses --      1.0830                 3.4984                 1.1947
 Frc consts  --      0.3448                 1.1502                 0.4388
 IR Inten    --      2.8763                 0.0540                 0.0176

                     19                     20                     21
                      A                      A                      A
 Frequencies --    901.3985               913.0965               917.7628
 Red. masses --      1.9945                 2.1307                 1.4796
 Frc consts  --      0.9548                 1.0467                 0.7342
 IR Inten    --      2.8571                 0.3012                 0.6076

                     22                     23                     24
                      A                      A                      A
 Frequencies --    937.7886               938.4082               957.3681
 Red. masses --      1.6548                 1.4646                 1.2038
 Frc consts  --      0.8574                 0.7599                 0.6501
 IR Inten    --      0.3122                 0.0046                 0.0096

                     25                     26                     27
                      A                      A                      A
 Frequencies --   1024.1764              1024.5445              1045.1446
 Red. masses --      1.2598                 2.2779                 1.7881
 Frc consts  --      0.7786                 1.4088                 1.1508
 IR Inten    --      0.3845                 0.1389                 0.2246

                     28                     29                     30
                      A                      A                      A
 Frequencies --   1070.5548              1116.9876              1121.8361
 Red. masses --      2.2421                 1.3854                 2.0723
 Frc consts  --      1.5140                 1.0184                 1.5366
 IR Inten    --      0.3508                 0.2051                 1.9768

                     31                     32                     33
                      A                      A                      A
 Frequencies --   1225.4578              1231.2296              1270.5183
 Red. masses --      2.1473                 1.8158                 2.6902
 Frc consts  --      1.9000                 1.6218                 2.5586
 IR Inten    --      5.7260                 0.6758                 8.6241

                     34                     35                     36
                      A                      A                      A
 Frequencies --   1278.5859              1297.0822              1328.6292
 Red. masses --      1.6635                 1.4665                 1.1399
 Frc consts  --      1.6022                 1.4537                 1.1856
 IR Inten    --      1.0635                 1.3665                 0.7073

                     37                     38                     39
                      A                      A                      A
 Frequencies --   1345.5982              1371.7777              1395.1474
 Red. masses --      1.1748                 1.4248                 1.4264
 Frc consts  --      1.2532                 1.5797                 1.6358
 IR Inten    --      1.1248                 3.7006                 2.1135

                     40                     41                     42
                      A                      A                      A
 Frequencies --   1399.4421              1401.2074              1412.6530
 Red. masses --      1.2419                 1.3336                 1.2401
 Frc consts  --      1.4330                 1.5427                 1.4581
 IR Inten    --      6.1509                 4.3263                 0.6370

                     43                     44                     45
                      A                      A                      A
 Frequencies --   1431.9438              1475.4673              1480.6268
 Red. masses --      1.2358                 1.0767                 1.0484
 Frc consts  --      1.4930                 1.3810                 1.3542
 IR Inten    --      3.2536                 0.2457                 0.0650

                     46                     47                     48
                      A                      A                      A
 Frequencies --   1485.6876              1486.9732              1487.6257
 Red. masses --      1.0651                 1.0442                 1.0485
 Frc consts  --      1.3852                 1.3603                 1.3671
 IR Inten    --      0.2899                 0.4682                 0.0510

                     49                     50                     51
                      A                      A                      A
 Frequencies --   1498.5551              1499.7281              1507.8089
 Red. masses --      1.0694                 1.0404                 1.0611
 Frc consts  --      1.4149                 1.3787                 1.4213
 IR Inten    --      0.6445                 4.9632                 2.7887

                     52                     53                     54
                      A                      A                      A
 Frequencies --   1508.7566              1512.3996              1519.1096
 Red. masses --      1.0592                 1.0865                 1.0630
 Frc consts  --      1.4206                 1.4643                 1.4453
 IR Inten    --      3.3672                 1.5573                11.2847

                     55                     56                     57
                      A                      A                      A
 Frequencies --   2995.6336              3010.3304              3019.0765
 Red. masses --      1.0580                 1.0578                 1.0389
 Frc consts  --      5.5937                 5.6480                 5.5795
 IR Inten    --     16.0396                 9.3310                11.4910

                     58                     59                     60
                      A                      A                      A
 Frequencies --   3021.8747              3022.4137              3026.2128
 Red. masses --      1.0523                 1.0380                 1.0972
 Frc consts  --      5.6614                 5.5867                 5.9204
 IR Inten    --     54.4360                35.8257                 3.9636

                     61                     62                     63
                      A                      A                      A
 Frequencies --   3027.8404              3030.7611              3036.5494
 Red. masses --      1.0371                 1.0379                 1.1011
 Frc consts  --      5.6020                 5.6170                 5.9819
 IR Inten    --     48.1164                11.3097                 0.0550

                     64                     65                     66
                      A                      A                      A
 Frequencies --   3065.3152              3086.5050              3086.8154
 Red. masses --      1.1045                 1.1016                 1.1015
 Frc consts  --      6.1147                 6.1834                 6.1840
 IR Inten    --     47.0722                 0.7228                 0.8410

                     67                     68                     69
                      A                      A                      A
 Frequencies --   3090.8976              3093.9294              3094.0597
 Red. masses --      1.1012                 1.1004                 1.1020
 Frc consts  --      6.1983                 6.2059                 6.2157
 IR Inten    --     29.4200                83.8259                87.5412

                     70                     71                     72
                      A                      A                      A
 Frequencies --   3098.8454              3098.9537              3102.7874
 Red. masses --      1.1005                 1.1009                 1.0994
 Frc consts  --      6.2265                 6.2294                 6.2360
 IR Inten    --      1.3046                40.9898                65.1220

 - Thermochemistry -
 -------------------
 Temperature   298.150 Kelvin.  Pressure   1.00000 Atm.
 Atom     1 has atomic number  6 and mass  12.00000

 Molecular mass:   114.14085 amu.
 Principal axes and moments of inertia in atomic units:
                           1         2         3
     Eigenvalues --   472.833182129.046122159.34280
           X            1.00000  -0.00273   0.00000
           Y            0.00273   1.00000   0.00000
           Z           -0.00000  -0.00000   1.00000
 This molecule is an asymmetric top.
 Rotational symmetry number  1.
 Warning -- assumption of classical behavior for rotation
           may cause significant error
 Rotational temperatures (Kelvin)      0.18318     0.04068     0.04011
 Rotational constants (GHZ):           3.81687     0.84768     0.83578
 Zero-point vibrational energy     640888.2 (Joules/Mol)
                                  153.17596 (Kcal/Mol)
 Warning -- explicit consideration of  15 degrees of freedom as
           vibrations may cause significant error
 Vibrational temperatures:     74.96   114.93   184.15   195.73   323.40
          (Kelvin)            351.75   373.97   391.20   405.60   429.64
                              476.35   534.54   592.53   667.59   705.78
                             1057.63  1074.78  1136.03  1296.91  1313.74
                             1320.46  1349.27  1350.16  1377.44  1473.56
                             1474.09  1503.73  1540.29  1607.10  1614.07
                             1763.16  1771.46  1827.99  1839.60  1866.21
                             1911.60  1936.02  1973.68  2007.31  2013.49
                             2016.02  2032.49  2060.25  2122.87  2130.29
                             2137.57  2139.42  2140.36  2156.09  2157.77
                             2169.40  2170.76  2176.01  2185.66  4310.05
                             4331.19  4343.78  4347.80  4348.58  4354.05
                             4356.39  4360.59  4368.92  4410.30  4440.79
                             4441.24  4447.11  4451.47  4451.66  4458.55
                             4458.70  4464.22

 Zero-point correction=                           0.244101 (Hartree/Particle)
 Thermal correction to Energy=                    0.255128
 Thermal correction to Enthalpy=                  0.256072
 Thermal correction to Gibbs Free Energy=         0.208235
 Sum of electronic and zero-point Energies=           -315.494377
 Sum of electronic and thermal Energies=              -315.483351
 Sum of electronic and thermal Enthalpies=            -315.482407
 Sum of electronic and thermal Free Energies=         -315.530244

                     E (Thermal)             CV                S
                      KCal/Mol        Cal/Mol-Kelvin    Cal/Mol-Kelvin
 Total                  160.095             40.763            100.682
 Electronic               0.000              0.000              0.000
 Translational            0.889              2.981             40.112
 Rotational               0.889              2.981             29.165
 Vibrational            158.318             34.802             31.405
 Vibration     1          0.596              1.977              4.736
 Vibration     2          0.600              1.963              3.894
 Vibration     3          0.611              1.925              2.976
 Vibration     4          0.614              1.917              2.859
 Vibration     5          0.649              1.803              1.920
 Vibration     6          0.660              1.772              1.770
 Vibration     7          0.668              1.746              1.662
 Vibration     8          0.675              1.725              1.584
 Vibration     9          0.681              1.707              1.522
 Vibration    10          0.692              1.676              1.425
 Vibration    11          0.713              1.613              1.255
 Vibration    12          0.743              1.531              1.073
 Vibration    13          0.776              1.445              0.920
 Vibration    14          0.822              1.330              0.755
 Vibration    15          0.846              1.271              0.682

 Optimization completed.
    -- Stationary point found.
 Normal termination of Gaussian 16 at Sun May 28 15:13:05 2023.
