 Gaussian 16, Revision A.03,
 Gaussian 16:  ES64L-G16RevA.03 25-Dec-2016

 -----------------------------
 # opt freq b3lyp/6-31g(2df,p)
 -----------------------------

 -------------------
 Title Card Required
 -------------------
 Symbolic Z-matrix:
 Charge =  0 Multiplicity = 1

 SCF Done:  E(RB3LYP) =  -664.938882272     A.U. after   12 cycles
 SCF Done:  E(RB3LYP) =  -664.946533465     A.U. after   10 cycles
 SCF Done:  E(RB3LYP) =  -664.951430964     A.U. after   10 cycles
 SCF Done:  E(RB3LYP) =  -664.953978591     A.U. after   10 cycles
 SCF Done:  E(RB3LYP) =  -664.955584544     A.U. after   11 cycles
 SCF Done:  E(RB3LYP) =  -664.956302334     A.U. after   11 cycles
 SCF Done:  E(RB3LYP) =  -664.957790610     A.U. after   10 cycles
 SCF Done:  E(RB3LYP) =  -664.959231183     A.U. after   10 cycles
 SCF Done:  E(RB3LYP) =  -664.959795442     A.U. after   12 cycles
 SCF Done:  E(RB3LYP) =  -664.960642639     A.U. after   10 cycles
 SCF Done:  E(RB3LYP) =  -664.961138673     A.U. after    9 cycles
 SCF Done:  E(RB3LYP) =  -664.961229112     A.U. after    9 cycles
 SCF Done:  E(RB3LYP) =  -664.961260795     A.U. after    9 cycles
 SCF Done:  E(RB3LYP) =  -664.961270065     A.U. after    8 cycles
 SCF Done:  E(RB3LYP) =  -664.961272994     A.U. after    7 cycles
 SCF Done:  E(RB3LYP) =  -664.961273342     A.U. after    6 cycles
 SCF Done:  E(RB3LYP) =  -664.961273567     A.U. after    6 cycles
 Optimization completed.
    -- Stationary point found.
 Normal termination of Gaussian 16 at Tue May 23 01:08:29 2023.

 ----------------------------------------------------------------------
 #N Geom=AllCheck Guess=TCheck SCRF=Check GenChk RB3LYP/6-31G(2df,p) Fr
 eq
 ----------------------------------------------------------------------

 Structure from the checkpoint file:  "CCCC1CCCCC1COCqCCrCC.chk"
 -------------------
 Title Card Required
 -------------------
 Charge =  0 Multiplicity = 1

                         Standard orientation:
 ---------------------------------------------------------------------
 Center     Atomic      Atomic             Coordinates (Angstroms)
 Number     Number       Type             X           Y           Z
 ---------------------------------------------------------------------
      1          6           0       -0.050513    3.663784    0.126285
      2          6           0        0.776397    2.404790    0.405632
      3          6           0        1.019720    1.580179   -0.865769
      4          6           0        1.864722    0.297079   -0.709802
      5          6           0        3.312460    0.620380   -0.287664
      6          6           0        4.210236   -0.621281   -0.271395
      7          6           0        3.621116   -1.702009    0.640895
      8          6           0        2.178433   -2.034483    0.244526
      9          6           0        1.260468   -0.793525    0.213313
     10          6           0       -0.151243   -1.236620   -0.187539
     11          8           0       -1.111568   -0.286461    0.235619
     12          6           0       -2.473040   -0.657274    0.024749
     13          6           0       -3.298658    0.093648    1.072058
     14          6           0       -2.966042   -0.309282    2.510574
     15          6           0       -2.909743   -0.354812   -1.418686
     16          6           0       -4.258470   -0.967781   -1.811442
     17          1           0       -0.215945    4.246232    1.038516
     18          1           0       -1.032503    3.404938   -0.285838
     19          1           0        0.448714    4.316655   -0.599170
     20          1           0        0.251301    1.788502    1.142012
     21          1           0        1.731714    2.697444    0.858004
     22          1           0        1.522495    2.217680   -1.607422
     23          1           0        0.046849    1.319773   -1.294138
     24          1           0        1.922357   -0.154228   -1.714141
     25          1           0        3.311578    1.069467    0.714395
     26          1           0        3.724951    1.378781   -0.964405
     27          1           0        5.222644   -0.355587    0.053957
     28          1           0        4.304166   -1.017944   -1.292079
     29          1           0        3.636940   -1.345722    1.680346
     30          1           0        4.235984   -2.608948    0.613581
     31          1           0        1.763009   -2.778258    0.935113
     32          1           0        2.177508   -2.503775   -0.750703
     33          1           0        1.191684   -0.398001    1.236014
     34          1           0       -0.376532   -2.209186    0.281165
     35          1           0       -0.195055   -1.390776   -1.278826
     36          1           0       -2.573552   -1.743052    0.203668
     37          1           0       -4.362618   -0.077692    0.874816
     38          1           0       -3.120962    1.167505    0.932432
     39          1           0       -3.192025   -1.367203    2.687179
     40          1           0       -3.545405    0.277985    3.229496
     41          1           0       -1.904409   -0.153569    2.717329
     42          1           0       -2.139176   -0.733182   -2.099837
     43          1           0       -2.933795    0.733636   -1.554711
     44          1           0       -4.254441   -2.055159   -1.674295
     45          1           0       -4.484062   -0.768854   -2.863514
     46          1           0       -5.083940   -0.562525   -1.218311
 ---------------------------------------------------------------------

 SCF Done:  E(RB3LYP) =  -664.961273567     A.U. after    1 cycles

 The electronic state is 1-A.
 Alpha  occ. eigenvalues --  -19.13265 -10.22518 -10.21906 -10.17753 -10.17682
 Alpha  occ. eigenvalues --  -10.17545 -10.17485 -10.17476 -10.17438 -10.17295
 Alpha  occ. eigenvalues --  -10.17114 -10.16791 -10.16638 -10.16265 -10.16142
 Alpha  occ. eigenvalues --  -10.16130  -1.02419  -0.83246  -0.79563  -0.77526
 Alpha  occ. eigenvalues --   -0.75227  -0.74594  -0.73114  -0.68437  -0.66183
 Alpha  occ. eigenvalues --   -0.63635  -0.60953  -0.59835  -0.58375  -0.56863
 Alpha  occ. eigenvalues --   -0.56175  -0.53388  -0.49379  -0.46781  -0.46199
 Alpha  occ. eigenvalues --   -0.44789  -0.44353  -0.43616  -0.43218  -0.43038
 Alpha  occ. eigenvalues --   -0.42217  -0.40932  -0.40217  -0.39836  -0.38049
 Alpha  occ. eigenvalues --   -0.37873  -0.37260  -0.36408  -0.36169  -0.34976
 Alpha  occ. eigenvalues --   -0.34621  -0.34189  -0.33885  -0.33630  -0.33124
 Alpha  occ. eigenvalues --   -0.32732  -0.32502  -0.31834  -0.30973  -0.30135
 Alpha  occ. eigenvalues --   -0.29371  -0.28507  -0.28005  -0.24519
 Alpha virt. eigenvalues --    0.07961   0.08847   0.09146   0.09638   0.10433
 Alpha virt. eigenvalues --    0.11375   0.11747   0.12667   0.13648   0.13686
 Alpha virt. eigenvalues --    0.14506   0.15521   0.15770   0.16141   0.16475

 Mulliken charges:
               1
     1  C   -0.379704
     2  C   -0.161635
     3  C   -0.195735
     4  C    0.019407
     5  C   -0.196606
     6  C   -0.199822
     7  C   -0.200475
     8  C   -0.201025
     9  C    0.008242
    10  C   -0.095850
    11  O   -0.260838
    12  C    0.154127
    13  C   -0.182862
    14  C   -0.387373
    15  C   -0.195052
    16  C   -0.388613
    17  H    0.104287
    18  H    0.112637
    19  H    0.107478
    20  H    0.111919
    21  H    0.087483
    22  H    0.075481
    23  H    0.099376
    24  H    0.056610
    25  H    0.093967
    26  H    0.084631
    27  H    0.086188
    28  H    0.088761
    29  H    0.091728
    30  H    0.087194
    31  H    0.088336
    32  H    0.089505
    33  H    0.078277
    34  H    0.080730
    35  H    0.085403
    36  H    0.056338
    37  H    0.095241
    38  H    0.105439
    39  H    0.107507
    40  H    0.108305
    41  H    0.130548
    42  H    0.098050
    43  H    0.101411
    44  H    0.114826
    45  H    0.115562
    46  H    0.120596
 Sum of Mulliken charges =  -0.00000

 Dipole moment (field-independent basis, Debye):
    X=             -0.3786    Y=             -0.9884    Z=             -0.3902  Tot=              1.1280
 Quadrupole moment (field-independent basis, Debye-Ang):
   XX=           -101.5136   YY=           -104.6928   ZZ=           -104.0506
   XY=              0.5077   XZ=              0.6915   YZ=              0.4499

  Exact polarizability: 188.761  -4.414 162.588   0.751  -0.346 148.953
 Approx polarizability: 232.030  -0.348 228.768  -0.581   1.407 225.935

                      1                      2                      3
                      A                      A                      A
 Frequencies --     19.5045                33.6128                45.1086
 Red. masses --      3.3245                 3.2483                 3.0979
 Frc consts  --      0.0007                 0.0022                 0.0037
 IR Inten    --      0.0240                 0.0092                 0.0132

                      4                      5                      6
                      A                      A                      A
 Frequencies --     66.3798                79.8621                94.6349
 Red. masses --      2.2008                 2.4191                 2.0063
 Frc consts  --      0.0057                 0.0091                 0.0106
 IR Inten    --      0.0151                 0.0680                 0.2302

                      7                      8                      9
                      A                      A                      A
 Frequencies --     99.6198               118.9794               126.2921
 Red. masses --      1.9804                 2.3092                 2.7585
 Frc consts  --      0.0116                 0.0193                 0.0259
 IR Inten    --      0.0852                 0.2278                 0.7951

                     10                     11                     12
                      A                      A                      A
 Frequencies --    169.4218               182.0150               209.7476
 Red. masses --      2.2482                 1.8369                 1.4911
 Frc consts  --      0.0380                 0.0359                 0.0386
 IR Inten    --      1.1175                 0.0013                 0.2727

                     13                     14                     15
                      A                      A                      A
 Frequencies --    213.9882               237.8616               245.1408
 Red. masses --      2.1216                 1.5852                 1.2388
 Frc consts  --      0.0572                 0.0528                 0.0439
 IR Inten    --      0.0477                 0.0676                 0.2073

                     16                     17                     18
                      A                      A                      A
 Frequencies --    262.4021               272.3579               286.0464
 Red. masses --      1.9007                 2.4495                 3.3797
 Frc consts  --      0.0771                 0.1071                 0.1629
 IR Inten    --      0.7754                 0.5637                 3.6807

                     19                     20                     21
                      A                      A                      A
 Frequencies --    309.3701               332.8121               359.1820
 Red. masses --      2.1373                 1.9373                 2.5788
 Frc consts  --      0.1205                 0.1264                 0.1960
 IR Inten    --      0.0528                 0.3753                 0.2210

                     22                     23                     24
                      A                      A                      A
 Frequencies --    372.7654               430.7789               445.4566
 Red. masses --      2.2628                 3.2203                 2.7854
 Frc consts  --      0.1853                 0.3521                 0.3256
 IR Inten    --      0.0755                 2.1749                 0.2223

                     25                     26                     27
                      A                      A                      A
 Frequencies --    464.5017               477.5027               531.9478
 Red. masses --      2.8014                 2.2783                 2.8444
 Frc consts  --      0.3561                 0.3061                 0.4742
 IR Inten    --      0.5612                 0.0643                 2.0215

                     28                     29                     30
                      A                      A                      A
 Frequencies --    574.8529               626.8924               734.4996
 Red. masses --      2.3685                 2.8350                 1.1518
 Frc consts  --      0.4611                 0.6564                 0.3661
 IR Inten    --      3.1787                 0.3028                 8.4086

                     31                     32                     33
                      A                      A                      A
 Frequencies --    755.5502               765.4495               777.1130
 Red. masses --      1.7404                 1.5869                 1.2621
 Frc consts  --      0.5854                 0.5478                 0.4491
 IR Inten    --      0.6208                 0.6854                 2.1096

                     34                     35                     36
                      A                      A                      A
 Frequencies --    830.0520               852.5747               863.2596
 Red. masses --      1.6946                 1.6913                 1.8399
 Frc consts  --      0.6879                 0.7243                 0.8079
 IR Inten    --      0.4859                 0.3191                 5.6018

                     37                     38                     39
                      A                      A                      A
 Frequencies --    868.7055               878.9408               903.8912
 Red. masses --      1.5937                 1.4688                 1.7052
 Frc consts  --      0.7086                 0.6685                 0.8208
 IR Inten    --      0.2541                 1.4246                 1.1874

                     40                     41                     42
                      A                      A                      A
 Frequencies --    931.6211               939.7804               943.5323
 Red. masses --      1.8733                 1.9108                 2.1086
 Frc consts  --      0.9579                 0.9943                 1.1060
 IR Inten    --      8.9478                 6.6537                 1.9923

                     43                     44                     45
                      A                      A                      A
 Frequencies --    966.9794               978.9436              1018.8714
 Red. masses --      1.6997                 1.7870                 1.3299
 Frc consts  --      0.9364                 1.0090                 0.8134
 IR Inten    --     15.1124                 8.0882                 0.3667

                     46                     47                     48
                      A                      A                      A
 Frequencies --   1023.0184              1037.2817              1042.1050
 Red. masses --      2.3972                 1.9260                 2.5543
 Frc consts  --      1.4782                 1.2210                 1.6343
 IR Inten    --      1.8305                 2.6990                 2.2000

                     49                     50                     51
                      A                      A                      A
 Frequencies --   1046.5946              1059.9770              1063.6439
 Red. masses --      2.3948                 1.7834                 1.7272
 Frc consts  --      1.5455                 1.1806                 1.1513
 IR Inten    --      1.3987                 2.8170                 3.8079

                     52                     53                     54
                      A                      A                      A
 Frequencies --   1080.8278              1094.8694              1114.7632
 Red. masses --      1.5751                 1.8544                 4.4403
 Frc consts  --      1.0841                 1.3097                 3.2511
 IR Inten    --      5.3629                 0.3952               127.4923

                     55                     56                     57
                      A                      A                      A
 Frequencies --   1117.1997              1130.5866              1139.0920
 Red. masses --      1.8518                 2.2227                 2.2140
 Frc consts  --      1.3618                 1.6739                 1.6926
 IR Inten    --      0.1568                17.5254                16.4564

                     58                     59                     60
                      A                      A                      A
 Frequencies --   1145.7256              1165.8745              1186.6005
 Red. masses --      2.3082                 2.3727                 1.9920
 Frc consts  --      1.7852                 1.9002                 1.6525
 IR Inten    --     66.5434                 7.7300                 0.5726

                     61                     62                     63
                      A                      A                      A
 Frequencies --   1196.6284              1229.9626              1248.7012
 Red. masses --      2.1086                 1.5138                 1.2717
 Frc consts  --      1.7790                 1.3493                 1.1683
 IR Inten    --      7.2627                 0.9234                 1.4672

                     64                     65                     66
                      A                      A                      A
 Frequencies --   1265.2005              1273.9249              1281.8523
 Red. masses --      1.3897                 1.2785                 1.2316
 Frc consts  --      1.3107                 1.2225                 1.1923
 IR Inten    --      0.6552                 3.4046                 1.2582

                     67                     68                     69
                      A                      A                      A
 Frequencies --   1293.0216              1305.9733              1310.4927
 Red. masses --      1.1762                 1.2654                 1.2322
 Frc consts  --      1.1586                 1.2715                 1.2468
 IR Inten    --      1.5024                 0.5667                 0.3616

                     70                     71                     72
                      A                      A                      A
 Frequencies --   1318.6140              1329.1714              1333.1000
 Red. masses --      1.3262                 1.1757                 1.2339
 Frc consts  --      1.3587                 1.2238                 1.2920
 IR Inten    --      1.3474                 1.3732                 3.6251

                     73                     74                     75
                      A                      A                      A
 Frequencies --   1342.8632              1344.4526              1348.5227
 Red. masses --      1.2717                 1.2642                 1.1839
 Frc consts  --      1.3512                 1.3463                 1.2685
 IR Inten    --      8.4105                 7.1765                 0.8127

                     76                     77                     78
                      A                      A                      A
 Frequencies --   1370.8688              1375.2884              1383.3923
 Red. masses --      1.3753                 1.3910                 1.4744
 Frc consts  --      1.5228                 1.5502                 1.6624
 IR Inten    --      1.1127                 0.8566                 3.1710

                     79                     80                     81
                      A                      A                      A
 Frequencies --   1387.0218              1389.0012              1395.6410
 Red. masses --      1.3373                 1.4687                 1.5450
 Frc consts  --      1.5159                 1.6695                 1.7731
 IR Inten    --     21.3093                10.8295                 3.4959

                     82                     83                     84
                      A                      A                      A
 Frequencies --   1398.6118              1404.5699              1406.4875
 Red. masses --      1.4846                 1.2749                 1.2891
 Frc consts  --      1.7110                 1.4819                 1.5025
 IR Inten    --      1.3134                 2.8508                 3.3408

                     85                     86                     87
                      A                      A                      A
 Frequencies --   1413.4823              1416.0521              1439.0019
 Red. masses --      1.2286                 1.3412                 1.3748
 Frc consts  --      1.4463                 1.5845                 1.6773
 IR Inten    --      1.2238                 3.4275                 0.7870

                     88                     89                     90
                      A                      A                      A
 Frequencies --   1473.8093              1480.4665              1483.9395
 Red. masses --      1.0763                 1.0811                 1.0943
 Frc consts  --      1.3775                 1.3961                 1.4198
 IR Inten    --      1.1560                 7.0787                 0.8747

                     91                     92                     93
                      A                      A                      A
 Frequencies --   1485.5186              1486.0279              1489.2516
 Red. masses --      1.0928                 1.0708                 1.0780
 Frc consts  --      1.4208                 1.3933                 1.4087
 IR Inten    --      0.9104                 0.3610                 5.5629

                     94                     95                     96
                      A                      A                      A
 Frequencies --   1491.9010              1496.0374              1499.2635
 Red. masses --      1.0691                 1.0429                 1.0418
 Frc consts  --      1.4019                 1.3753                 1.3797
 IR Inten    --      1.9988                 3.7984                 3.5122

                     97                     98                     99
                      A                      A                      A
 Frequencies --   1501.2062              1502.5436              1507.2634
 Red. masses --      1.0459                 1.0972                 1.0617
 Frc consts  --      1.3888                 1.4595                 1.4211
 IR Inten    --      2.5036                 0.6187                 5.2032

                    100                    101                    102
                      A                      A                      A
 Frequencies --   1507.4459              1510.8329              1517.5019
 Red. masses --      1.0773                 1.0595                 1.0858
 Frc consts  --      1.4423                 1.4249                 1.4732
 IR Inten    --      2.8967                 4.4014                 6.7209

                    103                    104                    105
                      A                      A                      A
 Frequencies --   2937.4198              2951.5643              2960.9044
 Red. masses --      1.0781                 1.0581                 1.0797
 Frc consts  --      5.4807                 5.4309                 5.5770
 IR Inten    --     18.1698                43.8717                25.8537

                    106                    107                    108
                      A                      A                      A
 Frequencies --   2978.2186              2996.7226              3003.7081
 Red. masses --      1.1032                 1.0670                 1.0701
 Frc consts  --      5.7655                 5.6453                 5.6884
 IR Inten    --     34.1670                26.0807                30.0160

                    109                    110                    111
                      A                      A                      A
 Frequencies --   3007.2667              3011.5552              3013.2973
 Red. masses --      1.0684                 1.0615                 1.0628
 Frc consts  --      5.6929                 5.6724                 5.6859
 IR Inten    --     20.6766                24.0166                13.2952

                    112                    113                    114
                      A                      A                      A
 Frequencies --   3019.7899              3023.8354              3026.8668
 Red. masses --      1.0790                 1.0359                 1.0605
 Frc consts  --      5.7973                 5.5805                 5.7246
 IR Inten    --     39.4768                31.9096                11.0681

                    115                    116                    117
                      A                      A                      A
 Frequencies --   3031.7837              3032.1045              3033.0916
 Red. masses --      1.0599                 1.0655                 1.0384
 Frc consts  --      5.7401                 5.7715                 5.6284
 IR Inten    --     31.0154                19.0399                27.2024

                    118                    119                    120
                      A                      A                      A
 Frequencies --   3034.4812              3050.4735              3053.4390
 Red. masses --      1.0384                 1.0959                 1.0977
 Frc consts  --      5.6336                 6.0081                 6.0299
 IR Inten    --     33.4160                64.5269                27.5681

                    121                    122                    123
                      A                      A                      A
 Frequencies --   3057.3110              3063.5084              3064.4244
 Red. masses --      1.0946                 1.1006                 1.1036
 Frc consts  --      6.0283                 6.0859                 6.1058
 IR Inten    --     64.1830                 9.5260                89.5861

                    124                    125                    126
                      A                      A                      A
 Frequencies --   3070.8222              3071.7859              3078.3050
 Red. masses --      1.0887                 1.0980                 1.0967
 Frc consts  --      6.0490                 6.1043                 6.1228
 IR Inten    --     13.0069                24.9957                 4.8923

                    127                    128                    129
                      A                      A                      A
 Frequencies --   3095.3653              3098.1799              3099.0571
 Red. masses --      1.1004                 1.1004                 1.1006
 Frc consts  --      6.2122                 6.2232                 6.2279
 IR Inten    --     42.3653                36.9905                57.0404

                    130                    131                    132
                      A                      A                      A
 Frequencies --   3099.6497              3107.4597              3124.2480
 Red. masses --      1.1017                 1.1011                 1.1005
 Frc consts  --      6.2366                 6.2644                 6.3287
 IR Inten    --     65.0753                34.7162                33.5685

 - Thermochemistry -
 -------------------
 Temperature   298.150 Kelvin.  Pressure   1.00000 Atm.
 Atom     1 has atomic number  6 and mass  12.00000

 Molecular mass:   226.22967 amu.
 Principal axes and moments of inertia in atomic units:
                           1         2         3
     Eigenvalues --  2721.396256422.540957373.81065
           X            1.00000   0.00173   0.00181
           Y           -0.00174   0.99999   0.00453
           Z           -0.00180  -0.00453   0.99999
 This molecule is an asymmetric top.
 Rotational symmetry number  1.
 Warning -- assumption of classical behavior for rotation
           may cause significant error
 Rotational temperatures (Kelvin)      0.03183     0.01349     0.01175
 Rotational constants (GHZ):           0.66317     0.28100     0.24475
 Zero-point vibrational energy    1124361.2 (Joules/Mol)
                                  268.72877 (Kcal/Mol)
 Warning -- explicit consideration of  28 degrees of freedom as
           vibrations may cause significant error
 Vibrational temperatures:     28.06    48.36    64.90    95.51   114.90
          (Kelvin)            136.16   143.33   171.18   181.71   243.76
                              261.88   301.78   307.88   342.23   352.70
                              377.54   391.86   411.56   445.11   478.84
                              516.78   536.33   619.79   640.91   668.31
                              687.02   765.35   827.09   901.96  1056.78
                             1087.07  1101.31  1118.09  1194.26  1226.66
                             1242.04  1249.87  1264.60  1300.50  1340.39
                             1352.13  1357.53  1391.27  1408.48  1465.93
                             1471.90  1492.42  1499.36  1505.82  1525.07
                             1530.35  1555.07  1575.27  1603.90  1607.40
                             1626.66  1638.90  1648.44  1677.43  1707.25
                             1721.68  1769.64  1796.60  1820.34  1832.89
                             1844.30  1860.37  1879.00  1885.51  1897.19
                             1912.38  1918.03  1932.08  1934.37  1940.22
                             1972.37  1978.73  1990.39  1995.62  1998.46
                             2008.02  2012.29  2020.86  2023.62  2033.69
                             2037.38  2070.40  2120.48  2130.06  2135.06
                             2137.33  2138.06  2142.70  2146.51  2152.46
                             2157.11  2159.90  2161.83  2168.62  2168.88
                             2173.75  2183.35  4226.29  4246.64  4260.08
                             4284.99  4311.62  4321.67  4326.79  4332.96
                             4335.46  4344.80  4350.62  4354.99  4362.06
                             4362.52  4363.94  4365.94  4388.95  4393.22
                             4398.79  4407.71  4409.02  4418.23  4419.61
                             4428.99  4453.54  4457.59  4458.85  4459.70
                             4470.94  4495.10

 Zero-point correction=                           0.428247 (Hartree/Particle)
 Thermal correction to Energy=                    0.447536
 Thermal correction to Enthalpy=                  0.448480
 Thermal correction to Gibbs Free Energy=         0.379633
 Sum of electronic and zero-point Energies=           -664.533027
 Sum of electronic and thermal Energies=              -664.513738
 Sum of electronic and thermal Enthalpies=            -664.512794
 Sum of electronic and thermal Free Energies=         -664.581641

                     E (Thermal)             CV                S
                      KCal/Mol        Cal/Mol-Kelvin    Cal/Mol-Kelvin
 Total                  280.833             72.403            144.900
 Electronic               0.000              0.000              0.000
 Translational            0.889              2.981             42.151
 Rotational               0.889              2.981             33.221
 Vibrational            279.055             66.441             69.528
 Vibration     1          0.593              1.986              6.684
 Vibration     2          0.594              1.983              5.604
 Vibration     3          0.595              1.979              5.021
 Vibration     4          0.598              1.970              4.258
 Vibration     5          0.600              1.963              3.894
 Vibration     6          0.603              1.953              3.562
 Vibration     7          0.604              1.949              3.462
 Vibration     8          0.609              1.934              3.117
 Vibration     9          0.611              1.927              3.002
 Vibration    10          0.625              1.880              2.442
 Vibration    11          0.630              1.864              2.308
 Vibration    12          0.642              1.826              2.046
 Vibration    13          0.644              1.820              2.009
 Vibration    14          0.656              1.783              1.819
 Vibration    15          0.660              1.771              1.765
 Vibration    16          0.670              1.742              1.646
 Vibration    17          0.675              1.724              1.581
 Vibration    18          0.684              1.700              1.497
 Vibration    19          0.699              1.656              1.366
 Vibration    20          0.715              1.610              1.246
 Vibration    21          0.734              1.556              1.126
 Vibration    22          0.744              1.528              1.068
 Vibration    23          0.792              1.403              0.856
 Vibration    24          0.805              1.371              0.810
 Vibration    25          0.822              1.329              0.753
 Vibration    26          0.834              1.300              0.717
 Vibration    27          0.887              1.179              0.583
 Vibration    28          0.931              1.086              0.495

                           ! Non-Optimized Parameters !
 Normal termination of Gaussian 16 at Tue May 23 06:32:57 2023.
