 Gaussian 16, Revision A.03,
 Gaussian 16:  ES64L-G16RevA.03 25-Dec-2016

 -----------------------------
 # opt freq b3lyp/6-31g(2df,p)
 -----------------------------

 -------------------
 Title Card Required
 -------------------
 Symbolic Z-matrix:
 Charge =  0 Multiplicity = 1

 SCF Done:  E(RB3LYP) =  -1340.70197936     A.U. after   12 cycles
 SCF Done:  E(RB3LYP) =  -1340.71656696     A.U. after   11 cycles
 SCF Done:  E(RB3LYP) =  -1340.72498091     A.U. after   11 cycles
 SCF Done:  E(RB3LYP) =  -1340.73474637     A.U. after   12 cycles
 SCF Done:  E(RB3LYP) =  -1340.73970814     A.U. after   11 cycles
 SCF Done:  E(RB3LYP) =  -1340.74416165     A.U. after   12 cycles
 SCF Done:  E(RB3LYP) =  -1340.74720972     A.U. after   11 cycles
 SCF Done:  E(RB3LYP) =  -1340.74741458     A.U. after   13 cycles
 SCF Done:  E(RB3LYP) =  -1340.74822323     A.U. after   12 cycles
 SCF Done:  E(RB3LYP) =  -1340.74838347     A.U. after   11 cycles
 SCF Done:  E(RB3LYP) =  -1340.75024603     A.U. after   11 cycles
 SCF Done:  E(RB3LYP) =  -1340.75253176     A.U. after    9 cycles
 SCF Done:  E(RB3LYP) =  -1340.75254353     A.U. after    9 cycles
 SCF Done:  E(RB3LYP) =  -1340.75254500     A.U. after    8 cycles
 SCF Done:  E(RB3LYP) =  -1340.75254520     A.U. after    7 cycles
 SCF Done:  E(RB3LYP) =  -1340.75254538     A.U. after    6 cycles
 SCF Done:  E(RB3LYP) =  -1340.75254540     A.U. after    6 cycles
 SCF Done:  E(RB3LYP) =  -1340.75254543     A.U. after    5 cycles
 SCF Done:  E(RB3LYP) =  -1340.75254544     A.U. after    5 cycles
 Optimization completed.
    -- Stationary point found.
 Normal termination of Gaussian 16 at Wed May 24 20:12:00 2023.

 ----------------------------------------------------------------------
 #N Geom=AllCheck Guess=TCheck SCRF=Check GenChk RB3LYP/6-31G(2df,p) Fr
 eq
 ----------------------------------------------------------------------

 Structure from the checkpoint file:  "CCCCCqCCqCrCqCrNrSCSN.chk"
 -------------------
 Title Card Required
 -------------------
 Charge =  0 Multiplicity = 1

                         Standard orientation:
 ---------------------------------------------------------------------
 Center     Atomic      Atomic             Coordinates (Angstroms)
 Number     Number       Type             X           Y           Z
 ---------------------------------------------------------------------
      1          6           0        4.884704   -1.693984    1.343988
      2          6           0        3.645270   -2.205015    0.604847
      3          6           0        2.564958   -1.130098    0.426740
      4          6           0        1.339189   -1.663697   -0.327805
      5          6           0        0.114641   -0.729390   -0.421802
      6          6           0        0.343872    0.567526   -1.224338
      7          6           0        1.074221    1.741760   -0.505764
      8          6           0        2.106486    2.365391   -1.459384
      9          6           0        0.096437    2.817497    0.028263
     10          6           0       -0.938882    2.263076    1.019566
     11          7           0        0.868281    3.933886    0.603901
     12         16           0       -1.187176   -1.782552   -1.229338
     13          6           0       -2.724092   -0.891929   -0.882255
     14         16           0       -3.247383   -1.168625    0.854458
     15          7           0       -4.478240    0.031901    0.987081
     16          1           0        5.635680   -2.482145    1.456599
     17          1           0        4.627724   -1.333928    2.346565
     18          1           0        5.353137   -0.862573    0.805494
     19          1           0        3.219099   -3.059169    1.147110
     20          1           0        3.938071   -2.588749   -0.381415
     21          1           0        3.002410   -0.276258   -0.102815
     22          1           0        2.259752   -0.760049    1.415335
     23          1           0        1.014084   -2.590460    0.159433
     24          1           0        1.642776   -1.946076   -1.345515
     25          1           0       -0.250536   -0.507436    0.585128
     26          1           0       -0.618908    0.938669   -1.593170
     27          1           0        0.906544    0.294034   -2.124359
     28          1           0        1.611586    1.351020    0.367587
     29          1           0        1.616495    2.725671   -2.372364
     30          1           0        2.853772    1.623384   -1.760473
     31          1           0        2.611569    3.214002   -0.997196
     32          1           0       -0.439466    3.231012   -0.838739
     33          1           0       -0.440320    1.833208    1.897258
     34          1           0       -1.579620    1.488539    0.590287
     35          1           0       -1.590502    3.070807    1.371692
     36          1           0        1.327053    3.615141    1.455607
     37          1           0        0.228776    4.667147    0.898492
     38          1           0       -3.468819   -1.298524   -1.569358
     39          1           0       -2.633193    0.181589   -1.060156
     40          1           0       -4.264776    0.678189    1.737647
     41          1           0       -5.380559   -0.395542    1.160199
 ---------------------------------------------------------------------

 SCF Done:  E(RB3LYP) =  -1340.75254544     A.U. after    1 cycles

 The electronic state is 1-A.
 Alpha  occ. eigenvalues --  -88.88731 -88.86465 -14.34261 -14.30567 -10.22793
 Alpha  occ. eigenvalues --  -10.21337 -10.20869 -10.18329 -10.18232 -10.17966
 Alpha  occ. eigenvalues --  -10.17952 -10.17878 -10.17298 -10.17199 -10.16138
 Alpha  occ. eigenvalues --   -7.94655  -7.92775  -5.91260  -5.90812  -5.90106
 Alpha  occ. eigenvalues --   -5.89262  -5.88895  -5.88314  -0.89284  -0.88417
 Alpha  occ. eigenvalues --   -0.82736  -0.78986  -0.78136  -0.75052  -0.71834
 Alpha  occ. eigenvalues --   -0.70424  -0.67037  -0.64380  -0.62069  -0.59995
 Alpha  occ. eigenvalues --   -0.57736  -0.56018  -0.55580  -0.49840  -0.48481
 Alpha  occ. eigenvalues --   -0.47942  -0.46105  -0.45258  -0.43665  -0.43358
 Alpha  occ. eigenvalues --   -0.42568  -0.42435  -0.42119  -0.40584  -0.40249
 Alpha  occ. eigenvalues --   -0.38947  -0.38527  -0.37982  -0.36932  -0.36464
 Alpha  occ. eigenvalues --   -0.35342  -0.35007  -0.34254  -0.33391  -0.33241
 Alpha  occ. eigenvalues --   -0.32369  -0.32023  -0.31575  -0.30161  -0.29097
 Alpha  occ. eigenvalues --   -0.25852  -0.23538  -0.22563  -0.21984
 Alpha virt. eigenvalues --    0.02054   0.03873   0.05919   0.07325   0.08191
 Alpha virt. eigenvalues --    0.08859   0.09618   0.09672   0.11298   0.11720
 Alpha virt. eigenvalues --    0.12288   0.12701   0.13043   0.13454   0.14215

 Mulliken charges:
               1
     1  C   -0.382412
     2  C   -0.167336
     3  C   -0.185700
     4  C   -0.184137
     5  C   -0.040116
     6  C   -0.213494
     7  C    0.049164
     8  C   -0.400000
     9  C    0.031738
    10  C   -0.411270
    11  N   -0.509672
    12  S   -0.160566
    13  C   -0.197988
    14  S   -0.078787
    15  N   -0.511884
    16  H    0.112398
    17  H    0.112594
    18  H    0.114274
    19  H    0.097795
    20  H    0.097146
    21  H    0.109576
    22  H    0.092808
    23  H    0.117162
    24  H    0.108291
    25  H    0.123087
    26  H    0.100386
    27  H    0.100272
    28  H    0.067086
    29  H    0.107825
    30  H    0.103252
    31  H    0.133281
    32  H    0.076689
    33  H    0.107160
    34  H    0.134870
    35  H    0.099067
    36  H    0.217313
    37  H    0.221511
    38  H    0.149467
    39  H    0.147369
    40  H    0.255474
    41  H    0.256307
 Sum of Mulliken charges =  -0.00000

 Dipole moment (field-independent basis, Debye):
    X=             -0.9269    Y=              1.6644    Z=              1.8519  Tot=              2.6568
 Quadrupole moment (field-independent basis, Debye-Ang):
   XX=           -101.8334   YY=           -116.9178   ZZ=           -109.0647
   XY=             -8.5432   XZ=             -2.7597   YZ=              4.0285

  Exact polarizability: 206.674  -2.304 171.438  -7.050   7.058 149.574
 Approx polarizability: 269.492  -7.009 245.154  -7.362  10.173 241.401

                      1                      2                      3
                      A                      A                      A
 Frequencies --     21.8615                32.2697                34.5701
 Red. masses --      4.8709                 4.0256                 3.1658
 Frc consts  --      0.0014                 0.0025                 0.0022
 IR Inten    --      0.3079                 0.2232                 0.3205

                      4                      5                      6
                      A                      A                      A
 Frequencies --     51.9513                58.7988                67.4482
 Red. masses --      2.4308                 3.2305                 3.9211
 Frc consts  --      0.0039                 0.0066                 0.0105
 IR Inten    --      0.1036                 0.3816                 0.9421

                      7                      8                      9
                      A                      A                      A
 Frequencies --     80.2520                88.6927               108.3912
 Red. masses --      4.2213                 2.5299                 2.4575
 Frc consts  --      0.0160                 0.0117                 0.0170
 IR Inten    --      0.5054                 0.3141                 0.5084

                     10                     11                     12
                      A                      A                      A
 Frequencies --    140.8201               151.0858               171.4164
 Red. masses --      2.0912                 3.4193                 3.7453
 Frc consts  --      0.0244                 0.0460                 0.0648
 IR Inten    --      0.2632                 0.4058                 2.2929

                     13                     14                     15
                      A                      A                      A
 Frequencies --    199.9008               218.3304               227.0775
 Red. masses --      3.8644                 1.8920                 1.9440
 Frc consts  --      0.0910                 0.0531                 0.0591
 IR Inten    --      1.0456                 3.6344                10.4447

                     16                     17                     18
                      A                      A                      A
 Frequencies --    234.8126               247.4357               250.5458
 Red. masses --      1.0727                 1.3056                 1.5546
 Frc consts  --      0.0348                 0.0471                 0.0575
 IR Inten    --     16.0935                 0.2332                 1.9019

                     19                     20                     21
                      A                      A                      A
 Frequencies --    256.9088               294.0764               303.6454
 Red. masses --      1.2606                 2.5610                 3.3196
 Frc consts  --      0.0490                 0.1305                 0.1803
 IR Inten    --      3.0327                 2.1897                 1.9252

                     22                     23                     24
                      A                      A                      A
 Frequencies --    320.5420               332.2177               364.4515
 Red. masses --      4.3505                 1.1566                 2.4213
 Frc consts  --      0.2634                 0.0752                 0.1895
 IR Inten    --      4.5464                34.2932                 3.7343

                     25                     26                     27
                      A                      A                      A
 Frequencies --    389.0563               415.6472               426.9372
 Red. masses --      2.6532                 2.0333                 2.5336
 Frc consts  --      0.2366                 0.2070                 0.2721
 IR Inten    --      1.4002                 1.6814                 1.9101

                     28                     29                     30
                      A                      A                      A
 Frequencies --    467.4599               485.5211               525.7775
 Red. masses --      2.8796                 2.9877                 2.5331
 Frc consts  --      0.3707                 0.4150                 0.4126
 IR Inten    --      0.7883                10.8833                 1.4957

                     31                     32                     33
                      A                      A                      A
 Frequencies --    604.1328               711.7164               730.4051
 Red. masses --      2.5687                 6.0163                 4.7200
 Frc consts  --      0.5524                 1.7955                 1.4836
 IR Inten    --     99.2849                 0.4773                 6.0896

                     34                     35                     36
                      A                      A                      A
 Frequencies --    742.1348               746.0437               778.5538
 Red. masses --      1.5779                 2.0988                 1.6777
 Frc consts  --      0.5120                 0.6883                 0.5991
 IR Inten    --      2.8313                11.7659                 1.1150

                     37                     38                     39
                      A                      A                      A
 Frequencies --    791.2896               841.7269               863.7506
 Red. masses --      1.4303                 1.6658                 2.0549
 Frc consts  --      0.5276                 0.6954                 0.9033
 IR Inten    --      0.2382                 5.7757                 3.9709

                     40                     41                     42
                      A                      A                      A
 Frequencies --    879.5818               881.8937               900.2309
 Red. masses --      1.7779                 2.0154                 1.3959
 Frc consts  --      0.8104                 0.9235                 0.6665
 IR Inten    --     41.4487                85.5937                34.1236

                     43                     44                     45
                      A                      A                      A
 Frequencies --    910.8379               920.6118               947.9041
 Red. masses --      1.7743                 1.4714                 1.6882
 Frc consts  --      0.8673                 0.7347                 0.8937
 IR Inten    --      2.3492                25.1258                 1.2822

                     46                     47                     48
                      A                      A                      A
 Frequencies --    971.1248               986.2207              1024.9269
 Red. masses --      1.6364                 1.2826                 3.3009
 Frc consts  --      0.9093                 0.7350                 2.0430
 IR Inten    --      2.1324                 4.0020                 0.3576

                     49                     50                     51
                      A                      A                      A
 Frequencies --   1047.2356              1052.0529              1063.9036
 Red. masses --      1.8424                 2.1023                 2.4134
 Frc consts  --      1.1905                 1.3709                 1.6095
 IR Inten    --      2.0656                 6.4103                 1.2070

                     52                     53                     54
                      A                      A                      A
 Frequencies --   1080.3652              1087.6842              1104.0670
 Red. masses --      2.2953                 1.1306                 1.3222
 Frc consts  --      1.5784                 0.7880                 0.9496
 IR Inten    --      7.6021                 1.1008                 4.8378

                     55                     56                     57
                      A                      A                      A
 Frequencies --   1110.5628              1125.0449              1136.7442
 Red. masses --      1.3027                 1.5148                 2.1606
 Frc consts  --      0.9466                 1.1297                 1.6449
 IR Inten    --      0.6365                 0.1681                17.4925

                     58                     59                     60
                      A                      A                      A
 Frequencies --   1150.0279              1185.8543              1199.4342
 Red. masses --      2.0945                 1.9780                 1.2027
 Frc consts  --      1.6321                 1.6388                 1.0194
 IR Inten    --      2.9448                 4.2977                27.9738

                     61                     62                     63
                      A                      A                      A
 Frequencies --   1209.2898              1212.5588              1243.2080
 Red. masses --      1.4012                 1.4687                 1.4339
 Frc consts  --      1.2073                 1.2723                 1.3057
 IR Inten    --     12.7166                 4.9352                 2.6936

                     64                     65                     66
                      A                      A                      A
 Frequencies --   1284.3709              1287.2575              1315.5503
 Red. masses --      1.3065                 1.2707                 1.3751
 Frc consts  --      1.2698                 1.2406                 1.4021
 IR Inten    --      1.5990                 0.7047                 0.4672

                     67                     68                     69
                      A                      A                      A
 Frequencies --   1327.2707              1331.2784              1338.6332
 Red. masses --      1.2490                 1.1123                 1.1774
 Frc consts  --      1.2964                 1.1615                 1.2431
 IR Inten    --      2.9476                 0.5245                 3.0312

                     70                     71                     72
                      A                      A                      A
 Frequencies --   1357.4017              1374.2817              1379.9720
 Red. masses --      1.2583                 1.3277                 1.3808
 Frc consts  --      1.3661                 1.4774                 1.5492
 IR Inten    --      2.4183                 5.0916                 5.4303

                     73                     74                     75
                      A                      A                      A
 Frequencies --   1383.4021              1396.2018              1399.0106
 Red. masses --      1.3283                 1.3749                 1.3773
 Frc consts  --      1.4977                 1.5791                 1.5883
 IR Inten    --      2.7520                 4.3542                 0.9666

                     76                     77                     78
                      A                      A                      A
 Frequencies --   1404.7538              1413.2790              1414.1045
 Red. masses --      1.2401                 1.2462                 1.2665
 Frc consts  --      1.4418                 1.4666                 1.4922
 IR Inten    --      4.0067                 0.3827                 8.0550

                     79                     80                     81
                      A                      A                      A
 Frequencies --   1441.0066              1477.2171              1485.8993
 Red. masses --      1.0811                 1.0756                 1.0631
 Frc consts  --      1.3227                 1.3829                 1.3830
 IR Inten    --      6.8925                 0.9696                 1.2263

                     82                     83                     84
                      A                      A                      A
 Frequencies --   1487.4165              1489.0901              1493.8117
 Red. masses --      1.0709                 1.0473                 1.0684
 Frc consts  --      1.3960                 1.3682                 1.4046
 IR Inten    --      0.7071                 3.9441                 3.1758

                     85                     86                     87
                      A                      A                      A
 Frequencies --   1498.7767              1499.7629              1500.7931
 Red. masses --      1.0508                 1.0408                 1.0678
 Frc consts  --      1.3907                 1.3793                 1.4171
 IR Inten    --      6.6331                 6.3793                 1.6935

                     88                     89                     90
                      A                      A                      A
 Frequencies --   1507.7491              1513.4922              1617.1998
 Red. masses --      1.0572                 1.0894                 1.0807
 Frc consts  --      1.4160                 1.4703                 1.6653
 IR Inten    --      3.5669                 2.1637                 6.8617

                     91                     92                     93
                      A                      A                      A
 Frequencies --   1654.4947              2997.3795              3006.7177
 Red. masses --      1.0896                 1.0818                 1.0635
 Frc consts  --      1.7573                 5.7262                 5.6647
 IR Inten    --     23.3586                10.2396                 1.1222

                     94                     95                     96
                      A                      A                      A
 Frequencies --   3011.6038              3019.9646              3021.7423
 Red. masses --      1.0602                 1.0613                 1.0430
 Frc consts  --      5.6656                 5.7028                 5.6109
 IR Inten    --      0.6740                56.2600                15.1773

                     97                     98                     99
                      A                      A                      A
 Frequencies --   3025.6077              3028.3937              3028.8399
 Red. masses --      1.0450                 1.0472                 1.0573
 Frc consts  --      5.6363                 5.6584                 5.7146
 IR Inten    --      7.0139                20.9854                16.6443

                    100                    101                    102
                      A                      A                      A
 Frequencies --   3035.9080              3041.6378              3050.7529
 Red. masses --      1.0678                 1.0935                 1.0959
 Frc consts  --      5.7986                 5.9603                 6.0092
 IR Inten    --     43.3245                17.3820                 2.0032

                    103                    104                    105
                      A                      A                      A
 Frequencies --   3060.8396              3062.4261              3071.9666
 Red. masses --      1.0891                 1.0629                 1.0953
 Frc consts  --      6.0120                 5.8733                 6.0898
 IR Inten    --     19.6690                 6.3465                19.6612

                    106                    107                    108
                      A                      A                      A
 Frequencies --   3080.0546              3083.5229              3086.2540
 Red. masses --      1.0977                 1.0996                 1.0996
 Frc consts  --      6.1357                 6.1601                 6.1707
 IR Inten    --     29.1868                19.6601                63.9773

                    109                    110                    111
                      A                      A                      A
 Frequencies --   3095.4067              3101.0652              3117.5554
 Red. masses --      1.1021                 1.1009                 1.0963
 Frc consts  --      6.2218                 6.2374                 6.2777
 IR Inten    --     62.9032                38.4362                28.9787

                    112                    113                    114
                      A                      A                      A
 Frequencies --   3123.4257              3143.4660              3464.2110
 Red. masses --      1.1102                 1.0970                 1.0500
 Frc consts  --      6.3816                 6.3869                 7.4241
 IR Inten    --      3.0100                15.1365                 0.8802

                    115                    116                    117
                      A                      A                      A
 Frequencies --   3512.3317              3544.7391              3606.6782
 Red. masses --      1.0460                 1.0905                 1.0983
 Frc consts  --      7.6026                 8.0729                 8.4176
 IR Inten    --      5.7681                 0.2183                15.4448

 - Thermochemistry -
 -------------------
 Temperature   298.150 Kelvin.  Pressure   1.00000 Atm.
 Atom     1 has atomic number  6 and mass  12.00000

 Molecular mass:   250.15374 amu.
 Principal axes and moments of inertia in atomic units:
                           1         2         3
     Eigenvalues --  4083.057776603.470518979.37740
           X            0.99890  -0.04643   0.00587
           Y            0.04647   0.99889  -0.00804
           Z           -0.00549   0.00831   0.99995
 This molecule is an asymmetric top.
 Rotational symmetry number  1.
 Warning -- assumption of classical behavior for rotation
           may cause significant error
 Rotational temperatures (Kelvin)      0.02121     0.01312     0.00965
 Rotational constants (GHZ):           0.44201     0.27330     0.20099
 Zero-point vibrational energy     961229.3 (Joules/Mol)
                                  229.73932 (Kcal/Mol)
 Warning -- explicit consideration of  31 degrees of freedom as
           vibrations may cause significant error
 Vibrational temperatures:     31.45    46.43    49.74    74.75    84.60
          (Kelvin)             97.04   115.46   127.61   155.95   202.61
                              217.38   246.63   287.61   314.13   326.71
                              337.84   356.00   360.48   369.63   423.11
                              436.88   461.19   477.99   524.36   559.77
                              598.02   614.27   672.57   698.56   756.48
                              869.21  1024.00  1050.89  1067.77  1073.39
                             1120.17  1138.49  1211.06  1242.74  1265.52
                             1268.85  1295.23  1310.49  1324.56  1363.82
                             1397.23  1418.95  1474.64  1506.74  1513.67
                             1530.72  1554.40  1564.93  1588.51  1597.85
                             1618.69  1635.52  1654.63  1706.18  1725.72
                             1739.90  1744.60  1788.70  1847.92  1852.08
                             1892.78  1909.65  1915.41  1925.99  1953.00
                             1977.28  1985.47  1990.41  2008.82  2012.86
                             2021.13  2033.39  2034.58  2073.29  2125.39
                             2137.88  2140.06  2142.47  2149.26  2156.41
                             2157.82  2159.31  2169.31  2177.58  2326.79
                             2380.45  4312.56  4326.00  4333.03  4345.06
                             4347.61  4353.17  4357.18  4357.83  4367.99
                             4376.24  4389.35  4403.87  4406.15  4419.87
                             4431.51  4436.50  4440.43  4453.60  4461.74
                             4485.47  4493.91  4522.75  4984.23  5053.46
                             5100.09  5189.21

 Zero-point correction=                           0.366113 (Hartree/Particle)
 Thermal correction to Energy=                    0.387127
 Thermal correction to Enthalpy=                  0.388071
 Thermal correction to Gibbs Free Energy=         0.314308
 Sum of electronic and zero-point Energies=          -1340.386433
 Sum of electronic and thermal Energies=             -1340.365419
 Sum of electronic and thermal Enthalpies=           -1340.364474
 Sum of electronic and thermal Free Energies=        -1340.438237

                     E (Thermal)             CV                S
                      KCal/Mol        Cal/Mol-Kelvin    Cal/Mol-Kelvin
 Total                  242.926             75.500            155.247
 Electronic               0.000              0.000              0.000
 Translational            0.889              2.981             42.451
 Rotational               0.889              2.981             33.848
 Vibrational            241.148             69.538             78.948
 Vibration     1          0.593              1.985              6.457
 Vibration     2          0.594              1.983              5.685
 Vibration     3          0.594              1.983              5.548
 Vibration     4          0.596              1.977              4.742
 Vibration     5          0.596              1.974              4.497
 Vibration     6          0.598              1.970              4.226
 Vibration     7          0.600              1.963              3.885
 Vibration     8          0.602              1.957              3.689
 Vibration     9          0.606              1.943              3.298
 Vibration    10          0.615              1.912              2.793
 Vibration    11          0.619              1.901              2.659
 Vibration    12          0.626              1.878              2.420
 Vibration    13          0.638              1.840              2.134
 Vibration    14          0.646              1.813              1.973
 Vibration    15          0.651              1.800              1.902
 Vibration    16          0.655              1.788              1.842
 Vibration    17          0.661              1.767              1.749
 Vibration    18          0.663              1.762              1.727
 Vibration    19          0.666              1.751              1.683
 Vibration    20          0.689              1.685              1.450
 Vibration    21          0.695              1.667              1.397
 Vibration    22          0.706              1.634              1.307
 Vibration    23          0.714              1.611              1.249
 Vibration    24          0.738              1.545              1.103
 Vibration    25          0.757              1.494              1.004
 Vibration    26          0.779              1.436              0.907
 Vibration    27          0.789              1.412              0.869
 Vibration    28          0.825              1.322              0.745
 Vibration    29          0.842              1.282              0.695
 Vibration    30          0.881              1.193              0.597
 Vibration    31          0.963              1.023              0.443

                           ! Non-Optimized Parameters !
 Normal termination of Gaussian 16 at Wed May 24 23:34:26 2023.
