 Gaussian 16, Revision A.03,
 Gaussian 16:  ES64L-G16RevA.03 25-Dec-2016

 -----------------------------
 # opt freq b3lyp/6-31g(2df,p)
 -----------------------------

 -------------------
 Title Card Required
 -------------------
 Symbolic Z-matrix:
 Charge =  0 Multiplicity = 1

 SCF Done:  E(RB3LYP) =  -583.858421453     A.U. after   13 cycles
 SCF Done:  E(RB3LYP) =  -583.872505789     A.U. after   12 cycles
 SCF Done:  E(RB3LYP) =  -583.878363394     A.U. after   13 cycles
 SCF Done:  E(RB3LYP) =  -583.881121745     A.U. after   13 cycles
 SCF Done:  E(RB3LYP) =  -583.882298635     A.U. after   10 cycles
 SCF Done:  E(RB3LYP) =  -583.882709351     A.U. after   11 cycles
 SCF Done:  E(RB3LYP) =  -583.882877284     A.U. after   10 cycles
 SCF Done:  E(RB3LYP) =  -583.882968133     A.U. after   10 cycles
 SCF Done:  E(RB3LYP) =  -583.883018871     A.U. after    9 cycles
 SCF Done:  E(RB3LYP) =  -583.883029751     A.U. after    9 cycles
 SCF Done:  E(RB3LYP) =  -583.883032044     A.U. after    9 cycles
 SCF Done:  E(RB3LYP) =  -583.883032476     A.U. after    7 cycles
 SCF Done:  E(RB3LYP) =  -583.883032641     A.U. after    7 cycles
 SCF Done:  E(RB3LYP) =  -583.883032664     A.U. after    6 cycles
 Optimization completed.
    -- Stationary point found.
 Normal termination of Gaussian 16 at Sat May 27 23:55:05 2023.

 ----------------------------------------------------------------------
 #N Geom=AllCheck Guess=TCheck SCRF=Check GenChk RB3LYP/6-31G(2df,p) Fr
 eq
 ----------------------------------------------------------------------

 Structure from the checkpoint file:  "CCCCOC1dCCdCqCrCCqCrC1.chk"
 -------------------
 Title Card Required
 -------------------
 Charge =  0 Multiplicity = 1

                         Standard orientation:
 ---------------------------------------------------------------------
 Center     Atomic      Atomic             Coordinates (Angstroms)
 Number     Number       Type             X           Y           Z
 ---------------------------------------------------------------------
      1          6           0       -6.115606    0.106901    0.095958
      2          6           0       -4.774058   -0.623280    0.201535
      3          6           0       -3.576677    0.288949   -0.084561
      4          6           0       -2.246637   -0.443432    0.021448
      5          8           0       -1.210600    0.486809   -0.259851
      6          6           0        0.085567    0.067628   -0.234662
      7          6           0        0.479208   -1.185542    0.061886
      8          6           0        1.836086   -1.717538    0.068093
      9          6           0        3.045952   -1.129665    0.026208
     10          6           0        4.290258   -1.983298   -0.011696
     11          6           0        3.344625    0.350771    0.009797
     12          6           0        2.226959    1.346741    0.346111
     13          6           0        2.778221    2.778964    0.286618
     14          6           0        1.002098    1.208604   -0.580375
     15          1           0       -6.952885   -0.566026    0.304747
     16          1           0       -6.262331    0.521036   -0.907590
     17          1           0       -6.170158    0.938389    0.807157
     18          1           0       -4.762813   -1.470458   -0.496914
     19          1           0       -4.671431   -1.056584    1.205214
     20          1           0       -3.571041    1.132923    0.616009
     21          1           0       -3.662992    0.718755   -1.089994
     22          1           0       -2.201152   -1.279401   -0.691901
     23          1           0       -2.108551   -0.861515    1.029422
     24          1           0       -0.284530   -1.922848    0.280142
     25          1           0        1.852977   -2.806263    0.104590
     26          1           0        4.052870   -3.050018   -0.034538
     27          1           0        4.932912   -1.795919    0.859625
     28          1           0        4.901968   -1.755430   -0.895944
     29          1           0        3.765563    0.610987   -0.976095
     30          1           0        4.173571    0.528348    0.711305
     31          1           0        1.891221    1.152179    1.372530
     32          1           0        3.094049    3.035573   -0.731981
     33          1           0        3.646616    2.899506    0.942570
     34          1           0        2.021228    3.507999    0.593036
     35          1           0        1.342336    1.107288   -1.620602
     36          1           0        0.401390    2.122189   -0.540144
 ---------------------------------------------------------------------

 SCF Done:  E(RB3LYP) =  -583.883032664     A.U. after    1 cycles

 The electronic state is 1-A.
 Alpha  occ. eigenvalues --  -19.16185 -10.23084 -10.22748 -10.18504 -10.18364
 Alpha  occ. eigenvalues --  -10.18161 -10.17671 -10.17557 -10.17496 -10.17362
 Alpha  occ. eigenvalues --  -10.16988 -10.16867 -10.16561 -10.15833  -1.05558
 Alpha  occ. eigenvalues --   -0.82824  -0.80085  -0.77676  -0.76274  -0.72482
 Alpha  occ. eigenvalues --   -0.69118  -0.67432  -0.64647  -0.63642  -0.58501
 Alpha  occ. eigenvalues --   -0.57646  -0.54269  -0.51905  -0.48850  -0.48025
 Alpha  occ. eigenvalues --   -0.47404  -0.44304  -0.43926  -0.42977  -0.41820
 Alpha  occ. eigenvalues --   -0.40590  -0.39925  -0.39656  -0.39304  -0.38785
 Alpha  occ. eigenvalues --   -0.37600  -0.37046  -0.36290  -0.34906  -0.34031
 Alpha  occ. eigenvalues --   -0.33424  -0.33294  -0.32686  -0.31805  -0.31439
 Alpha  occ. eigenvalues --   -0.31035  -0.30351  -0.27228  -0.18147
 Alpha virt. eigenvalues --    0.00165   0.08693   0.08844   0.10472   0.11192
 Alpha virt. eigenvalues --    0.11821   0.12294   0.12651   0.13263   0.13830
 Alpha virt. eigenvalues --    0.13975   0.15144   0.15449   0.16433   0.17518

 Mulliken charges:
               1
     1  C   -0.379555
     2  C   -0.167616
     3  C   -0.187146
     4  C   -0.060866
     5  O   -0.262987
     6  C    0.349877
     7  C   -0.242473
     8  C   -0.132457
     9  C    0.242466
    10  C   -0.461691
    11  C   -0.275929
    12  C   -0.001040
    13  C   -0.393108
    14  C   -0.302876
    15  H    0.112974
    16  H    0.116362
    17  H    0.116272
    18  H    0.098138
    19  H    0.098128
    20  H    0.105543
    21  H    0.105947
    22  H    0.103404
    23  H    0.103494
    24  H    0.073168
    25  H    0.066687
    26  H    0.115239
    27  H    0.115057
    28  H    0.114978
    29  H    0.098816
    30  H    0.095927
    31  H    0.082840
    32  H    0.111901
    33  H    0.109498
    34  H    0.110427
    35  H    0.111552
    36  H    0.109051
 Sum of Mulliken charges =  -0.00000

 Dipole moment (field-independent basis, Debye):
    X=             -0.8659    Y=              0.0403    Z=              0.1112  Tot=              0.8739
 Quadrupole moment (field-independent basis, Debye-Ang):
   XX=            -82.0592   YY=            -87.5155   ZZ=            -88.3021
   XY=              3.0392   XZ=             -0.6656   YZ=             -0.0162

  Exact polarizability: 208.616  -7.068 144.906   1.041  -2.949 103.055
 Approx polarizability: 261.318 -12.075 213.412   2.821  -8.338 166.566

                      1                      2                      3
                      A                      A                      A
 Frequencies --     25.6867                53.6572                65.1392
 Red. masses --      3.5628                 2.3227                 2.1103
 Frc consts  --      0.0014                 0.0039                 0.0053
 IR Inten    --      0.1904                 0.0604                 0.1327

                      4                      5                      6
                      A                      A                      A
 Frequencies --     74.6118                99.5228               128.1618
 Red. masses --      2.3283                 2.9173                 2.5627
 Frc consts  --      0.0076                 0.0170                 0.0248
 IR Inten    --      0.0516                 0.4925                 0.1709

                      7                      8                      9
                      A                      A                      A
 Frequencies --    152.6832               184.0738               198.8271
 Red. masses --      2.2908                 2.4364                 1.2744
 Frc consts  --      0.0315                 0.0486                 0.0297
 IR Inten    --      0.1225                 1.3617                 0.4748

                     10                     11                     12
                      A                      A                      A
 Frequencies --    202.6927               219.9510               239.7211
 Red. masses --      2.4877                 1.5071                 2.2585
 Frc consts  --      0.0602                 0.0430                 0.0765
 IR Inten    --      0.6133                 0.1109                 0.3935

                     13                     14                     15
                      A                      A                      A
 Frequencies --    249.2765               279.0156               334.3875
 Red. masses --      1.1386                 2.0197                 3.1635
 Frc consts  --      0.0417                 0.0926                 0.2084
 IR Inten    --      0.0707                 0.5147                 0.7177

                     16                     17                     18
                      A                      A                      A
 Frequencies --    344.4274               356.3652               403.3846
 Red. masses --      3.1223                 3.0303                 3.7499
 Frc consts  --      0.2182                 0.2267                 0.3595
 IR Inten    --      0.6227                 1.2702                 1.1059

                     19                     20                     21
                      A                      A                      A
 Frequencies --    427.6256               444.0001               471.2317
 Red. masses --      2.6848                 2.2084                 2.7941
 Frc consts  --      0.2893                 0.2565                 0.3656
 IR Inten    --      0.4752                 0.3996                 1.7067

                     22                     23                     24
                      A                      A                      A
 Frequencies --    511.4874               541.4017               596.8625
 Red. masses --      2.6828                 3.0678                 4.1076
 Frc consts  --      0.4135                 0.5298                 0.8622
 IR Inten    --      1.1620                 0.6203                 3.7882

                     25                     26                     27
                      A                      A                      A
 Frequencies --    745.8309               763.4560               813.2577
 Red. masses --      1.0763                 4.5755                 1.3747
 Frc consts  --      0.3528                 1.5713                 0.5357
 IR Inten    --      3.8887                33.3665                 2.1792

                     28                     29                     30
                      A                      A                      A
 Frequencies --    817.1064               837.5804               861.6195
 Red. masses --      2.6162                 1.3649                 2.0025
 Frc consts  --      1.0292                 0.5642                 0.8759
 IR Inten    --      3.7321                 8.2539                 9.6143

                     31                     32                     33
                      A                      A                      A
 Frequencies --    868.0431               898.0341               909.1624
 Red. masses --      2.0015                 2.2250                 1.6501
 Frc consts  --      0.8886                 1.0572                 0.8036
 IR Inten    --      1.8220                 2.1349                 4.5769

                     34                     35                     36
                      A                      A                      A
 Frequencies --    916.0515               942.4134               958.3074
 Red. masses --      1.6577                 1.5531                 1.1402
 Frc consts  --      0.8196                 0.8127                 0.6170
 IR Inten    --      3.5677                 2.1069                 0.0998

                     37                     38                     39
                      A                      A                      A
 Frequencies --    980.7130              1015.1522              1027.0556
 Red. masses --      2.1177                 1.4572                 3.2568
 Frc consts  --      1.2000                 0.8847                 2.0241
 IR Inten    --      2.5960                 1.6540                 6.1092

                     40                     41                     42
                      A                      A                      A
 Frequencies --   1054.6705              1055.7836              1073.1503
 Red. masses --      1.4222                 2.9003                 2.2010
 Frc consts  --      0.9321                 1.9048                 1.4935
 IR Inten    --      2.8921                23.7136                 2.8206

                     43                     44                     45
                      A                      A                      A
 Frequencies --   1078.6828              1109.5534              1140.6756
 Red. masses --      3.1479                 1.9433                 2.7144
 Frc consts  --      2.1580                 1.4096                 2.0809
 IR Inten    --     40.8644                 5.1249                 4.6797

                     46                     47                     48
                      A                      A                      A
 Frequencies --   1148.3216              1171.7188              1184.3794
 Red. masses --      2.6634                 1.8475                 1.6889
 Frc consts  --      2.0693                 1.4944                 1.3958
 IR Inten    --      1.9738                80.4114                 5.0845

                     49                     50                     51
                      A                      A                      A
 Frequencies --   1184.7304              1192.9093              1247.1995
 Red. masses --      1.7285                 1.6321                 2.5252
 Frc consts  --      1.4294                 1.3684                 2.3143
 IR Inten    --     69.2773                 3.8993               221.7796

                     52                     53                     54
                      A                      A                      A
 Frequencies --   1251.1154              1293.8286              1297.1423
 Red. masses --      1.3464                 1.3110                 1.3064
 Frc consts  --      1.2417                 1.2930                 1.2951
 IR Inten    --     14.7569                13.4451                13.5867

                     55                     56                     57
                      A                      A                      A
 Frequencies --   1312.7100              1315.4651              1325.1102
 Red. masses --      1.1274                 1.2548                 1.0864
 Frc consts  --      1.1446                 1.2793                 1.1240
 IR Inten    --      0.5401                11.4529                 0.1097

                     58                     59                     60
                      A                      A                      A
 Frequencies --   1343.4218              1378.1090              1386.7542
 Red. masses --      1.4026                 1.3655                 1.4366
 Frc consts  --      1.4915                 1.5279                 1.6277
 IR Inten    --     57.2582                 2.2856                 2.3349

                     61                     62                     63
                      A                      A                      A
 Frequencies --   1389.4474              1402.1613              1409.5907
 Red. masses --      1.4710                 1.5786                 1.2657
 Frc consts  --      1.6732                 1.8287                 1.4817
 IR Inten    --      5.5803                12.1833                12.6400

                     64                     65                     66
                      A                      A                      A
 Frequencies --   1412.7920              1414.1811              1421.4103
 Red. masses --      1.2698                 1.2625                 1.4626
 Frc consts  --      1.4932                 1.4876                 1.7411
 IR Inten    --      3.2830                 6.6715                14.4726

                     67                     68                     69
                      A                      A                      A
 Frequencies --   1435.2288              1464.0958              1475.9452
 Red. masses --      1.7268                 1.1140                 1.0772
 Frc consts  --      2.0957                 1.4069                 1.3825
 IR Inten    --      6.1398                 1.4209                 8.3444

                     70                     71                     72
                      A                      A                      A
 Frequencies --   1478.3243              1487.8992              1495.3708
 Red. masses --      1.0615                 1.0636                 1.0741
 Frc consts  --      1.3669                 1.3874                 1.4151
 IR Inten    --      2.3182                 0.4969                 5.1426

                     73                     74                     75
                      A                      A                      A
 Frequencies --   1496.1157              1498.4570              1499.7874
 Red. masses --      1.0729                 1.0458                 1.0585
 Frc consts  --      1.4150                 1.3835                 1.4028
 IR Inten    --      0.5384                 5.0366                 1.3609

                     76                     77                     78
                      A                      A                      A
 Frequencies --   1499.9523              1509.7961              1524.8167
 Red. masses --      1.0400                 1.0802                 1.0927
 Frc consts  --      1.3786                 1.4507                 1.4969
 IR Inten    --      5.2478                 3.5129                11.4503

                     79                     80                     81
                      A                      A                      A
 Frequencies --   1684.3400              1713.5484              2965.6167
 Red. masses --      7.4296                 5.9379                 1.0682
 Frc consts  --     12.4186                10.2725                 5.5351
 IR Inten    --    198.0727                23.5112                32.7167

                     82                     83                     84
                      A                      A                      A
 Frequencies --   2985.4094              2998.6447              3002.8727
 Red. masses --      1.0546                 1.0703                 1.0553
 Frc consts  --      5.5377                 5.6704                 5.6066
 IR Inten    --     22.3365                 9.2789                90.9537

                     85                     86                     87
                      A                      A                      A
 Frequencies --   3009.5684              3013.7575              3020.7843
 Red. masses --      1.0689                 1.0587                 1.1053
 Frc consts  --      5.7044                 5.6656                 5.9424
 IR Inten    --      4.8032                16.0432                19.7763

                     88                     89                     90
                      A                      A                      A
 Frequencies --   3023.1248              3028.9814              3031.1768
 Red. masses --      1.0412                 1.0458                 1.0782
 Frc consts  --      5.6066                 5.6530                 5.8365
 IR Inten    --     27.2011                14.9629                34.2476

                     91                     92                     93
                      A                      A                      A
 Frequencies --   3033.0966              3040.1570              3040.5952
 Red. masses --      1.0483                 1.1012                 1.0981
 Frc consts  --      5.6819                 5.9964                 5.9816
 IR Inten    --     53.9096                 3.5917                32.5431

                     94                     95                     96
                      A                      A                      A
 Frequencies --   3075.8217              3080.0259              3090.2616
 Red. masses --      1.1052                 1.0937                 1.0997
 Frc consts  --      6.1607                 6.1131                 6.1875
 IR Inten    --     32.1573                 9.8110                40.7086

                     97                     98                     99
                      A                      A                      A
 Frequencies --   3098.5536              3100.3253              3103.7609
 Red. masses --      1.1023                 1.1016                 1.1011
 Frc consts  --      6.2354                 6.2384                 6.2499
 IR Inten    --     59.3321                29.9154                35.8567

                    100                    101                    102
                      A                      A                      A
 Frequencies --   3106.5014              3121.3378              3187.3692
 Red. masses --      1.0969                 1.0858                 1.0869
 Frc consts  --      6.2366                 6.2325                 6.5056
 IR Inten    --     15.1234                45.2489                25.3447

 - Thermochemistry -
 -------------------
 Temperature   298.150 Kelvin.  Pressure   1.00000 Atm.
 Atom     1 has atomic number  6 and mass  12.00000

 Molecular mass:   194.16707 amu.
 Principal axes and moments of inertia in atomic units:
                           1         2         3
     Eigenvalues --  1284.463577140.305418244.99808
           X            0.99999   0.00383  -0.00095
           Y           -0.00383   0.99999  -0.00065
           Z            0.00095   0.00066   1.00000
 This molecule is an asymmetric top.
 Rotational symmetry number  1.
 Warning -- assumption of classical behavior for rotation
           may cause significant error
 Rotational temperatures (Kelvin)      0.06743     0.01213     0.01051
 Rotational constants (GHZ):           1.40505     0.25275     0.21889
 Zero-point vibrational energy     851588.1 (Joules/Mol)
                                  203.53444 (Kcal/Mol)
 Warning -- explicit consideration of  24 degrees of freedom as
           vibrations may cause significant error
 Vibrational temperatures:     36.96    77.20    93.72   107.35   143.19
          (Kelvin)            184.40   219.68   264.84   286.07   291.63
                              316.46   344.91   358.65   401.44   481.11
                              495.55   512.73   580.38   615.26   638.82
                              678.00   735.92   778.96   858.75  1073.08
                             1098.44  1170.10  1175.63  1205.09  1239.68
                             1248.92  1292.07  1308.08  1317.99  1355.92
                             1378.79  1411.03  1460.58  1477.70  1517.44
                             1519.04  1544.02  1551.98  1596.40  1641.18
                             1652.18  1685.84  1704.06  1704.56  1716.33
                             1794.44  1800.08  1861.53  1866.30  1888.70
                             1892.66  1906.54  1932.88  1982.79  1995.23
                             1999.10  2017.40  2028.09  2032.69  2034.69
                             2045.09  2064.97  2106.51  2123.56  2126.98
                             2140.76  2151.51  2152.58  2155.95  2157.86
                             2158.10  2172.26  2193.87  2423.39  2465.41
                             4266.86  4295.34  4314.38  4320.46  4330.10
                             4336.12  4346.23  4349.60  4358.03  4361.19
                             4363.95  4374.11  4374.74  4425.42  4431.47
                             4446.20  4458.13  4460.68  4465.62  4469.56
                             4490.91  4585.91

 Zero-point correction=                           0.324353 (Hartree/Particle)
 Thermal correction to Energy=                    0.340340
 Thermal correction to Enthalpy=                  0.341284
 Thermal correction to Gibbs Free Energy=         0.280369
 Sum of electronic and zero-point Energies=           -583.558680
 Sum of electronic and thermal Energies=              -583.542693
 Sum of electronic and thermal Enthalpies=            -583.541748
 Sum of electronic and thermal Free Energies=         -583.602664

                     E (Thermal)             CV                S
                      KCal/Mol        Cal/Mol-Kelvin    Cal/Mol-Kelvin
 Total                  213.567             59.746            128.207
 Electronic               0.000              0.000              0.000
 Translational            0.889              2.981             41.696
 Rotational               0.889              2.981             32.692
 Vibrational            211.789             53.784             53.819
 Vibration     1          0.593              1.985              6.137
 Vibration     2          0.596              1.976              4.678
 Vibration     3          0.597              1.971              4.295
 Vibration     4          0.599              1.966              4.028
 Vibration     5          0.604              1.949              3.464
 Vibration     6          0.611              1.925              2.973
 Vibration     7          0.619              1.900              2.639
 Vibration     8          0.631              1.862              2.287
 Vibration     9          0.637              1.842              2.144
 Vibration    10          0.639              1.836              2.109
 Vibration    11          0.647              1.811              1.959
 Vibration    12          0.657              1.780              1.805
 Vibration    13          0.662              1.764              1.736
 Vibration    14          0.679              1.712              1.540
 Vibration    15          0.716              1.607              1.239
 Vibration    16          0.723              1.587              1.192
 Vibration    17          0.732              1.562              1.138
 Vibration    18          0.769              1.463              0.950
 Vibration    19          0.789              1.410              0.866
 Vibration    20          0.804              1.374              0.814
 Vibration    21          0.828              1.314              0.734
 Vibration    22          0.867              1.225              0.630
 Vibration    23          0.896              1.159              0.562
 Vibration    24          0.955              1.038              0.455

 Optimization completed.
    -- Stationary point found.
 Normal termination of Gaussian 16 at Sun May 28 01:57:42 2023.
