 Gaussian 16, Revision A.03,
 Gaussian 16:  ES64L-G16RevA.03 25-Dec-2016

 -----------------------------
 # opt freq b3lyp/6-31g(2df,p)
 -----------------------------

 -------------------
 Title Card Required
 -------------------
 Symbolic Z-matrix:
 Charge =  0 Multiplicity = 1

 SCF Done:  E(RB3LYP) =  -275.174022473     A.U. after   12 cycles
 SCF Done:  E(RB3LYP) =  -275.179972979     A.U. after    7 cycles
 SCF Done:  E(RB3LYP) =  -275.179641727     A.U. after    9 cycles
 SCF Done:  E(RB3LYP) =  -275.179973165     A.U. after    6 cycles
 Optimization completed.
    -- Stationary point found.
 Normal termination of Gaussian 16 at Sun May 28 13:26:31 2023.

 ----------------------------------------------------------------------
 #N Geom=AllCheck Guess=TCheck SCRF=Check GenChk RB3LYP/6-31G(2df,p) Fr
 eq
 ----------------------------------------------------------------------

 Structure from the checkpoint file:  "CCCC1CCC1.chk"
 -------------------
 Title Card Required
 -------------------
 Charge =  0 Multiplicity = 1

 SCF Done:  E(RB3LYP) =  -275.179932008     A.U. after    9 cycles
 SCF Done:  E(RB3LYP) =  -275.179973165     A.U. after    1 cycles
 SCF Done:  E(RB3LYP) =  -275.179971067     A.U. after    8 cycles
 SCF Done:  E(RB3LYP) =  -275.179972979     A.U. after    7 cycles
 SCF Done:  E(RB3LYP) =  -275.179973165     A.U. after    6 cycles
 Optimization completed.
 Normal termination of Gaussian 16 at Sun May 28 13:40:35 2023.

 ----------------------------------------------------------------------
 #N Geom=AllCheck Guess=TCheck SCRF=Check GenChk RB3LYP/6-31G(2df,p) Fr
 eq
 ----------------------------------------------------------------------

 Structure from the checkpoint file:  "CCCC1CCC1.chk"
 -------------------
 Title Card Required
 -------------------
 Charge =  0 Multiplicity = 1

                         Standard orientation:
 ---------------------------------------------------------------------
 Center     Atomic      Atomic             Coordinates (Angstroms)
 Number     Number       Type             X           Y           Z
 ---------------------------------------------------------------------
      1          6           0        3.263391    0.007308   -0.223415
      2          6           0        1.885068   -0.386495    0.314478
      3          6           0        0.771973    0.580126   -0.108272
      4          6           0       -0.604885    0.189491    0.411096
      5          6           0       -1.845508    1.015404   -0.034474
      6          6           0       -2.652733   -0.307886   -0.118124
      7          6           0       -1.306384   -1.079323   -0.159432
      8          1           0        4.035796   -0.699802    0.095381
      9          1           0        3.556600    1.002365    0.129879
     10          1           0        3.268024    0.033343   -1.318931
     11          1           0        1.920204   -0.438228    1.410957
     12          1           0        1.634108   -1.399019   -0.027637
     13          1           0        0.738309    0.638391   -1.206009
     14          1           0        1.018541    1.593167    0.241164
     15          1           0       -0.580276    0.129432    1.506740
     16          1           0       -1.690118    1.455239   -1.025628
     17          1           0       -2.207740    1.798041    0.637341
     18          1           0       -3.337654   -0.434168   -0.960037
     19          1           0       -3.203289   -0.504957    0.806449
     20          1           0       -0.986769   -1.275294   -1.189056
     21          1           0       -1.231270   -2.010258    0.408244
 ---------------------------------------------------------------------

 SCF Done:  E(RB3LYP) =  -275.179973165     A.U. after    1 cycles
    -- Stationary point found.
 Normal termination of Gaussian 16 at Sun May 28 13:54:10 2023.

 The electronic state is 1-A.
 Alpha  occ. eigenvalues --  -10.17773 -10.17457 -10.17406 -10.17217 -10.17179
 Alpha  occ. eigenvalues --  -10.17089 -10.16888  -0.83742  -0.77544  -0.69715
 Alpha  occ. eigenvalues --   -0.64936  -0.61821  -0.57487  -0.53798  -0.47429
 Alpha  occ. eigenvalues --   -0.45523  -0.44979  -0.41014  -0.39213  -0.37734
 Alpha  occ. eigenvalues --   -0.37115  -0.35673  -0.33854  -0.32370  -0.32051
 Alpha  occ. eigenvalues --   -0.30540  -0.28960  -0.28354
 Alpha virt. eigenvalues --    0.08948   0.10391   0.10467   0.12605   0.13200
 Alpha virt. eigenvalues --    0.14201   0.15484   0.17569   0.18450   0.18789
 Alpha virt. eigenvalues --    0.18927   0.19248   0.20019   0.20756   0.21019

 Mulliken charges:
               1
     1  C   -0.378804
     2  C   -0.160620
     3  C   -0.191532
     4  C    0.066547
     5  C   -0.236235
     6  C   -0.209990
     7  C   -0.215115
     8  H    0.109214
     9  H    0.112260
    10  H    0.112361
    11  H    0.092163
    12  H    0.097989
    13  H    0.084778
    14  H    0.088451
    15  H    0.064199
    16  H    0.094838
    17  H    0.091095
    18  H    0.093063
    19  H    0.099327
    20  H    0.094216
    21  H    0.091797
 Sum of Mulliken charges =  -0.00000

 Dipole moment (field-independent basis, Debye):
    X=              0.0397    Y=             -0.0166    Z=              0.0868  Tot=              0.0969
 Quadrupole moment (field-independent basis, Debye-Ang):
   XX=            -47.4974   YY=            -46.6804   ZZ=            -45.4169
   XY=             -0.0639   XZ=             -0.0339   YZ=              0.1136

  Exact polarizability:  88.441  -0.186  70.433   0.110  -0.102  66.390
 Approx polarizability: 102.575  -0.084 101.375   0.270   0.194 101.841

                      1                      2                      3
                      A                      A                      A
 Frequencies --     82.5271                96.4694               124.1606
 Red. masses --      2.4567                 1.7768                 2.3414
 Frc consts  --      0.0099                 0.0097                 0.0213
 IR Inten    --      0.0140                 0.0051                 0.0041

                      4                      5                      6
                      A                      A                      A
 Frequencies --    181.9831               246.7413               315.4744
 Red. masses --      2.0120                 1.1228                 2.5675
 Frc consts  --      0.0393                 0.0403                 0.1506
 IR Inten    --      0.0253                 0.0031                 0.0352

                      7                      8                      9
                      A                      A                      A
 Frequencies --    376.5817               428.8080               636.3946
 Red. masses --      3.1000                 1.8805                 1.9407
 Frc consts  --      0.2590                 0.2037                 0.4631
 IR Inten    --      0.1309                 0.0296                 1.8988

                     10                     11                     12
                      A                      A                      A
 Frequencies --    743.4872               765.4010               786.7192
 Red. masses --      1.1401                 1.4370                 1.2827
 Frc consts  --      0.3713                 0.4960                 0.4678
 IR Inten    --      2.0542                 0.4221                 0.5072

                     13                     14                     15
                      A                      A                      A
 Frequencies --    861.1395               894.3234               902.4821
 Red. masses --      1.2929                 1.9749                 2.0255
 Frc consts  --      0.5649                 0.9307                 0.9720
 IR Inten    --      0.6478                 1.2264                 0.8096

                     16                     17                     18
                      A                      A                      A
 Frequencies --    933.9830               951.4749               975.6885
 Red. masses --      2.2142                 1.5631                 2.5969
 Frc consts  --      1.1380                 0.8337                 1.4565
 IR Inten    --      1.0562                 0.0512                 0.1943

                     19                     20                     21
                      A                      A                      A
 Frequencies --   1003.6496              1038.7827              1054.4211
 Red. masses --      1.2775                 1.7370                 2.2865
 Frc consts  --      0.7582                 1.1044                 1.4978
 IR Inten    --      0.3238                 0.4726                 0.7860

                     22                     23                     24
                      A                      A                      A
 Frequencies --   1116.5626              1137.4196              1191.9081
 Red. masses --      2.3924                 2.0000                 2.1427
 Frc consts  --      1.7573                 1.5244                 1.7935
 IR Inten    --      0.7572                 0.9069                 0.4593

                     25                     26                     27
                      A                      A                      A
 Frequencies --   1203.5033              1237.5103              1255.5585
 Red. masses --      1.3916                 1.4038                 1.2334
 Frc consts  --      1.1875                 1.2667                 1.1456
 IR Inten    --      0.3143                 0.4134                 0.1811

                     28                     29                     30
                      A                      A                      A
 Frequencies --   1261.1673              1270.5525              1276.2318
 Red. masses --      1.2304                 1.4150                 1.3290
 Frc consts  --      1.1530                 1.3458                 1.2754
 IR Inten    --      0.4049                 1.0003                 0.3497

                     31                     32                     33
                      A                      A                      A
 Frequencies --   1293.5420              1315.9885              1332.0478
 Red. masses --      1.3672                 1.3813                 1.1288
 Frc consts  --      1.3478                 1.4094                 1.1801
 IR Inten    --      1.7704                 5.4082                 0.7262

                     34                     35                     36
                      A                      A                      A
 Frequencies --   1375.5943              1398.2260              1412.1462
 Red. masses --      1.4111                 1.6396                 1.2378
 Frc consts  --      1.5733                 1.8886                 1.4544
 IR Inten    --      1.4377                 2.2526                 0.3976

                     37                     38                     39
                      A                      A                      A
 Frequencies --   1477.5391              1481.3836              1486.5310
 Red. masses --      1.0874                 1.0783                 1.0806
 Frc consts  --      1.3986                 1.3941                 1.4069
 IR Inten    --      0.1447                 0.0119                 2.4980

                     40                     41                     42
                      A                      A                      A
 Frequencies --   1493.4548              1499.6321              1508.9438
 Red. masses --      1.0655                 1.0404                 1.1050
 Frc consts  --      1.4002                 1.3786                 1.4823
 IR Inten    --      0.5067                 4.8623                 1.0113

                     43                     44                     45
                      A                      A                      A
 Frequencies --   1511.9510              2994.7531              3012.8078
 Red. masses --      1.1134                 1.0583                 1.0719
 Frc consts  --      1.4996                 5.5923                 5.7328
 IR Inten    --      2.6847                14.7628                 5.7289

                     46                     47                     48
                      A                      A                      A
 Frequencies --   3015.9933              3027.2759              3028.3546
 Red. masses --      1.0765                 1.0384                 1.0909
 Frc consts  --      5.7693                 5.6068                 5.8946
 IR Inten    --     29.3410                34.6338                17.9903

                     49                     50                     51
                      A                      A                      A
 Frequencies --   3039.4298              3044.4242              3052.1791
 Red. masses --      1.0595                 1.0617                 1.1001
 Frc consts  --      5.7668                 5.7981                 6.0379
 IR Inten    --     50.6586                22.9503                44.4696

                     52                     53                     54
                      A                      A                      A
 Frequencies --   3055.0878              3091.1450              3093.6618
 Red. masses --      1.0617                 1.1039                 1.1021
 Frc consts  --      5.8384                 6.2144                 6.2146
 IR Inten    --     41.7618                18.0062                51.3260

                     55                     56                     57
                      A                      A                      A
 Frequencies --   3095.5073              3098.8372              3112.7890
 Red. masses --      1.1059                 1.1010                 1.1074
 Frc consts  --      6.2433                 6.2291                 6.3219
 IR Inten    --     26.2690                40.3042                74.9283

 - Thermochemistry -
 -------------------
 Temperature   298.150 Kelvin.  Pressure   1.00000 Atm.
 Atom     1 has atomic number  6 and mass  12.00000

 Molecular mass:    98.10955 amu.
 Principal axes and moments of inertia in atomic units:
                           1         2         3
     Eigenvalues --   245.136941515.938021641.95233
           X            1.00000   0.00028  -0.00182
           Y           -0.00030   0.99994  -0.01102
           Z            0.00181   0.01102   0.99994
 This molecule is an asymmetric top.
 Rotational symmetry number  1.
 Rotational temperatures (Kelvin)      0.35333     0.05714     0.05275
 Rotational constants (GHZ):           7.36218     1.19051     1.09914
 Zero-point vibrational energy     512601.8 (Joules/Mol)
                                  122.51478 (Kcal/Mol)
 Warning -- explicit consideration of   8 degrees of freedom as
           vibrations may cause significant error
 Vibrational temperatures:    118.74   138.80   178.64   261.83   355.01
          (Kelvin)            453.90   541.82   616.96   915.63  1069.71
                             1101.24  1131.91  1238.99  1286.73  1298.47
                             1343.79  1368.96  1403.80  1444.03  1494.58
                             1517.08  1606.48  1636.49  1714.89  1731.57
                             1780.50  1806.47  1814.54  1828.04  1836.21
                             1861.12  1893.41  1916.52  1979.17  2011.74
                             2031.76  2125.85  2131.38  2138.79  2148.75
                             2157.64  2171.03  2175.36  4308.78  4334.76
                             4339.34  4355.57  4357.13  4373.06  4380.25
                             4391.40  4395.59  4447.47  4451.09  4453.74
                             4458.54  4478.61

 Zero-point correction=                           0.195240 (Hartree/Particle)
 Thermal correction to Energy=                    0.203413
 Thermal correction to Enthalpy=                  0.204357
 Thermal correction to Gibbs Free Energy=         0.162559
 Sum of electronic and zero-point Energies=           -274.984733
 Sum of electronic and thermal Energies=              -274.976560
 Sum of electronic and thermal Enthalpies=            -274.975616
 Sum of electronic and thermal Free Energies=         -275.017414

                     E (Thermal)             CV                S
                      KCal/Mol        Cal/Mol-Kelvin    Cal/Mol-Kelvin
 Total                  127.644             30.036             87.973
 Electronic               0.000              0.000              0.000
 Translational            0.889              2.981             39.661
 Rotational               0.889              2.981             27.903
 Vibrational            125.866             24.075             20.409
 Vibration     1          0.600              1.961              3.830
 Vibration     2          0.603              1.952              3.524
 Vibration     3          0.610              1.929              3.035
 Vibration     4          0.630              1.864              2.308
 Vibration     5          0.661              1.768              1.754
 Vibration     6          0.703              1.644              1.333
 Vibration     7          0.747              1.520              1.053
 Vibration     8          0.790              1.408              0.863

 Optimization completed.
    -- Stationary point found.
 Normal termination of Gaussian 16 at Sun May 28 14:01:51 2023.
