 Gaussian 16, Revision A.03,
 Gaussian 16:  ES64L-G16RevA.03 25-Dec-2016

 -----------------------------
 # opt freq b3lyp/6-31g(2df,p)
 -----------------------------

 -------------------
 Title Card Required
 -------------------
 Symbolic Z-matrix:
 Charge =  0 Multiplicity = 1

 SCF Done:  E(RB3LYP) =  -898.600589070     A.U. after   12 cycles
 SCF Done:  E(RB3LYP) =  -898.621952722     A.U. after   11 cycles
 SCF Done:  E(RB3LYP) =  -898.559642671     A.U. after   13 cycles
 SCF Done:  E(RB3LYP) =  -898.635797710     A.U. after   11 cycles
 SCF Done:  E(RB3LYP) =  -898.638634694     A.U. after   10 cycles
 SCF Done:  E(RB3LYP) =  -898.639909372     A.U. after   10 cycles
 SCF Done:  E(RB3LYP) =  -898.640533101     A.U. after    9 cycles
 SCF Done:  E(RB3LYP) =  -898.640783886     A.U. after    9 cycles
 SCF Done:  E(RB3LYP) =  -898.640900707     A.U. after    9 cycles
 SCF Done:  E(RB3LYP) =  -898.641198960     A.U. after   10 cycles
 SCF Done:  E(RB3LYP) =  -898.645717759     A.U. after   10 cycles
 SCF Done:  E(RB3LYP) =  -898.645863523     A.U. after    9 cycles
 SCF Done:  E(RB3LYP) =  -898.645899312     A.U. after    9 cycles
 SCF Done:  E(RB3LYP) =  -898.645904168     A.U. after    8 cycles
 SCF Done:  E(RB3LYP) =  -898.645905867     A.U. after    8 cycles
 SCF Done:  E(RB3LYP) =  -898.645906610     A.U. after    8 cycles
 SCF Done:  E(RB3LYP) =  -898.645906689     A.U. after    7 cycles
 SCF Done:  E(RB3LYP) =  -898.645906788     A.U. after    5 cycles
 SCF Done:  E(RB3LYP) =  -898.645906804     A.U. after    5 cycles
 Optimization completed.
    -- Stationary point found.

 The electronic state is 1-A.
 Alpha  occ. eigenvalues --  -19.13494 -19.12925 -10.22328 -10.22251 -10.22070
 Alpha  occ. eigenvalues --  -10.22054 -10.18278 -10.17943 -10.17866 -10.17819
 Alpha  occ. eigenvalues --  -10.17596 -10.17530 -10.17239 -10.17201 -10.17143
 Alpha  occ. eigenvalues --  -10.17060 -10.17021 -10.16990 -10.16684 -10.16462
 Alpha  occ. eigenvalues --  -10.16371  -1.02910  -1.02223  -0.81644  -0.80202
 Alpha  occ. eigenvalues --   -0.79613  -0.77418  -0.75993  -0.75000  -0.72914
 Alpha  occ. eigenvalues --   -0.70060  -0.67634  -0.67132  -0.65258  -0.61652
 Alpha  occ. eigenvalues --   -0.59867  -0.59189  -0.58096  -0.57877  -0.57624
 Alpha  occ. eigenvalues --   -0.56544  -0.55664  -0.49408  -0.48885  -0.48471
 Alpha  occ. eigenvalues --   -0.47232  -0.46707  -0.46211  -0.45186  -0.44299
 Alpha  occ. eigenvalues --   -0.43838  -0.43154  -0.42468  -0.42263  -0.41696
 Alpha  occ. eigenvalues --   -0.40497  -0.40215  -0.39550  -0.38810  -0.38680
 Alpha  occ. eigenvalues --   -0.38133  -0.37476  -0.36885  -0.36668  -0.36558
 Alpha  occ. eigenvalues --   -0.36230  -0.34893  -0.34396  -0.33890  -0.33719
 Alpha  occ. eigenvalues --   -0.33568  -0.33060  -0.33022  -0.32587  -0.32190
 Alpha  occ. eigenvalues --   -0.32120  -0.31829  -0.31514  -0.31462  -0.30879
 Alpha  occ. eigenvalues --   -0.30401  -0.29834  -0.29264  -0.25072  -0.24320
 Alpha virt. eigenvalues --    0.08466   0.08944   0.09134   0.09837   0.09976
 Alpha virt. eigenvalues --    0.10388   0.10842   0.11522   0.11891   0.12203
 Alpha virt. eigenvalues --    0.12327   0.12575   0.13160   0.13551   0.13856

 Mulliken charges:
               1
     1  C   -0.380179
     2  C   -0.163274
     3  C   -0.161472
     4  C   -0.199994
     5  C   -0.052236
     6  O   -0.247530
     7  C   -0.062868
     8  C   -0.022863
     9  C   -0.162595
    10  C   -0.170761
    11  C   -0.380616
    12  C   -0.220122
    13  C   -0.074297
    14  O   -0.262423
    15  C    0.112936
    16  C   -0.175323
    17  C   -0.168071
    18  C   -0.381301
    19  C   -0.188662
    20  C   -0.170541
    21  C   -0.378399
    22  H    0.111454
    23  H    0.113124
    24  H    0.113087
    25  H    0.095650
    26  H    0.095641
    27  H    0.092864
    28  H    0.092801
    29  H    0.103858
    30  H    0.103533
    31  H    0.082475
    32  H    0.082775
    33  H    0.081165
    34  H    0.081514
    35  H    0.074512
    36  H    0.088549
    37  H    0.088746
    38  H    0.122747
    39  H    0.084854
    40  H    0.110458
    41  H    0.107418
    42  H    0.107321
    43  H    0.098300
    44  H    0.103743
    45  H    0.088133
    46  H    0.085637
    47  H    0.056316
    48  H    0.092220
    49  H    0.099134
    50  H    0.110877
    51  H    0.086482
    52  H    0.113310
    53  H    0.108986
    54  H    0.109228
    55  H    0.093279
    56  H    0.096181
    57  H    0.100715
    58  H    0.094415
    59  H    0.115045
    60  H    0.110448
    61  H    0.113596
 Sum of Mulliken charges =  -0.00000

 Dipole moment (field-independent basis, Debye):
    X=             -0.2682    Y=             -0.5173    Z=              0.0250  Tot=              0.5833
 Quadrupole moment (field-independent basis, Debye-Ang):
   XX=           -130.7287   YY=           -137.3559   ZZ=           -138.1974
   XY=             -0.7674   XZ=             -5.6574   YZ=              0.4588

 Normal termination of Gaussian 16 at Wed May 24 20:47:22 2023.

 ----------------------------------------------------------------------
 #N Geom=AllCheck Guess=TCheck SCRF=Check GenChk RB3LYP/6-31G(2df,p) Fr
 eq
 ----------------------------------------------------------------------

 Structure from the checkpoint file:  "CCCCCOCCqCCCrCCOCqCCCrCCC.chk"
 -------------------
 Title Card Required
 -------------------
 Charge =  0 Multiplicity = 1

                         Standard orientation:
 ---------------------------------------------------------------------
 Center     Atomic      Atomic             Coordinates (Angstroms)
 Number     Number       Type             X           Y           Z
 ---------------------------------------------------------------------
      1          6           0       -9.198286   -0.945049    0.822704
      2          6           0       -7.924852   -0.701244    0.008782
      3          6           0       -6.659722   -0.643714    0.872031
      4          6           0       -5.384298   -0.400231    0.059459
      5          6           0       -4.133914   -0.341854    0.926167
      6          8           0       -3.010118   -0.125350    0.098787
      7          6           0       -1.794153   -0.069261    0.813182
      8          6           0       -0.618127    0.184747   -0.133791
      9          6           0       -0.769442    1.505619   -0.923347
     10          6           0       -1.594933    1.407121   -2.212990
     11          6           0       -1.706152    2.746775   -2.945736
     12          6           0        0.686902    0.155425    0.687613
     13          6           0        1.928987   -0.123503   -0.151935
     14          8           0        3.055058   -0.073626    0.698923
     15          6           0        4.316812   -0.269715    0.061811
     16          6           0        5.356693    0.447923    0.925125
     17          6           0        5.149448    1.963820    1.006633
     18          6           0        6.169739    2.658447    1.912001
     19          6           0        4.609196   -1.769398   -0.115156
     20          6           0        5.799999   -2.088915   -1.027713
     21          6           0        5.999371   -3.593341   -1.235473
     22          1           0      -10.083363   -0.980898    0.179844
     23          1           0       -9.355034   -0.150240    1.560606
     24          1           0       -9.144414   -1.894093    1.367871
     25          1           0       -8.021503    0.237452   -0.552482
     26          1           0       -7.812330   -1.492843   -0.743694
     27          1           0       -6.563512   -1.583105    1.434449
     28          1           0       -6.772636    0.148608    1.625382
     29          1           0       -5.467958    0.540854   -0.498145
     30          1           0       -5.255010   -1.194186   -0.686312
     31          1           0       -4.014147   -1.283474    1.490549
     32          1           0       -4.220148    0.467514    1.672357
     33          1           0       -1.635907   -1.016519    1.357013
     34          1           0       -1.836577    0.732688    1.572789
     35          1           0       -0.595562   -0.649808   -0.849631
     36          1           0        0.227043    1.887288   -1.180866
     37          1           0       -1.213041    2.263046   -0.261389
     38          1           0       -2.589946    1.023659   -1.974074
     39          1           0       -1.129164    0.666093   -2.877034
     40          1           0       -2.201042    3.499835   -2.321749
     41          1           0       -2.285597    2.650142   -3.869531
     42          1           0       -0.718427    3.140517   -3.212951
     43          1           0        0.631588   -0.617881    1.463246
     44          1           0        0.822931    1.110405    1.210202
     45          1           0        2.035674    0.616712   -0.962051
     46          1           0        1.832578   -1.111074   -0.632453
     47          1           0        4.289553    0.206789   -0.934562
     48          1           0        6.358024    0.234540    0.532305
     49          1           0        5.315210    0.014265    1.933370
     50          1           0        4.134502    2.158826    1.367553
     51          1           0        5.206342    2.391014   -0.003889
     52          1           0        6.113512    2.276102    2.937437
     53          1           0        5.998620    3.738934    1.951140
     54          1           0        7.194213    2.497160    1.557091
     55          1           0        3.714909   -2.250743   -0.530030
     56          1           0        4.763994   -2.214747    0.876375
     57          1           0        6.719372   -1.659096   -0.612454
     58          1           0        5.650642   -1.602746   -2.001304
     59          1           0        6.181884   -4.103160   -0.283005
     60          1           0        6.852245   -3.796621   -1.890666
     61          1           0        5.113361   -4.051312   -1.689176
 ---------------------------------------------------------------------

 SCF Done:  E(RB3LYP) =  -898.645906804     A.U. after    1 cycles
 Error termination via Lnk1e in /cluster/software/gaussian/gaussian-16-A.03/avx2/g16/l1002.exe at Thu May 25 01:04:46 2023.
