 Gaussian 16, Revision A.03,
 Gaussian 16:  ES64L-G16RevA.03 25-Dec-2016

 -----------------------------
 # opt freq b3lyp/6-31g(2df,p)
 -----------------------------

 -------------------
 Title Card Required
 -------------------
 Symbolic Z-matrix:
 Charge =  0 Multiplicity = 1

 SCF Done:  E(RB3LYP) =  -622.207548512     A.U. after   12 cycles
 SCF Done:  E(RB3LYP) =  -622.212431947     A.U. after   11 cycles
 SCF Done:  E(RB3LYP) =  -622.213056524     A.U. after    9 cycles
 SCF Done:  E(RB3LYP) =  -622.213207192     A.U. after    9 cycles
 SCF Done:  E(RB3LYP) =  -622.213282011     A.U. after    9 cycles
 SCF Done:  E(RB3LYP) =  -622.213324777     A.U. after    9 cycles
 SCF Done:  E(RB3LYP) =  -622.213373244     A.U. after    8 cycles
 SCF Done:  E(RB3LYP) =  -622.213466133     A.U. after   11 cycles
 SCF Done:  E(RB3LYP) =  -622.213508631     A.U. after   10 cycles
 SCF Done:  E(RB3LYP) =  -622.213547416     A.U. after    9 cycles
 SCF Done:  E(RB3LYP) =  -622.214017624     A.U. after    9 cycles
 SCF Done:  E(RB3LYP) =  -622.214071449     A.U. after   10 cycles
 SCF Done:  E(RB3LYP) =  -622.214092739     A.U. after    9 cycles
 SCF Done:  E(RB3LYP) =  -622.214079900     A.U. after    9 cycles
 SCF Done:  E(RB3LYP) =  -622.214100024     A.U. after    9 cycles
 SCF Done:  E(RB3LYP) =  -622.214097880     A.U. after    8 cycles
 SCF Done:  E(RB3LYP) =  -622.214101247     A.U. after    8 cycles
 SCF Done:  E(RB3LYP) =  -622.214101223     A.U. after    7 cycles
 SCF Done:  E(RB3LYP) =  -622.214101283     A.U. after    6 cycles
 Optimization completed on the basis of negligible forces.
    -- Stationary point found.
 Normal termination of Gaussian 16 at Mon May 22 17:52:01 2023.

 ----------------------------------------------------------------------
 #N Geom=AllCheck Guess=TCheck SCRF=Check GenChk RB3LYP/6-31G(2df,p) Fr
 eq
 ----------------------------------------------------------------------

 Structure from the checkpoint file:  "CCCCCOCCC1COCC1C.chk"
 -------------------
 Title Card Required
 -------------------
 Charge =  0 Multiplicity = 1

                         Standard orientation:
 ---------------------------------------------------------------------
 Center     Atomic      Atomic             Coordinates (Angstroms)
 Number     Number       Type             X           Y           Z
 ---------------------------------------------------------------------
      1          6           0       -6.997587   -0.003335   -0.623644
      2          6           0       -5.778649    0.029691    0.301895
      3          6           0       -4.446435   -0.023595   -0.454031
      4          6           0       -3.225495    0.009383    0.470074
      5          6           0       -1.907103   -0.043834   -0.289675
      6          8           0       -0.844319   -0.007158    0.639124
      7          6           0        0.430644   -0.055525    0.035660
      8          6           0        1.472989    0.018392    1.148873
      9          6           0        2.937379   -0.152825    0.719851
     10          6           0        3.325644   -1.562673    0.232194
     11          8           0        4.416071   -1.409224   -0.676722
     12          6           0        4.722597   -0.028100   -0.824266
     13          6           0        3.455933    0.738050   -0.429747
     14          6           0        3.687259    2.201339   -0.063190
     15          1           0       -7.932430    0.035938   -0.055804
     16          1           0       -7.012668   -0.918362   -1.226379
     17          1           0       -6.992731    0.846334   -1.315636
     18          1           0       -5.828165   -0.812033    1.005129
     19          1           0       -5.808391    0.938961    0.916605
     20          1           0       -4.397412    0.818729   -1.158459
     21          1           0       -4.417158   -0.933586   -1.069771
     22          1           0       -3.259061   -0.834819    1.169679
     23          1           0       -3.239263    0.920391    1.080969
     24          1           0       -1.832715    0.806792   -0.990249
     25          1           0       -1.851489   -0.963348   -0.898863
     26          1           0        0.546683    0.784563   -0.669427
     27          1           0        0.537682   -0.981993   -0.553394
     28          1           0        1.222721   -0.749284    1.891343
     29          1           0        1.351861    0.980201    1.660288
     30          1           0        3.555405    0.074241    1.599707
     31          1           0        2.498097   -2.059279   -0.292923
     32          1           0        3.626644   -2.213397    1.063437
     33          1           0        5.033598    0.146561   -1.859829
     34          1           0        5.562099    0.256357   -0.166510
     35          1           0        2.754362    0.681357   -1.271999
     36          1           0        4.385441    2.288769    0.777365
     37          1           0        2.753440    2.693727    0.226703
     38          1           0        4.106381    2.762423   -0.905156
 ---------------------------------------------------------------------

 SCF Done:  E(RB3LYP) =  -622.214101283     A.U. after    1 cycles

 The electronic state is 1-A.
 Alpha  occ. eigenvalues --  -19.13494 -19.12596 -10.22517 -10.22287 -10.21904
 Alpha  occ. eigenvalues --  -10.21882 -10.18893 -10.18794 -10.18226 -10.17963
 Alpha  occ. eigenvalues --  -10.17885 -10.17839 -10.17595 -10.17166  -1.02955
 Alpha  occ. eigenvalues --   -1.02278  -0.81619  -0.80021  -0.76840  -0.74660
 Alpha  occ. eigenvalues --   -0.71215  -0.68102  -0.66096  -0.62089  -0.59493
 Alpha  occ. eigenvalues --   -0.58221  -0.57645  -0.55405  -0.50267  -0.49114
 Alpha  occ. eigenvalues --   -0.47763  -0.46790  -0.46199  -0.43856  -0.43740
 Alpha  occ. eigenvalues --   -0.43228  -0.41891  -0.41676  -0.40610  -0.40090
 Alpha  occ. eigenvalues --   -0.38839  -0.38527  -0.37018  -0.36238  -0.35597
 Alpha  occ. eigenvalues --   -0.33818  -0.33671  -0.33095  -0.32785  -0.32504
 Alpha  occ. eigenvalues --   -0.32122  -0.31155  -0.30413  -0.29323  -0.25295
 Alpha  occ. eigenvalues --   -0.23850
 Alpha virt. eigenvalues --    0.07249   0.08839   0.09197   0.10298   0.10799
 Alpha virt. eigenvalues --    0.11402   0.11945   0.12184   0.13432   0.13613
 Alpha virt. eigenvalues --    0.15067   0.15743   0.16130   0.16576   0.16737

 Mulliken charges:
               1
     1  C   -0.380175
     2  C   -0.162994
     3  C   -0.161573
     4  C   -0.196945
     5  C   -0.054786
     6  O   -0.246110
     7  C   -0.054664
     8  C   -0.246046
     9  C   -0.012110
    10  C   -0.087498
    11  O   -0.264479
    12  C   -0.076248
    13  C    0.006487
    14  C   -0.418663
    15  H    0.111464
    16  H    0.113192
    17  H    0.112935
    18  H    0.095730
    19  H    0.095455
    20  H    0.092268
    21  H    0.092770
    22  H    0.103440
    23  H    0.102973
    24  H    0.081038
    25  H    0.082175
    26  H    0.084913
    27  H    0.088298
    28  H    0.108660
    29  H    0.107337
    30  H    0.073996
    31  H    0.095869
    32  H    0.096795
    33  H    0.101098
    34  H    0.081214
    35  H    0.079898
    36  H    0.116806
    37  H    0.120469
    38  H    0.117011
 Sum of Mulliken charges =  -0.00000

 Dipole moment (field-independent basis, Debye):
    X=             -0.9358    Y=              1.2604    Z=             -0.1397  Tot=              1.5760
 Quadrupole moment (field-independent basis, Debye-Ang):
   XX=            -92.9473   YY=            -90.2429   ZZ=            -89.7302
   XY=              7.1440   XZ=              3.6792   YZ=             -2.3064

  Exact polarizability: 172.849   3.030 125.264  -1.309  -2.279 119.880
 Approx polarizability: 191.144   2.581 185.153  -1.502  -1.642 184.469

                      1                      2                      3
                      A                      A                      A
 Frequencies --     20.0842                31.4708                37.7041
 Red. masses --      3.4428                 1.8696                 4.0809
 Frc consts  --      0.0008                 0.0011                 0.0034
 IR Inten    --      0.4375                 0.4244                 1.1437

                      4                      5                      6
                      A                      A                      A
 Frequencies --     51.4524                76.7499                86.4739
 Red. masses --      3.5105                 3.0554                 1.9106
 Frc consts  --      0.0055                 0.0106                 0.0084
 IR Inten    --      1.0022                 0.8847                 0.7802

                      7                      8                      9
                      A                      A                      A
 Frequencies --    112.5762               128.4558               140.9714
 Red. masses --      2.7803                 2.4314                 2.1204
 Frc consts  --      0.0208                 0.0236                 0.0248
 IR Inten    --      1.4402                 1.1335                 0.6143

                     10                     11                     12
                      A                      A                      A
 Frequencies --    154.0107               170.4422               177.5685
 Red. masses --      2.3472                 2.7444                 3.4590
 Frc consts  --      0.0328                 0.0470                 0.0643
 IR Inten    --      0.7237                 1.2997                 0.3500

                     13                     14                     15
                      A                      A                      A
 Frequencies --    220.9768               241.5126               246.9314
 Red. masses --      1.1046                 2.2048                 1.1206
 Frc consts  --      0.0318                 0.0758                 0.0403
 IR Inten    --      0.0287                 0.3951                 0.0109

                     16                     17                     18
                      A                      A                      A
 Frequencies --    282.7055               330.8294               348.0257
 Red. masses --      3.1924                 3.1779                 2.5466
 Frc consts  --      0.1503                 0.2049                 0.1817
 IR Inten    --      0.0488                 0.9900                 0.5302

                     19                     20                     21
                      A                      A                      A
 Frequencies --    389.0289               459.6157               498.7532
 Red. masses --      2.7162                 3.6382                 3.0212
 Frc consts  --      0.2422                 0.4528                 0.4428
 IR Inten    --      0.2169                 1.9721                 1.8400

                     22                     23                     24
                      A                      A                      A
 Frequencies --    537.0391               636.0058               667.2537
 Red. masses --      3.2306                 3.2361                 4.6773
 Frc consts  --      0.5490                 0.7712                 1.2270
 IR Inten    --      1.0790                 2.8743                 9.1526

                     25                     26                     27
                      A                      A                      A
 Frequencies --    736.4367               772.8330               775.4678
 Red. masses --      1.0679                 1.1902                 1.4176
 Frc consts  --      0.3412                 0.4188                 0.5023
 IR Inten    --      3.2622                 0.0598                 0.0395

                     28                     29                     30
                      A                      A                      A
 Frequencies --    802.8296               862.3565               898.7295
 Red. masses --      1.7679                 1.1676                 1.9549
 Frc consts  --      0.6714                 0.5116                 0.9303
 IR Inten    --      1.8936                 0.0943                 1.1704

                     31                     32                     33
                      A                      A                      A
 Frequencies --    905.0002               942.8233               955.0443
 Red. masses --      1.6969                 2.5441                 1.9651
 Frc consts  --      0.8188                 1.3324                 1.0560
 IR Inten    --      4.3797                11.5630                12.8332

                     34                     35                     36
                      A                      A                      A
 Frequencies --    974.6872               983.9408               986.4225
 Red. masses --      1.7421                 1.3656                 1.1626
 Frc consts  --      0.9751                 0.7790                 0.6665
 IR Inten    --      3.5821                 2.7629                 0.5753

                     37                     38                     39
                      A                      A                      A
 Frequencies --   1002.3761              1010.1442              1039.7675
 Red. masses --      1.9837                 4.0747                 2.7481
 Frc consts  --      1.1743                 2.4497                 1.7505
 IR Inten    --      7.7632                 6.6022                14.3950

                     40                     41                     42
                      A                      A                      A
 Frequencies --   1061.4659              1069.1173              1079.7263
 Red. masses --      2.5153                 2.2404                 4.3873
 Frc consts  --      1.6697                 1.5088                 3.0135
 IR Inten    --      3.9211                 1.0096                70.5017

                     43                     44                     45
                      A                      A                      A
 Frequencies --   1112.7436              1125.2756              1145.5409
 Red. masses --      2.7906                 2.8526                 2.7324
 Frc consts  --      2.0358                 2.1282                 2.1126
 IR Inten    --     15.7623                18.2630                 5.1594

                     46                     47                     48
                      A                      A                      A
 Frequencies --   1155.8502              1159.4206              1164.6628
 Red. masses --      2.6266                 5.6452                 1.7613
 Frc consts  --      2.0675                 4.4711                 1.4076
 IR Inten    --     50.2576               239.7629                 7.6636

                     49                     50                     51
                      A                      A                      A
 Frequencies --   1173.7134              1197.2572              1212.8087
 Red. masses --      2.1876                 1.6966                 1.3204
 Frc consts  --      1.7756                 1.4329                 1.1443
 IR Inten    --     17.8647                 1.6716                 0.9024

                     52                     53                     54
                      A                      A                      A
 Frequencies --   1237.9993              1242.6561              1257.6075
 Red. masses --      1.2999                 1.2452                 1.2382
 Frc consts  --      1.1738                 1.1329                 1.1538
 IR Inten    --      0.5545                 0.8824                 4.2564

                     55                     56                     57
                      A                      A                      A
 Frequencies --   1271.4315              1297.0063              1298.2425
 Red. masses --      1.3156                 1.3043                 1.2110
 Frc consts  --      1.2530                 1.2928                 1.2026
 IR Inten    --      4.5590                 2.2712                 0.8929

                     58                     59                     60
                      A                      A                      A
 Frequencies --   1316.8195              1318.6677              1325.7002
 Red. masses --      1.0923                 1.2326                 1.3117
 Frc consts  --      1.1159                 1.2628                 1.3583
 IR Inten    --      0.0954                 0.5963                 3.8567

                     61                     62                     63
                      A                      A                      A
 Frequencies --   1333.3043              1335.5136              1348.4895
 Red. masses --      1.0848                 1.2904                 1.2652
 Frc consts  --      1.1363                 1.3561                 1.3556
 IR Inten    --      0.1615                 2.3446                 6.0294

                     64                     65                     66
                      A                      A                      A
 Frequencies --   1355.1566              1373.7673              1390.3987
 Red. masses --      1.3728                 1.2853                 1.4275
 Frc consts  --      1.4854                 1.4292                 1.6260
 IR Inten    --      3.0272                 9.2024                 5.0436

                     67                     68                     69
                      A                      A                      A
 Frequencies --   1399.6247              1408.4922              1411.9031
 Red. masses --      1.5425                 1.3827                 1.2992
 Frc consts  --      1.7803                 1.6161                 1.5260
 IR Inten    --      6.9242                21.0116                 1.8277

                     70                     71                     72
                      A                      A                      A
 Frequencies --   1414.4284              1425.8109              1456.5211
 Red. masses --      1.2855                 1.4246                 1.5040
 Frc consts  --      1.5152                 1.7063                 1.8799
 IR Inten    --      6.5947                 3.2141                 3.7265

                     73                     74                     75
                      A                      A                      A
 Frequencies --   1485.0533              1489.0264              1490.4313
 Red. masses --      1.0673                 1.0741                 1.0775
 Frc consts  --      1.3868                 1.4031                 1.4103
 IR Inten    --      0.1783                 0.2446                 4.5017

                     76                     77                     78
                      A                      A                      A
 Frequencies --   1496.2231              1499.9363              1500.2938
 Red. masses --      1.0549                 1.0404                 1.0721
 Frc consts  --      1.3914                 1.3791                 1.4218
 IR Inten    --      2.1976                 5.1142                 2.5040

                     79                     80                     81
                      A                      A                      A
 Frequencies --   1502.7297              1511.3716              1518.4978
 Red. masses --      1.0520                 1.0854                 1.0888
 Frc consts  --      1.3996                 1.4608                 1.4792
 IR Inten    --      4.9613                 2.6694                 8.4942

                     82                     83                     84
                      A                      A                      A
 Frequencies --   1521.1260              1532.9284              1537.9166
 Red. masses --      1.0857                 1.0926                 1.0941
 Frc consts  --      1.4801                 1.5126                 1.5247
 IR Inten    --      2.3854                 1.1042                 0.7161

                     85                     86                     87
                      A                      A                      A
 Frequencies --   2938.2221              2952.9991              2956.4785
 Red. masses --      1.0537                 1.0713                 1.0546
 Frc consts  --      5.3595                 5.5043                 5.4311
 IR Inten    --     30.6381                74.1263                61.3623

                     88                     89                     90
                      A                      A                      A
 Frequencies --   2964.5499              2976.4172              2997.1054
 Red. masses --      1.1045                 1.1033                 1.0824
 Frc consts  --      5.7190                 5.7586                 5.7287
 IR Inten    --     52.9281                26.3940                 2.4779

                     91                     92                     93
                      A                      A                      A
 Frequencies --   3001.6667              3004.1638              3015.6567
 Red. masses --      1.0577                 1.0588                 1.0592
 Frc consts  --      5.6150                 5.6302                 5.6755
 IR Inten    --     11.2369                72.4076                22.0343

                     94                     95                     96
                      A                      A                      A
 Frequencies --   3024.9361              3025.9771              3027.8720
 Red. masses --      1.0759                 1.0995                 1.0444
 Frc consts  --      5.8002                 5.9316                 5.6416
 IR Inten    --      6.4767                 1.9105                31.4022

                     97                     98                     99
                      A                      A                      A
 Frequencies --   3028.2016              3030.2275              3032.6531
 Red. masses --      1.0371                 1.0574                 1.0716
 Frc consts  --      5.6030                 5.7208                 5.8064
 IR Inten    --     23.4517                55.2379                21.3052

                    100                    101                    102
                      A                      A                      A
 Frequencies --   3040.0067              3049.9558              3063.5591
 Red. masses --      1.0912                 1.1034                 1.0924
 Frc consts  --      5.9415                 6.0476                 6.0405
 IR Inten    --     93.4482                10.0042                43.9674

                    103                    104                    105
                      A                      A                      A
 Frequencies --   3069.9007              3074.2972              3094.4675
 Red. masses --      1.1028                 1.1049                 1.1008
 Frc consts  --      6.1236                 6.1528                 6.2105
 IR Inten    --     29.7941                53.7541                34.7153

                    106                    107                    108
                      A                      A                      A
 Frequencies --   3094.6183              3098.4118              3100.6516
 Red. masses --      1.1021                 1.1009                 1.1009
 Frc consts  --      6.2185                 6.2272                 6.2358
 IR Inten    --     66.4592                29.4178                38.1089

 - Thermochemistry -
 -------------------
 Temperature   298.150 Kelvin.  Pressure   1.00000 Atm.
 Atom     1 has atomic number  6 and mass  12.00000

 Molecular mass:   200.17763 amu.
 Principal axes and moments of inertia in atomic units:
                           1         2         3
     Eigenvalues --   911.69820********************
           X            0.99997   0.00713   0.00400
           Y           -0.00700   0.99950  -0.03079
           Z           -0.00421   0.03076   0.99952
 This molecule is an asymmetric top.
 Rotational symmetry number  1.
 Warning -- assumption of classical behavior for rotation
           may cause significant error
 Rotational temperatures (Kelvin)      0.09500     0.00786     0.00766
 Rotational constants (GHZ):           1.97954     0.16377     0.15970
 Zero-point vibrational energy     911082.8 (Joules/Mol)
                                  217.75402 (Kcal/Mol)
 Warning -- explicit consideration of  22 degrees of freedom as
           vibrations may cause significant error
 Vibrational temperatures:     28.90    45.28    54.25    74.03   110.43
          (Kelvin)            124.42   161.97   184.82   202.83   221.59
                              245.23   255.48   317.94   347.48   355.28
                              406.75   475.99   500.73   559.73   661.28
                              717.59   772.68   915.07   960.03  1059.57
                             1111.93  1115.73  1155.09  1240.74  1293.07
                             1302.09  1356.51  1374.10  1402.36  1415.67
                             1419.24  1442.20  1453.37  1495.99  1527.21
                             1538.22  1553.49  1600.99  1619.02  1648.18
                             1663.01  1668.15  1675.69  1688.71  1722.59
                             1744.96  1781.20  1787.90  1809.42  1829.31
                             1866.10  1867.88  1894.61  1897.27  1907.39
                             1918.33  1921.51  1940.18  1949.77  1976.54
                             2000.47  2013.75  2026.51  2031.41  2035.05
                             2051.42  2095.61  2136.66  2142.38  2144.40
                             2152.73  2158.07  2158.59  2162.09  2174.53
                             2184.78  2188.56  2205.54  2212.72  4227.45
                             4248.71  4253.71  4265.33  4282.40  4312.17
                             4318.73  4322.32  4338.86  4352.21  4353.71
                             4356.43  4356.91  4359.82  4363.31  4373.89
                             4388.21  4407.78  4416.90  4423.23  4452.25
                             4452.47  4457.92  4461.15

 Zero-point correction=                           0.347013 (Hartree/Particle)
 Thermal correction to Energy=                    0.364071
 Thermal correction to Enthalpy=                  0.365016
 Thermal correction to Gibbs Free Energy=         0.299394
 Sum of electronic and zero-point Energies=           -621.867088
 Sum of electronic and thermal Energies=              -621.850030
 Sum of electronic and thermal Enthalpies=            -621.849086
 Sum of electronic and thermal Free Energies=         -621.914707

                     E (Thermal)             CV                S
                      KCal/Mol        Cal/Mol-Kelvin    Cal/Mol-Kelvin
 Total                  228.458             60.717            138.113
 Electronic               0.000              0.000              0.000
 Translational            0.889              2.981             41.787
 Rotational               0.889              2.981             33.095
 Vibrational            226.681             54.755             63.231
 Vibration     1          0.593              1.986              6.626
 Vibration     2          0.594              1.983              5.734
 Vibration     3          0.594              1.982              5.376
 Vibration     4          0.596              1.977              4.761
 Vibration     5          0.599              1.965              3.972
 Vibration     6          0.601              1.959              3.738
 Vibration     7          0.607              1.939              3.224
 Vibration     8          0.611              1.925              2.969
 Vibration     9          0.615              1.912              2.791
 Vibration    10          0.620              1.898              2.622
 Vibration    11          0.626              1.879              2.431
 Vibration    12          0.628              1.870              2.354
 Vibration    13          0.648              1.809              1.951
 Vibration    14          0.658              1.777              1.792
 Vibration    15          0.661              1.768              1.752
 Vibration    16          0.682              1.706              1.517
 Vibration    17          0.713              1.614              1.256
 Vibration    18          0.726              1.579              1.175
 Vibration    19          0.757              1.494              1.004
 Vibration    20          0.818              1.340              0.767
 Vibration    21          0.854              1.253              0.661
 Vibration    22          0.892              1.168              0.572

 Optimization completed on the basis of negligible forces.
    -- Stationary point found.
 Normal termination of Gaussian 16 at Mon May 22 20:10:40 2023.
