 Gaussian 16, Revision A.03,
 Gaussian 16:  ES64L-G16RevA.03 25-Dec-2016

 -----------------------------
 # opt freq b3lyp/6-31g(2df,p)
 -----------------------------

 -------------------
 Title Card Required
 -------------------
 Symbolic Z-matrix:
 Charge =  0 Multiplicity = 1

 SCF Done:  E(RB3LYP) =  -659.875688118     A.U. after   12 cycles
 SCF Done:  E(RB3LYP) =  -659.886392244     A.U. after   11 cycles
 SCF Done:  E(RB3LYP) =  -659.888355457     A.U. after   11 cycles
 SCF Done:  E(RB3LYP) =  -659.889456507     A.U. after   11 cycles
 SCF Done:  E(RB3LYP) =  -659.891244841     A.U. after   11 cycles
 SCF Done:  E(RB3LYP) =  -659.892375022     A.U. after   11 cycles
 SCF Done:  E(RB3LYP) =  -659.892546543     A.U. after   11 cycles
 SCF Done:  E(RB3LYP) =  -659.892997619     A.U. after    9 cycles
 SCF Done:  E(RB3LYP) =  -659.893522054     A.U. after    9 cycles
 SCF Done:  E(RB3LYP) =  -659.895555845     A.U. after   11 cycles
 SCF Done:  E(RB3LYP) =  -659.898408042     A.U. after   10 cycles
 SCF Done:  E(RB3LYP) =  -659.899119836     A.U. after   13 cycles
 SCF Done:  E(RB3LYP) =  -659.898926966     A.U. after   11 cycles
 SCF Done:  E(RB3LYP) =  -659.899320981     A.U. after   11 cycles
 SCF Done:  E(RB3LYP) =  -659.899348952     A.U. after   10 cycles
 SCF Done:  E(RB3LYP) =  -659.899344242     A.U. after    9 cycles
 SCF Done:  E(RB3LYP) =  -659.899350763     A.U. after    9 cycles
 SCF Done:  E(RB3LYP) =  -659.899350928     A.U. after    6 cycles
 SCF Done:  E(RB3LYP) =  -659.899351036     A.U. after    7 cycles
 Optimization completed.
    -- Stationary point found.
 Normal termination of Gaussian 16 at Tue May 23 07:03:49 2023.

 ----------------------------------------------------------------------
 #N Geom=AllCheck Guess=TCheck SCRF=Check GenChk RB3LYP/6-31G(2df,p) Fr
 eq
 ----------------------------------------------------------------------

 Structure from the checkpoint file:  "CCCCCNCCCCdC1CCCCN1.chk"
 -------------------
 Title Card Required
 -------------------
 Charge =  0 Multiplicity = 1

                         Standard orientation:
 ---------------------------------------------------------------------
 Center     Atomic      Atomic             Coordinates (Angstroms)
 Number     Number       Type             X           Y           Z
 ---------------------------------------------------------------------
      1          6           0       -8.381492    0.658202    0.023965
      2          6           0       -7.010432    0.645798    0.705137
      3          6           0       -5.881082    0.178689   -0.219625
      4          6           0       -4.506268    0.168214    0.455416
      5          6           0       -3.384084   -0.307668   -0.466980
      6          7           0       -2.089846   -0.263340    0.202941
      7          6           0       -0.986100   -0.745855   -0.618907
      8          6           0        0.333702   -0.726179    0.151508
      9          6           0        1.534399   -1.188204   -0.694673
     10          6           0        2.813381   -1.259638    0.090707
     11          6           0        3.938997   -0.549446   -0.085151
     12          6           0        4.135172    0.541152   -1.114719
     13          6           0        4.848830    1.767963   -0.519294
     14          6           0        6.144896    1.343520    0.177910
     15          6           0        5.840738    0.287071    1.238671
     16          7           0        5.111658   -0.836342    0.642319
     17          1           0       -9.166309    0.995306    0.708479
     18          1           0       -8.656417   -0.341434   -0.331054
     19          1           0       -8.386492    1.327821   -0.843451
     20          1           0       -7.045941   -0.004847    1.589140
     21          1           0       -6.777595    1.651279    1.079927
     22          1           0       -5.846940    0.829097   -1.104980
     23          1           0       -6.113784   -0.827961   -0.594462
     24          1           0       -4.543374   -0.481441    1.342329
     25          1           0       -4.257385    1.171823    0.821389
     26          1           0       -3.329535    0.350406   -1.345354
     27          1           0       -3.629914   -1.315920   -0.856638
     28          1           0       -2.137522   -0.820704    1.051797
     29          1           0       -0.908601   -0.087542   -1.495630
     30          1           0       -1.164032   -1.764550   -1.018415
     31          1           0        0.246861   -1.374239    1.035772
     32          1           0        0.514247    0.285982    0.530451
     33          1           0        1.639433   -0.525994   -1.560609
     34          1           0        1.304343   -2.182101   -1.108412
     35          1           0        2.817085   -2.005311    0.888108
     36          1           0        3.178545    0.836050   -1.548983
     37          1           0        4.752661    0.141693   -1.931548
     38          1           0        4.186752    2.256013    0.208271
     39          1           0        5.051505    2.501481   -1.306967
     40          1           0        6.639918    2.201601    0.644986
     41          1           0        6.840229    0.923282   -0.559282
     42          1           0        5.269619    0.758107    2.059416
     43          1           0        6.767903   -0.103045    1.671681
     44          1           0        4.958107   -1.578779    1.313432
 ---------------------------------------------------------------------

 SCF Done:  E(RB3LYP) =  -659.899351036     A.U. after    1 cycles

 The electronic state is 1-A.
 Alpha  occ. eigenvalues --  -14.31939 -14.30106 -10.20636 -10.20012 -10.19416
 Alpha  occ. eigenvalues --  -10.19314 -10.17906 -10.17835 -10.17753 -10.17483
 Alpha  occ. eigenvalues --  -10.17344 -10.17330 -10.17164 -10.16941 -10.16884
 Alpha  occ. eigenvalues --  -10.15398  -0.91614  -0.89281  -0.79570  -0.78625
 Alpha  occ. eigenvalues --   -0.78508  -0.75598  -0.73343  -0.69364  -0.65657
 Alpha  occ. eigenvalues --   -0.63369  -0.62536  -0.59078  -0.58487  -0.57116
 Alpha  occ. eigenvalues --   -0.56588  -0.53122  -0.49153  -0.48298  -0.46638
 Alpha  occ. eigenvalues --   -0.45712  -0.44724  -0.44001  -0.43289  -0.42664
 Alpha  occ. eigenvalues --   -0.41759  -0.40969  -0.40735  -0.40350  -0.39465
 Alpha  occ. eigenvalues --   -0.38424  -0.38087  -0.36850  -0.35504  -0.34966
 Alpha  occ. eigenvalues --   -0.34462  -0.33532  -0.33168  -0.32958  -0.32456
 Alpha  occ. eigenvalues --   -0.32427  -0.32046  -0.31599  -0.30807  -0.30404
 Alpha  occ. eigenvalues --   -0.27208  -0.21248  -0.18655
 Alpha virt. eigenvalues --    0.04265   0.08748   0.09149   0.09684   0.10314
 Alpha virt. eigenvalues --    0.11466   0.12021   0.12645   0.12846   0.13004
 Alpha virt. eigenvalues --    0.13563   0.14291   0.15222   0.15600   0.16091

 Mulliken charges:
               1
     1  C   -0.379423
     2  C   -0.162587
     3  C   -0.156110
     4  C   -0.196281
     5  C   -0.120329
     6  N   -0.299432
     7  C   -0.118127
     8  C   -0.180565
     9  C   -0.250504
    10  C   -0.207486
    11  C    0.352833
    12  C   -0.270866
    13  C   -0.195209
    14  C   -0.174998
    15  C   -0.150563
    16  N   -0.342941
    17  H    0.109774
    18  H    0.112211
    19  H    0.112790
    20  H    0.092552
    21  H    0.094630
    22  H    0.091900
    23  H    0.090717
    24  H    0.084944
    25  H    0.104182
    26  H    0.097076
    27  H    0.069076
    28  H    0.205347
    29  H    0.096154
    30  H    0.068845
    31  H    0.083507
    32  H    0.104659
    33  H    0.094590
    34  H    0.094175
    35  H    0.051342
    36  H    0.102296
    37  H    0.107975
    38  H    0.097114
    39  H    0.091658
    40  H    0.091610
    41  H    0.101026
    42  H    0.084370
    43  H    0.097401
    44  H    0.220671
 Sum of Mulliken charges =  -0.00000

 Dipole moment (field-independent basis, Debye):
    X=              0.4202    Y=             -0.1484    Z=              0.6588  Tot=              0.7954
 Quadrupole moment (field-independent basis, Debye-Ang):
   XX=            -98.0555   YY=           -101.6251   ZZ=           -100.3501
   XY=              4.3519   XZ=              3.3545   YZ=             -3.6261

  Exact polarizability: 233.044  12.296 147.484   6.293  -3.810 143.197
 Approx polarizability: 258.494  17.876 224.270   4.190  -6.688 218.650

                      1                      2                      3
                      A                      A                      A
 Frequencies --     14.0094                25.5517                33.4595
 Red. masses --      3.8194                 2.1668                 2.8308
 Frc consts  --      0.0004                 0.0008                 0.0019
 IR Inten    --      0.0717                 0.2841                 0.2567

                      4                      5                      6
                      A                      A                      A
 Frequencies --     41.0807                67.0955                76.6506
 Red. masses --      2.9305                 3.2924                 2.0954
 Frc consts  --      0.0029                 0.0087                 0.0073
 IR Inten    --      0.1094                 0.8314                 0.5994

                      7                      8                      9
                      A                      A                      A
 Frequencies --     96.2120               110.3864               126.8619
 Red. masses --      2.0998                 3.3597                 2.0074
 Frc consts  --      0.0115                 0.0241                 0.0190
 IR Inten    --      0.4259                 1.3665                 0.1989

                     10                     11                     12
                      A                      A                      A
 Frequencies --    152.1665               160.6389               170.4229
 Red. masses --      2.1385                 2.9391                 2.2709
 Frc consts  --      0.0292                 0.0447                 0.0389
 IR Inten    --      2.3569                 0.0401                 1.1745

                     13                     14                     15
                      A                      A                      A
 Frequencies --    191.9663               202.9109               247.2012
 Red. masses --      3.8117                 2.5251                 1.1180
 Frc consts  --      0.0828                 0.0613                 0.0403
 IR Inten    --      0.1275                 1.4058                 0.0027

                     16                     17                     18
                      A                      A                      A
 Frequencies --    254.3594               287.8520               317.6019
 Red. masses --      2.5667                 3.0451                 1.9332
 Frc consts  --      0.0978                 0.1487                 0.1149
 IR Inten    --      0.9607                 1.1003                 3.7754

                     19                     20                     21
                      A                      A                      A
 Frequencies --    345.6825               385.6123               439.9080
 Red. masses --      3.3858                 2.9835                 2.8766
 Frc consts  --      0.2384                 0.2614                 0.3280
 IR Inten    --      0.7492                 2.5973                 0.7529

                     22                     23                     24
                      A                      A                      A
 Frequencies --    446.1933               491.1019               507.0228
 Red. masses --      2.8493                 2.8692                 2.9120
 Frc consts  --      0.3342                 0.4077                 0.4411
 IR Inten    --      1.8910                 3.3250                 6.9737

                     25                     26                     27
                      A                      A                      A
 Frequencies --    516.2276               556.3282               634.2261
 Red. masses --      2.1226                 2.7706                 2.0450
 Frc consts  --      0.3333                 0.5052                 0.4846
 IR Inten    --      9.0630                 8.0343                10.7953

                     28                     29                     30
                      A                      A                      A
 Frequencies --    733.7495               735.3248               753.2294
 Red. masses --      1.6350                 1.0713                 1.1994
 Frc consts  --      0.5186                 0.3413                 0.4009
 IR Inten    --     61.8775                 4.4666                 9.7933

                     31                     32                     33
                      A                      A                      A
 Frequencies --    769.1162               774.1991               783.8798
 Red. masses --      1.1409                 2.0365                 1.2494
 Frc consts  --      0.3976                 0.7192                 0.4523
 IR Inten    --      0.7724                 1.7627                64.8429

                     34                     35                     36
                      A                      A                      A
 Frequencies --    837.7070               849.8930               858.7868
 Red. masses --      1.4245                 1.6904                 1.2788
 Frc consts  --      0.5890                 0.7194                 0.5557
 IR Inten    --      1.3458                 8.5320                 9.5010

                     37                     38                     39
                      A                      A                      A
 Frequencies --    868.8765               877.9897               900.1386
 Red. masses --      1.7536                 1.5134                 1.8725
 Frc consts  --      0.7800                 0.6873                 0.8939
 IR Inten    --     10.5815                 3.8991                 2.8839

                     40                     41                     42
                      A                      A                      A
 Frequencies --    925.0955               941.1906               981.5482
 Red. masses --      2.1667                 1.4426                 1.3302
 Frc consts  --      1.0925                 0.7529                 0.7551
 IR Inten    --      4.7036                 2.8475                 2.4544

                     43                     44                     45
                      A                      A                      A
 Frequencies --    995.2269              1007.9845              1018.8775
 Red. masses --      2.0947                 3.4861                 3.5309
 Frc consts  --      1.2224                 2.0869                 2.1597
 IR Inten    --      0.2583                 0.4162                 0.9467

                     46                     47                     48
                      A                      A                      A
 Frequencies --   1036.8590              1059.4007              1064.7942
 Red. masses --      2.9279                 2.5514                 2.1478
 Frc consts  --      1.8546                 1.6871                 1.4347
 IR Inten    --      1.6176                 4.1298                 0.6383

                     49                     50                     51
                      A                      A                      A
 Frequencies --   1068.9161              1071.9361              1085.9579
 Red. masses --      1.9177                 2.0224                 2.1808
 Frc consts  --      1.2910                 1.3692                 1.5153
 IR Inten    --      2.0828                 2.1553                 2.4028

                     52                     53                     54
                      A                      A                      A
 Frequencies --   1089.7177              1118.6664              1128.1159
 Red. masses --      1.9585                 1.7316                 1.4581
 Frc consts  --      1.3702                 1.2767                 1.0933
 IR Inten    --      4.1181                 2.2740                13.5040

                     55                     56                     57
                      A                      A                      A
 Frequencies --   1148.6834              1155.8102              1161.0372
 Red. masses --      2.3718                 3.8842                 2.1150
 Frc consts  --      1.8438                 3.0572                 1.6798
 IR Inten    --      8.8951                76.4490                52.1380

                     58                     59                     60
                      A                      A                      A
 Frequencies --   1172.6724              1194.7914              1219.6569
 Red. masses --      1.5079                 1.3492                 1.7127
 Frc consts  --      1.2218                 1.1347                 1.5011
 IR Inten    --      3.1443                 1.4687                 0.8133

                     61                     62                     63
                      A                      A                      A
 Frequencies --   1247.9883              1253.1335              1267.8173
 Red. masses --      1.4218                 1.2945                 1.3952
 Frc consts  --      1.3047                 1.1977                 1.3213
 IR Inten    --      3.9530                45.2487                16.1019

                     64                     65                     66
                      A                      A                      A
 Frequencies --   1281.9547              1287.2212              1291.9544
 Red. masses --      1.2539                 1.2682                 1.2902
 Frc consts  --      1.2141                 1.2381                 1.2688
 IR Inten    --     12.8541                 9.2710                17.3018

                     67                     68                     69
                      A                      A                      A
 Frequencies --   1302.1262              1313.6541              1317.1117
 Red. masses --      1.5607                 1.2164                 1.0924
 Frc consts  --      1.5591                 1.2368                 1.1166
 IR Inten    --     40.2892                 3.2364                 1.3835

                     70                     71                     72
                      A                      A                      A
 Frequencies --   1322.2154              1333.2265              1335.7603
 Red. masses --      1.0637                 1.0999                 1.2514
 Frc consts  --      1.0957                 1.1519                 1.3155
 IR Inten    --      0.9370                 0.2384                 7.0436

                     73                     74                     75
                      A                      A                      A
 Frequencies --   1344.2117              1359.6890              1363.7095
 Red. masses --      1.3033                 1.3314                 1.3963
 Frc consts  --      1.3875                 1.4502                 1.5299
 IR Inten    --      2.5716                11.0814                 1.7187

                     76                     77                     78
                      A                      A                      A
 Frequencies --   1372.6338              1384.4184              1389.2298
 Red. masses --      1.4574                 1.4829                 1.4785
 Frc consts  --      1.6179                 1.6745                 1.6812
 IR Inten    --     42.8569                12.4385                11.6208

                     79                     80                     81
                      A                      A                      A
 Frequencies --   1400.6605              1412.9763              1422.9193
 Red. masses --      1.6135                 1.2456                 1.7536
 Frc consts  --      1.8651                 1.4652                 2.0919
 IR Inten    --      1.1348                 1.1192                 4.2191

                     82                     83                     84
                      A                      A                      A
 Frequencies --   1428.9300              1468.9364              1481.7944
 Red. masses --      1.5373                 1.0962                 1.0861
 Frc consts  --      1.8494                 1.3936                 1.4051
 IR Inten    --      0.3914                 3.3320                 2.3884

                     85                     86                     87
                      A                      A                      A
 Frequencies --   1484.1691              1484.5546              1487.3973
 Red. masses --      1.0707                 1.0844                 1.0757
 Frc consts  --      1.3896                 1.4081                 1.4022
 IR Inten    --      0.5423                 3.5356                 0.2901

                     88                     89                     90
                      A                      A                      A
 Frequencies --   1492.5318              1493.5073              1496.0438
 Red. masses --      1.2251                 1.1361                 1.0909
 Frc consts  --      1.6080                 1.4931                 1.4386
 IR Inten    --     27.3080                 6.7844                12.0746

                     91                     92                     93
                      A                      A                      A
 Frequencies --   1499.0372              1499.6306              1499.8410
 Red. masses --      1.2459                 1.1435                 1.0405
 Frc consts  --      1.6495                 1.5152                 1.3790
 IR Inten    --      4.9835                 7.7132                 5.0059

                     94                     95                     96
                      A                      A                      A
 Frequencies --   1510.6834              1513.2228              1516.6598
 Red. masses --      1.0848                 1.0944                 1.0943
 Frc consts  --      1.4586                 1.4765                 1.4830
 IR Inten    --      3.9883                 1.7327                 5.2959

                     97                     98                     99
                      A                      A                      A
 Frequencies --   1527.4280              1728.7164              2895.2657
 Red. masses --      1.0917                 6.5940                 1.0731
 Frc consts  --      1.5007                11.6103                 5.2997
 IR Inten    --      0.4432                85.4943                20.3638

                    100                    101                    102
                      A                      A                      A
 Frequencies --   2901.4191              2932.1869              2986.8962
 Red. masses --      1.0731                 1.0728                 1.0705
 Frc consts  --      5.3226                 5.4345                 5.6269
 IR Inten    --    133.6535                78.8040                44.3271

                    103                    104                    105
                      A                      A                      A
 Frequencies --   2998.4271              3002.4220              3002.8647
 Red. masses --      1.0643                 1.0632                 1.0679
 Frc consts  --      5.6376                 5.6470                 5.6734
 IR Inten    --      1.5415                 3.2744                16.5400

                    106                    107                    108
                      A                      A                      A
 Frequencies --   3009.1991              3014.7290              3019.0559
 Red. masses --      1.0709                 1.0633                 1.0806
 Frc consts  --      5.7136                 5.6940                 5.8030
 IR Inten    --     13.6123                33.4705                 4.1011

                    109                    110                    111
                      A                      A                      A
 Frequencies --   3020.7522              3022.4840              3026.4054
 Red. masses --      1.0634                 1.0824                 1.0900
 Frc consts  --      5.7170                 5.8260                 5.8820
 IR Inten    --     28.7650                73.4854                15.1171

                    112                    113                    114
                      A                      A                      A
 Frequencies --   3027.8875              3028.7044              3046.8438
 Red. masses --      1.0382                 1.0613                 1.1005
 Frc consts  --      5.6080                 5.7357                 6.0193
 IR Inten    --     50.3071                21.1225                 4.2294

                    115                    116                    117
                      A                      A                      A
 Frequencies --   3057.3386              3060.9696              3065.3635
 Red. masses --      1.0857                 1.0885                 1.1017
 Frc consts  --      5.9791                 6.0088                 6.0991
 IR Inten    --     10.7036                57.5851                66.8323

                    118                    119                    120
                      A                      A                      A
 Frequencies --   3069.1666              3074.4840              3078.5849
 Red. masses --      1.0965                 1.0974                 1.1042
 Frc consts  --      6.0856                 6.1117                 6.1660
 IR Inten    --     55.1974                41.2571                46.9356

                    121                    122                    123
                      A                      A                      A
 Frequencies --   3093.9704              3098.7435              3099.4451
 Red. masses --      1.1020                 1.0869                 1.1009
 Frc consts  --      6.2156                 6.1493                 6.2312
 IR Inten    --     60.4492                38.4244                40.2674

                    124                    125                    126
                      A                      A                      A
 Frequencies --   3110.8555              3491.9607              3550.7032
 Red. masses --      1.0905                 1.0731                 1.0743
 Frc consts  --      6.2176                 7.7093                 7.9797
 IR Inten    --     32.8866                 0.8685                 1.1870

 - Thermochemistry -
 -------------------
 Temperature   298.150 Kelvin.  Pressure   1.00000 Atm.
 Atom     1 has atomic number  6 and mass  12.00000

 Molecular mass:   224.22525 amu.
 Principal axes and moments of inertia in atomic units:
                           1         2         3
     Eigenvalues --  1038.42416********************
           X            1.00000   0.00173   0.00032
           Y           -0.00173   0.99994  -0.01087
           Z           -0.00034   0.01087   0.99994
 This molecule is an asymmetric top.
 Rotational symmetry number  1.
 Warning -- assumption of classical behavior for rotation
           may cause significant error
 Rotational temperatures (Kelvin)      0.08341     0.00468     0.00461
 Rotational constants (GHZ):           1.73796     0.09753     0.09605
 Zero-point vibrational energy    1068823.8 (Joules/Mol)
                                  255.45502 (Kcal/Mol)
 Warning -- explicit consideration of  26 degrees of freedom as
           vibrations may cause significant error
 Vibrational temperatures:     20.16    36.76    48.14    59.11    96.54
          (Kelvin)            110.28   138.43   158.82   182.53   218.93
                              231.12   245.20   276.20   291.94   355.67
                              365.97   414.15   456.96   497.36   554.81
                              632.93   641.97   706.59   729.49   742.74
                              800.43   912.51  1055.70  1057.97  1083.73
                             1106.59  1113.90  1127.83  1205.27  1222.81
                             1235.60  1250.12  1263.23  1295.10  1331.01
                             1354.16  1412.23  1431.91  1450.26  1465.94
                             1491.81  1524.24  1532.00  1537.93  1542.28
                             1562.45  1567.86  1609.51  1623.11  1652.70
                             1662.95  1670.47  1687.21  1719.04  1754.81
                             1795.58  1802.98  1824.11  1844.45  1852.02
                             1858.83  1873.47  1890.06  1895.03  1902.37
                             1918.22  1921.86  1934.02  1956.29  1962.07
                             1974.91  1991.87  1998.79  2015.24  2032.96
                             2047.26  2055.91  2113.47  2131.97  2135.39
                             2135.94  2140.03  2147.42  2148.82  2152.47
                             2156.78  2157.63  2157.94  2173.54  2177.19
                             2182.14  2197.63  2487.24  4165.64  4174.50
                             4218.76  4297.48  4314.07  4319.82  4320.45
                             4329.57  4337.52  4343.75  4346.19  4348.68
                             4354.32  4356.45  4357.63  4383.73  4398.83
                             4404.05  4410.37  4415.85  4423.50  4429.40
                             4451.53  4458.40  4459.41  4475.83  5024.15
                             5108.67

 Zero-point correction=                           0.407093 (Hartree/Particle)
 Thermal correction to Energy=                    0.426007
 Thermal correction to Enthalpy=                  0.426951
 Thermal correction to Gibbs Free Energy=         0.356528
 Sum of electronic and zero-point Energies=           -659.492258
 Sum of electronic and thermal Energies=              -659.473344
 Sum of electronic and thermal Enthalpies=            -659.472400
 Sum of electronic and thermal Free Energies=         -659.542823

                     E (Thermal)             CV                S
                      KCal/Mol        Cal/Mol-Kelvin    Cal/Mol-Kelvin
 Total                  267.323             69.658            148.217
 Electronic               0.000              0.000              0.000
 Translational            0.889              2.981             42.125
 Rotational               0.889              2.981             34.245
 Vibrational            265.546             63.697             71.847
 Vibration     1          0.593              1.986              7.341
 Vibration     2          0.593              1.985              6.148
 Vibration     3          0.594              1.983              5.613
 Vibration     4          0.594              1.981              5.206
 Vibration     5          0.598              1.970              4.237
 Vibration     6          0.599              1.965              3.975
 Vibration     7          0.603              1.952              3.530
 Vibration     8          0.606              1.941              3.262
 Vibration     9          0.611              1.926              2.993
 Vibration    10          0.619              1.900              2.645
 Vibration    11          0.622              1.891              2.542
 Vibration    12          0.626              1.879              2.431
 Vibration    13          0.634              1.851              2.209
 Vibration    14          0.639              1.836              2.107
 Vibration    15          0.661              1.767              1.750
 Vibration    16          0.665              1.755              1.700
 Vibration    17          0.685              1.696              1.487
 Vibration    18          0.704              1.640              1.322
 Vibration    19          0.724              1.584              1.186
 Vibration    20          0.754              1.501              1.017
 Vibration    21          0.800              1.383              0.827
 Vibration    22          0.805              1.369              0.807
 Vibration    23          0.847              1.270              0.681
 Vibration    24          0.862              1.234              0.641
 Vibration    25          0.871              1.214              0.619
 Vibration    26          0.912              1.126              0.531

 Optimization completed.
    -- Stationary point found.
 Normal termination of Gaussian 16 at Tue May 23 10:24:25 2023.
