 Gaussian 16, Revision A.03,
 Gaussian 16:  ES64L-G16RevA.03 25-Dec-2016

 -----------------------------
 # opt freq b3lyp/6-31g(2df,p)
 -----------------------------

 -------------------
 Title Card Required
 -------------------
 Symbolic Z-matrix:
 Charge =  0 Multiplicity = 1

 SCF Done:  E(RB3LYP) =  -664.914098517     A.U. after   12 cycles
 SCF Done:  E(RB3LYP) =  -664.926971920     A.U. after   10 cycles
 SCF Done:  E(RB3LYP) =  -664.929491101     A.U. after   10 cycles
 SCF Done:  E(RB3LYP) =  -664.930436291     A.U. after   10 cycles
 SCF Done:  E(RB3LYP) =  -664.930589617     A.U. after    9 cycles
 SCF Done:  E(RB3LYP) =  -664.930629676     A.U. after    8 cycles
 SCF Done:  E(RB3LYP) =  -664.930636195     A.U. after    8 cycles
 SCF Done:  E(RB3LYP) =  -664.930637888     A.U. after    7 cycles
 SCF Done:  E(RB3LYP) =  -664.930638074     A.U. after    5 cycles
 SCF Done:  E(RB3LYP) =  -664.930638117     A.U. after    5 cycles
 SCF Done:  E(RB3LYP) =  -664.930638137     A.U. after    5 cycles
 Optimization completed.
    -- Stationary point found.
 Normal termination of Gaussian 16 at Mon May 22 08:05:09 2023.

 ----------------------------------------------------------------------
 #N Geom=AllCheck Guess=TCheck SCRF=Check GenChk RB3LYP/6-31G(2df,p) Fr
 eq
 ----------------------------------------------------------------------

 Structure from the checkpoint file:  "CCCCCCOC1CCqCCCCCrC1.chk"
 -------------------
 Title Card Required
 -------------------
 Charge =  0 Multiplicity = 1

                         Standard orientation:
 ---------------------------------------------------------------------
 Center     Atomic      Atomic             Coordinates (Angstroms)
 Number     Number       Type             X           Y           Z
 ---------------------------------------------------------------------
      1          6           0       -8.272814   -0.964673    0.160710
      2          6           0       -6.817440   -1.386655   -0.058327
      3          6           0       -5.828171   -0.221607    0.051501
      4          6           0       -4.369004   -0.635409   -0.167147
      5          6           0       -3.386451    0.534302   -0.055251
      6          6           0       -1.938835    0.115991   -0.274306
      7          8           0       -1.113530    1.258452   -0.154885
      8          6           0        0.248109    0.998855   -0.368112
      9          6           0        1.149908    2.241175   -0.237002
     10          6           0        2.182919    1.381232    0.552197
     11          6           0        3.382031    0.913509   -0.274583
     12          6           0        4.333641   -0.012996    0.490619
     13          6           0        5.528656   -0.485039   -0.344375
     14          6           0        6.487212   -1.403210    0.421624
     15          6           0        7.677867   -1.870194   -0.420053
     16          6           0        1.066452    0.310482    0.763916
     17          1           0       -8.954464   -1.816904    0.076193
     18          1           0       -8.583115   -0.215930   -0.576763
     19          1           0       -8.412058   -0.524432    1.154477
     20          1           0       -6.716254   -1.854969   -1.046532
     21          1           0       -6.546408   -2.161183    0.671572
     22          1           0       -5.928220    0.247598    1.040256
     23          1           0       -6.098672    0.554323   -0.678243
     24          1           0       -4.270539   -1.104185   -1.156353
     25          1           0       -4.100034   -1.411841    0.562772
     26          1           0       -3.468152    1.001697    0.933794
     27          1           0       -3.638893    1.311010   -0.787561
     28          1           0       -1.816443   -0.337667   -1.273731
     29          1           0       -1.646937   -0.650680    0.462994
     30          1           0        0.386878    0.483642   -1.331591
     31          1           0        0.663131    2.987566    0.395997
     32          1           0        1.489208    2.720580   -1.159256
     33          1           0        2.545276    1.844236    1.475366
     34          1           0        3.938411    1.795944   -0.620544
     35          1           0        3.030148    0.404783   -1.183538
     36          1           0        3.779734   -0.888154    0.856933
     37          1           0        4.699154    0.507958    1.386777
     38          1           0        6.082615    0.389511   -0.713960
     39          1           0        5.163292   -1.008721   -1.239168
     40          1           0        5.933483   -2.277058    0.790229
     41          1           0        6.852716   -0.879374    1.314944
     42          1           0        7.344510   -2.427892   -1.302500
     43          1           0        8.343364   -2.522928    0.153713
     44          1           0        8.270544   -1.019107   -0.773914
     45          1           0        0.559114    0.429477    1.725487
     46          1           0        1.342372   -0.739498    0.632766
 ---------------------------------------------------------------------

 SCF Done:  E(RB3LYP) =  -664.930638137     A.U. after    1 cycles

 The electronic state is 1-A.
 Alpha  occ. eigenvalues --  -19.13074 -10.22234 -10.21933 -10.18118 -10.17675
 Alpha  occ. eigenvalues --  -10.17590 -10.17536 -10.17444 -10.17427 -10.17350
 Alpha  occ. eigenvalues --  -10.17333 -10.17329 -10.17052 -10.16982 -10.16971
 Alpha  occ. eigenvalues --  -10.16950  -1.02601  -0.83926  -0.80210  -0.79470
 Alpha  occ. eigenvalues --   -0.76325  -0.74730  -0.70519  -0.68146  -0.65684
 Alpha  occ. eigenvalues --   -0.63747  -0.61170  -0.58619  -0.58023  -0.57238
 Alpha  occ. eigenvalues --   -0.57152  -0.52774  -0.49985  -0.48317  -0.47300
 Alpha  occ. eigenvalues --   -0.47074  -0.45235  -0.44074  -0.42950  -0.42130
 Alpha  occ. eigenvalues --   -0.41556  -0.41042  -0.40482  -0.39663  -0.39012
 Alpha  occ. eigenvalues --   -0.38016  -0.37552  -0.36421  -0.35725  -0.35001
 Alpha  occ. eigenvalues --   -0.34827  -0.34285  -0.33492  -0.32812  -0.32376
 Alpha  occ. eigenvalues --   -0.32308  -0.31839  -0.31786  -0.31499  -0.30585
 Alpha  occ. eigenvalues --   -0.30110  -0.29200  -0.28689  -0.24026
 Alpha virt. eigenvalues --    0.08602   0.08836   0.09061   0.09885   0.10494
 Alpha virt. eigenvalues --    0.11634   0.11866   0.12123   0.12443   0.13156
 Alpha virt. eigenvalues --    0.13453   0.14606   0.14941   0.15654   0.16069

 Mulliken charges:
               1
     1  C   -0.378951
     2  C   -0.164063
     3  C   -0.158033
     4  C   -0.181044
     5  C   -0.198586
     6  C   -0.066109
     7  O   -0.255711
     8  C    0.176016
     9  C   -0.284439
    10  C    0.001707
    11  C   -0.192314
    12  C   -0.178830
    13  C   -0.158335
    14  C   -0.163271
    15  C   -0.379006
    16  C   -0.265706
    17  H    0.109873
    18  H    0.113067
    19  H    0.113000
    20  H    0.093032
    21  H    0.092974
    22  H    0.091983
    23  H    0.092199
    24  H    0.092381
    25  H    0.092360
    26  H    0.102418
    27  H    0.102980
    28  H    0.080972
    29  H    0.086106
    30  H    0.059068
    31  H    0.107501
    32  H    0.092534
    33  H    0.065436
    34  H    0.090939
    35  H    0.089679
    36  H    0.094044
    37  H    0.090937
    38  H    0.090118
    39  H    0.089445
    40  H    0.092785
    41  H    0.093201
    42  H    0.112277
    43  H    0.109732
    44  H    0.112598
    45  H    0.102053
    46  H    0.090981
 Sum of Mulliken charges =  -0.00000

 Dipole moment (field-independent basis, Debye):
    X=              0.2320    Y=             -0.8760    Z=             -0.0469  Tot=              0.9074
 Quadrupole moment (field-independent basis, Debye-Ang):
   XX=           -103.1941   YY=           -105.7807   ZZ=           -103.1806
   XY=              2.7392   XZ=              0.5563   YZ=              0.3553

  Exact polarizability: 219.924  -0.933 152.138  -1.204  -0.516 141.465
 Approx polarizability: 231.025   1.698 224.775   0.097   0.153 221.874

                      1                      2                      3
                      A                      A                      A
 Frequencies --     19.3308                21.2124                38.2354
 Red. masses --      3.5840                 2.6069                 1.6511
 Frc consts  --      0.0008                 0.0007                 0.0014
 IR Inten    --      0.0257                 0.0072                 0.0482

                      4                      5                      6
                      A                      A                      A
 Frequencies --     49.6633                56.0748                66.6324
 Red. masses --      3.1303                 2.3788                 2.1939
 Frc consts  --      0.0045                 0.0044                 0.0057
 IR Inten    --      0.0273                 0.0172                 0.0120

                      7                      8                      9
                      A                      A                      A
 Frequencies --     82.9336                91.0010               106.9312
 Red. masses --      3.4032                 3.0254                 1.7639
 Frc consts  --      0.0138                 0.0148                 0.0119
 IR Inten    --      0.3914                 0.0623                 0.3734

                     10                     11                     12
                      A                      A                      A
 Frequencies --    132.9880               139.6846               149.2049
 Red. masses --      2.4958                 2.3577                 1.9845
 Frc consts  --      0.0260                 0.0271                 0.0260
 IR Inten    --      0.0134                 0.0932                 0.0245

                     13                     14                     15
                      A                      A                      A
 Frequencies --    151.8468               165.0289               192.6132
 Red. masses --      2.3337                 2.6732                 3.6281
 Frc consts  --      0.0317                 0.0429                 0.0793
 IR Inten    --      0.0404                 1.0357                 1.3026

                     16                     17                     18
                      A                      A                      A
 Frequencies --    217.6447               247.2940               247.8991
 Red. masses --      2.8285                 1.1233                 1.1216
 Frc consts  --      0.0789                 0.0405                 0.0406
 IR Inten    --      0.1771                 0.0007                 0.0081

                     19                     20                     21
                      A                      A                      A
 Frequencies --    274.5934               289.6441               346.1857
 Red. masses --      3.8095                 3.1039                 2.8220
 Frc consts  --      0.1692                 0.1534                 0.1993
 IR Inten    --      0.7263                 0.3341                 0.4968

                     22                     23                     24
                      A                      A                      A
 Frequencies --    401.4291               409.1495               445.8245
 Red. masses --      3.2721                 2.6864                 2.1839
 Frc consts  --      0.3107                 0.2650                 0.2557
 IR Inten    --      0.7356                 1.2920                 0.6345

                     25                     26                     27
                      A                      A                      A
 Frequencies --    460.2996               485.6532               511.2077
 Red. masses --      2.6966                 2.6571                 2.5836
 Frc consts  --      0.3366                 0.3692                 0.3978
 IR Inten    --      0.6734                 2.3833                 1.6978

                     28                     29                     30
                      A                      A                      A
 Frequencies --    690.2672               732.4531               733.3346
 Red. masses --      3.3659                 1.0767                 1.0644
 Frc consts  --      0.9449                 0.3403                 0.3372
 IR Inten    --      1.2148                 3.5227                 3.8370

                     31                     32                     33
                      A                      A                      A
 Frequencies --    753.0593               756.1128               808.4474
 Red. masses --      1.0964                 1.1871                 1.2334
 Frc consts  --      0.3663                 0.3999                 0.4750
 IR Inten    --      0.0094                 0.2690                 0.1412

                     34                     35                     36
                      A                      A                      A
 Frequencies --    811.2989               826.8997               858.2205
 Red. masses --      1.3615                 1.6121                 1.5998
 Frc consts  --      0.5280                 0.6494                 0.6943
 IR Inten    --      0.0860                 0.5131                 1.4847

                     37                     38                     39
                      A                      A                      A
 Frequencies --    897.2473               898.7184               902.2728
 Red. masses --      1.9704                 1.9116                 1.2321
 Frc consts  --      0.9346                 0.9097                 0.5910
 IR Inten    --      1.0397                 1.6937                 0.6223

                     40                     41                     42
                      A                      A                      A
 Frequencies --    912.2153               933.9069               956.9092
 Red. masses --      2.1421                 1.6958                 1.9047
 Frc consts  --      1.0502                 0.8715                 1.0276
 IR Inten    --      3.0190                 0.8079                 2.6133

                     43                     44                     45
                      A                      A                      A
 Frequencies --    976.2450               996.6284              1006.9392
 Red. masses --      2.0952                 2.1498                 1.5062
 Frc consts  --      1.1765                 1.2581                 0.8998
 IR Inten    --      1.1114                 5.9031                 1.2729

                     46                     47                     48
                      A                      A                      A
 Frequencies --   1008.3148              1023.9603              1045.5624
 Red. masses --      1.7143                 3.2145                 2.4363
 Frc consts  --      1.0269                 1.9858                 1.5692
 IR Inten    --      2.4264                 0.5313                 1.7795

                     49                     50                     51
                      A                      A                      A
 Frequencies --   1049.6152              1062.2141              1064.5898
 Red. masses --      3.0033                 2.4539                 2.0174
 Frc consts  --      1.9494                 1.6313                 1.3471
 IR Inten    --      3.9056                 4.8125                 4.5284

                     52                     53                     54
                      A                      A                      A
 Frequencies --   1069.3528              1076.3986              1085.7704
 Red. masses --      2.2770                 2.2591                 1.7454
 Frc consts  --      1.5341                 1.5422                 1.2123
 IR Inten    --      0.7537                 3.4316                24.2182

                     55                     56                     57
                      A                      A                      A
 Frequencies --   1101.7413              1140.6770              1141.6636
 Red. masses --      1.6423                 2.1438                 2.2985
 Frc consts  --      1.1745                 1.6435                 1.7651
 IR Inten    --      5.8621                 2.5747                 3.0641

                     58                     59                     60
                      A                      A                      A
 Frequencies --   1156.3091              1192.1304              1198.4028
 Red. masses --      3.4094                 2.4622                 1.8606
 Frc consts  --      2.6858                 2.0617                 1.5744
 IR Inten    --    155.0530               105.6597                23.3785

                     61                     62                     63
                      A                      A                      A
 Frequencies --   1206.2113              1223.8447              1232.9335
 Red. masses --      1.4682                 1.6749                 1.4478
 Frc consts  --      1.2586                 1.4781                 1.2967
 IR Inten    --      0.5514                20.9075                 1.9346

                     64                     65                     66
                      A                      A                      A
 Frequencies --   1245.0387              1257.1101              1259.9380
 Red. masses --      1.3882                 1.3283                 1.3639
 Frc consts  --      1.2679                 1.2367                 1.2756
 IR Inten    --      3.5123                 9.4105                 3.7150

                     67                     68                     69
                      A                      A                      A
 Frequencies --   1271.5137              1273.8276              1282.9956
 Red. masses --      1.4634                 1.4179                 1.2627
 Frc consts  --      1.3940                 1.3555                 1.2246
 IR Inten    --      2.2764                 7.5594                 0.2510

                     70                     71                     72
                      A                      A                      A
 Frequencies --   1295.9186              1303.0739              1311.7620
 Red. masses --      1.3559                 1.3444                 1.0846
 Frc consts  --      1.3416                 1.3450                 1.0996
 IR Inten    --      2.0776                 1.0761                 0.1932

                     73                     74                     75
                      A                      A                      A
 Frequencies --   1324.3696              1328.9719              1329.0764
 Red. masses --      1.3389                 1.2625                 1.1272
 Frc consts  --      1.3836                 1.3137                 1.1732
 IR Inten    --      1.2178                 0.5153                 0.1677

                     76                     77                     78
                      A                      A                      A
 Frequencies --   1330.3102              1333.3278              1337.8684
 Red. masses --      1.0438                 1.0710                 1.2190
 Frc consts  --      1.0884                 1.1218                 1.2856
 IR Inten    --      0.2752                 0.3561                 1.3444

                     79                     80                     81
                      A                      A                      A
 Frequencies --   1370.4739              1376.8764              1389.0563
 Red. masses --      1.3338                 1.3432                 1.4326
 Frc consts  --      1.4760                 1.5004                 1.6286
 IR Inten    --     51.8719                25.0267                19.1050

                     82                     83                     84
                      A                      A                      A
 Frequencies --   1398.1263              1400.8090              1402.2249
 Red. masses --      1.5329                 1.6196                 1.6123
 Frc consts  --      1.7654                 1.8725                 1.8678
 IR Inten    --      4.8235                 0.7912                 1.6287

                     85                     86                     87
                      A                      A                      A
 Frequencies --   1413.4088              1413.7442              1443.6531
 Red. masses --      1.2545                 1.2608                 1.4517
 Frc consts  --      1.4766                 1.4846                 1.7826
 IR Inten    --      0.6189                 0.5796                 1.9669

                     88                     89                     90
                      A                      A                      A
 Frequencies --   1464.4460              1481.7989              1483.4719
 Red. masses --      1.0896                 1.0790                 1.0704
 Frc consts  --      1.3768                 1.3958                 1.3879
 IR Inten    --      2.1451                 1.7731                 0.1875

                     91                     92                     93
                      A                      A                      A
 Frequencies --   1483.7014              1485.5772              1490.8633
 Red. masses --      1.0693                 1.0729                 1.0938
 Frc consts  --      1.3869                 1.3950                 1.4324
 IR Inten    --      0.2331                 0.2309                 2.0596

                     94                     95                     96
                      A                      A                      A
 Frequencies --   1492.7768              1493.9070              1499.7915
 Red. masses --      1.1151                 1.0740                 1.0403
 Frc consts  --      1.4640                 1.4122                 1.3787
 IR Inten    --      1.2724                 0.2084                 4.9228

                     97                     98                     99
                      A                      A                      A
 Frequencies --   1499.9202              1503.8190              1504.2293
 Red. masses --      1.0403                 1.0804                 1.0816
 Frc consts  --      1.3789                 1.4396                 1.4420
 IR Inten    --      4.9168                 0.1958                 0.2165

                    100                    101                    102
                      A                      A                      A
 Frequencies --   1513.6824              1513.9714              1527.4740
 Red. masses --      1.0910                 1.0921                 1.0933
 Frc consts  --      1.4729                 1.4749                 1.5029
 IR Inten    --      2.7998                 3.0382                 2.4761

                    103                    104                    105
                      A                      A                      A
 Frequencies --   2945.2239              2971.2693              2975.8848
 Red. masses --      1.0576                 1.0854                 1.0986
 Frc consts  --      5.4049                 5.6460                 5.7320
 IR Inten    --     30.6339                55.8188                21.2820

                    106                    107                    108
                      A                      A                      A
 Frequencies --   2997.8540              2999.5294              3000.2279
 Red. masses --      1.0583                 1.0576                 1.0575
 Frc consts  --      5.6039                 5.6064                 5.6085
 IR Inten    --      1.9470                 4.1341                 1.0659

                    109                    110                    111
                      A                      A                      A
 Frequencies --   3004.3528              3007.2789              3015.1756
 Red. masses --      1.0583                 1.0597                 1.0596
 Frc consts  --      5.6279                 5.6463                 5.6759
 IR Inten    --      7.8507                15.2131                52.4810

                    112                    113                    114
                      A                      A                      A
 Frequencies --   3015.9488              3019.9381              3021.8297
 Red. masses --      1.0604                 1.0966                 1.0986
 Frc consts  --      5.6831                 5.8922                 5.9104
 IR Inten    --     79.1181                 1.9780                 0.6354

                    115                    116                    117
                      A                      A                      A
 Frequencies --   3025.8394              3027.7811              3027.9743
 Red. masses --      1.0992                 1.0357                 1.0375
 Frc consts  --      5.9296                 5.5939                 5.6044
 IR Inten    --      1.4773                44.2228                21.5788

                    118                    119                    120
                      A                      A                      A
 Frequencies --   3029.9065              3034.4945              3040.2543
 Red. masses --      1.0568                 1.1019                 1.0945
 Frc consts  --      5.7159                 5.9784                 5.9604
 IR Inten    --     61.3430                 0.4113                 5.0204

                    121                    122                    123
                      A                      A                      A
 Frequencies --   3048.7369              3051.9481              3054.8636
 Red. masses --      1.0828                 1.0654                 1.1047
 Frc consts  --      5.9295                 5.8465                 6.0741
 IR Inten    --      8.9328                55.3248                24.4540

                    124                    125                    126
                      A                      A                      A
 Frequencies --   3059.3347              3062.1034              3074.6491
 Red. masses --      1.0777                 1.0923                 1.1050
 Frc consts  --      5.9427                 6.0342                 6.1545
 IR Inten    --     14.7822               112.8740                71.2253

                    127                    128                    129
                      A                      A                      A
 Frequencies --   3093.8528              3094.3363              3099.3376
 Red. masses --      1.1020                 1.1020                 1.1009
 Frc consts  --      6.2150                 6.2169                 6.2309
 IR Inten    --     58.9197                60.7220                39.3479

                    130                    131                    132
                      A                      A                      A
 Frequencies --   3099.7682              3107.1471              3114.1501
 Red. masses --      1.1010                 1.1078                 1.1070
 Frc consts  --      6.2328                 6.3015                 6.3254
 IR Inten    --     39.3294                24.4929                32.4474

 - Thermochemistry -
 -------------------
 Temperature   298.150 Kelvin.  Pressure   1.00000 Atm.
 Atom     1 has atomic number  6 and mass  12.00000

 Molecular mass:   226.22967 amu.
 Principal axes and moments of inertia in atomic units:
                           1         2         3
     Eigenvalues --  1293.31311********************
           X            1.00000  -0.00082  -0.00107
           Y            0.00082   1.00000   0.00229
           Z            0.00107  -0.00229   1.00000
 This molecule is an asymmetric top.
 Rotational symmetry number  1.
 Warning -- assumption of classical behavior for rotation
           may cause significant error
 Rotational temperatures (Kelvin)      0.06697     0.00469     0.00447
 Rotational constants (GHZ):           1.39544     0.09775     0.09318
 Zero-point vibrational energy    1118418.5 (Joules/Mol)
                                  267.30844 (Kcal/Mol)
 Warning -- explicit consideration of  27 degrees of freedom as
           vibrations may cause significant error
 Vibrational temperatures:     27.81    30.52    55.01    71.45    80.68
          (Kelvin)             95.87   119.32   130.93   153.85   191.34
                              200.97   214.67   218.47   237.44   277.13
                              313.14   355.80   356.67   395.08   416.73
                              498.08   577.57   588.67   641.44   662.27
                              698.75   735.51   993.14  1053.84  1055.10
                             1083.48  1087.88  1163.18  1167.28  1189.72
                             1234.79  1290.94  1293.06  1298.17  1312.47
                             1343.68  1376.78  1404.60  1433.93  1448.76
                             1450.74  1473.25  1504.33  1510.16  1528.29
                             1531.71  1538.56  1548.70  1562.18  1585.16
                             1641.18  1642.60  1663.67  1715.21  1724.23
                             1735.47  1760.84  1773.92  1791.33  1808.70
                             1812.77  1829.42  1832.75  1845.94  1864.54
                             1874.83  1887.33  1905.47  1912.09  1912.24
                             1914.02  1918.36  1924.89  1971.81  1981.02
                             1998.54  2011.59  2015.45  2017.49  2033.58
                             2034.06  2077.09  2107.01  2131.98  2134.39
                             2134.72  2137.41  2145.02  2147.77  2149.40
                             2157.87  2158.05  2163.66  2164.25  2177.85
                             2178.27  2197.69  4237.52  4274.99  4281.63
                             4313.24  4315.65  4316.66  4322.59  4326.80
                             4338.17  4339.28  4345.02  4347.74  4353.51
                             4356.30  4356.58  4359.36  4365.96  4374.25
                             4386.45  4391.07  4395.27  4401.70  4405.68
                             4423.73  4451.36  4452.06  4459.26  4459.88
                             4470.49  4480.57

 Zero-point correction=                           0.425983 (Hartree/Particle)
 Thermal correction to Energy=                    0.446284
 Thermal correction to Enthalpy=                  0.447228
 Thermal correction to Gibbs Free Energy=         0.373623
 Sum of electronic and zero-point Energies=           -664.504655
 Sum of electronic and thermal Energies=              -664.484354
 Sum of electronic and thermal Enthalpies=            -664.483410
 Sum of electronic and thermal Free Energies=         -664.557015

                     E (Thermal)             CV                S
                      KCal/Mol        Cal/Mol-Kelvin    Cal/Mol-Kelvin
 Total                  280.048             73.083            154.915
 Electronic               0.000              0.000              0.000
 Translational            0.889              2.981             42.151
 Rotational               0.889              2.981             34.491
 Vibrational            278.270             67.122             78.273
 Vibration     1          0.593              1.986              6.702
 Vibration     2          0.593              1.985              6.517
 Vibration     3          0.594              1.982              5.348
 Vibration     4          0.595              1.978              4.831
 Vibration     5          0.596              1.975              4.591
 Vibration     6          0.598              1.970              4.250
 Vibration     7          0.600              1.961              3.820
 Vibration     8          0.602              1.956              3.638
 Vibration     9          0.606              1.944              3.324
 Vibration    10          0.613              1.920              2.902
 Vibration    11          0.615              1.914              2.808
 Vibration    12          0.618              1.904              2.682
 Vibration    13          0.619              1.901              2.649
 Vibration    14          0.623              1.885              2.491
 Vibration    15          0.635              1.850              2.203
 Vibration    16          0.646              1.814              1.979
 Vibration    17          0.661              1.767              1.750
 Vibration    18          0.662              1.766              1.745
 Vibration    19          0.677              1.720              1.567
 Vibration    20          0.686              1.693              1.476
 Vibration    21          0.724              1.583              1.183
 Vibration    22          0.767              1.467              0.957
 Vibration    23          0.774              1.450              0.930
 Vibration    24          0.805              1.370              0.809
 Vibration    25          0.818              1.338              0.765
 Vibration    26          0.842              1.282              0.695
 Vibration    27          0.866              1.225              0.631

 Optimization completed.
    -- Stationary point found.
 Normal termination of Gaussian 16 at Mon May 22 11:38:23 2023.
