 Gaussian 16, Revision A.03,
 Gaussian 16:  ES64L-G16RevA.03 25-Dec-2016

 -----------------------------
 # opt freq b3lyp/6-31g(2df,p)
 -----------------------------

 -------------------
 Title Card Required
 -------------------
 Symbolic Z-matrix:
 Charge =  0 Multiplicity = 1

 SCF Done:  E(RB3LYP) =  -711.000824032     A.U. after   13 cycles
 SCF Done:  E(RB3LYP) =  -711.012846736     A.U. after   12 cycles
 SCF Done:  E(RB3LYP) =  -711.016136111     A.U. after   12 cycles
 SCF Done:  E(RB3LYP) =  -711.017325774     A.U. after   11 cycles
 SCF Done:  E(RB3LYP) =  -711.017973109     A.U. after   11 cycles
 SCF Done:  E(RB3LYP) =  -711.018482976     A.U. after   11 cycles
 SCF Done:  E(RB3LYP) =  -711.019251778     A.U. after   12 cycles
 SCF Done:  E(RB3LYP) =  -711.021724935     A.U. after   13 cycles
 SCF Done:  E(RB3LYP) =  -711.021671606     A.U. after   12 cycles
 SCF Done:  E(RB3LYP) =  -711.019858015     A.U. after   12 cycles
 SCF Done:  E(RB3LYP) =  -711.030169922     A.U. after   11 cycles
 SCF Done:  E(RB3LYP) =  -711.030268095     A.U. after   10 cycles
 SCF Done:  E(RB3LYP) =  -711.030334113     A.U. after   10 cycles
 SCF Done:  E(RB3LYP) =  -711.030343051     A.U. after    9 cycles
 SCF Done:  E(RB3LYP) =  -711.030348315     A.U. after    9 cycles
 SCF Done:  E(RB3LYP) =  -711.030350372     A.U. after    9 cycles
 SCF Done:  E(RB3LYP) =  -711.030350856     A.U. after    8 cycles
 SCF Done:  E(RB3LYP) =  -711.030350914     A.U. after    6 cycles
 SCF Done:  E(RB3LYP) =  -711.030350916     A.U. after    6 cycles
 Optimization completed.
    -- Stationary point found.
 Normal termination of Gaussian 16 at Sun May 28 22:50:08 2023.

 ----------------------------------------------------------------------
 #N Geom=AllCheck Guess=TCheck SCRF=Check GenChk RB3LYP/6-31G(2df,p) Fr
 eq
 ----------------------------------------------------------------------

 Structure from the checkpoint file:  "CCCC1dCCdCC1qNrCqOrOCOC.chk"
 -------------------
 Title Card Required
 -------------------
 Charge =  0 Multiplicity = 1

                         Standard orientation:
 ---------------------------------------------------------------------
 Center     Atomic      Atomic             Coordinates (Angstroms)
 Number     Number       Type             X           Y           Z
 ---------------------------------------------------------------------
      1          6           0        0.656151    3.941070    0.433867
      2          6           0        1.074524    2.480039    0.623316
      3          6           0        0.865650    1.649495   -0.658102
      4          6           0        1.440680    0.261470   -0.663535
      5          6           0        2.305827   -0.210969   -1.581064
      6          6           0        2.601281   -1.629346   -1.334104
      7          6           0        1.917565   -2.043374   -0.260272
      8          6           0        1.095702   -0.894774    0.297751
      9          7           0        1.414400   -0.717848    1.731016
     10          6           0       -0.406656   -1.270012    0.264396
     11          8           0       -0.657076   -2.382776    1.062289
     12          8           0       -1.111885   -0.126102    0.757947
     13          6           0       -2.484523   -0.171890    0.555637
     14          8           0       -2.749040    0.117501   -0.799496
     15          6           0       -4.116234    0.004356   -1.123082
     16          1           0        0.786730    4.517428    1.355218
     17          1           0       -0.396992    4.013664    0.140630
     18          1           0        1.250742    4.424377   -0.349464
     19          1           0        0.483543    2.047469    1.437973
     20          1           0        2.127503    2.433208    0.928042
     21          1           0        1.313153    2.193311   -1.500251
     22          1           0       -0.211851    1.596035   -0.854993
     23          1           0        2.722968    0.363805   -2.400431
     24          1           0        3.267686   -2.230040   -1.941155
     25          1           0        1.906631   -3.026223    0.188483
     26          1           0        1.003328    0.145663    2.068275
     27          1           0        2.419493   -0.650077    1.852367
     28          1           0       -0.740732   -1.501582   -0.749842
     29          1           0       -0.116318   -2.232739    1.857162
     30          1           0       -2.929445    0.594092    1.209031
     31          1           0       -2.892481   -1.161992    0.820144
     32          1           0       -4.217311    0.224912   -2.187765
     33          1           0       -4.733085    0.717909   -0.554211
     34          1           0       -4.500167   -1.009657   -0.931089
 ---------------------------------------------------------------------

 SCF Done:  E(RB3LYP) =  -711.030350916     A.U. after    1 cycles

 The electronic state is 1-A.
 Alpha  occ. eigenvalues --  -19.14743 -19.14351 -19.13255 -14.32193 -10.27176
 Alpha  occ. eigenvalues --  -10.27071 -10.22815 -10.21978 -10.18020 -10.17807
 Alpha  occ. eigenvalues --  -10.17730 -10.17432 -10.17291 -10.17045 -10.16998
 Alpha  occ. eigenvalues --   -1.07901  -1.03346  -0.99036  -0.89929  -0.82952
 Alpha  occ. eigenvalues --   -0.78283  -0.73212  -0.71963  -0.69363  -0.65940
 Alpha  occ. eigenvalues --   -0.64352  -0.60772  -0.58504  -0.55494  -0.53496
 Alpha  occ. eigenvalues --   -0.51742  -0.50290  -0.49949  -0.48088  -0.47289
 Alpha  occ. eigenvalues --   -0.46590  -0.45523  -0.43408  -0.42669  -0.41214
 Alpha  occ. eigenvalues --   -0.40970  -0.40052  -0.39066  -0.37689  -0.37234
 Alpha  occ. eigenvalues --   -0.36296  -0.34603  -0.33880  -0.33444  -0.32951
 Alpha  occ. eigenvalues --   -0.32213  -0.31959  -0.30291  -0.28549  -0.27699
 Alpha  occ. eigenvalues --   -0.25827  -0.25194  -0.20583
 Alpha virt. eigenvalues --   -0.02139   0.08072   0.08342   0.09599   0.10909
 Alpha virt. eigenvalues --    0.11938   0.12901   0.13076   0.13794   0.14507
 Alpha virt. eigenvalues --    0.14997   0.15949   0.15990   0.16517   0.17080

 Mulliken charges:
               1
     1  C   -0.381142
     2  C   -0.173312
     3  C   -0.293411
     4  C    0.246675
     5  C   -0.211138
     6  C   -0.107182
     7  C   -0.132220
     8  C    0.078874
     9  N   -0.571899
    10  C    0.195290
    11  O   -0.421771
    12  O   -0.256338
    13  C    0.018888
    14  O   -0.229891
    15  C   -0.230882
    16  H    0.108221
    17  H    0.117617
    18  H    0.113268
    19  H    0.105430
    20  H    0.088756
    21  H    0.088370
    22  H    0.131851
    23  H    0.091836
    24  H    0.099947
    25  H    0.107639
    26  H    0.246793
    27  H    0.238293
    28  H    0.103887
    29  H    0.285491
    30  H    0.093042
    31  H    0.098896
    32  H    0.133115
    33  H    0.106445
    34  H    0.110562
 Sum of Mulliken charges =  -0.00000

 Dipole moment (field-independent basis, Debye):
    X=             -0.1977    Y=              1.0715    Z=              0.2357  Tot=              1.1148
 Quadrupole moment (field-independent basis, Debye-Ang):
   XX=            -79.3272   YY=            -93.9465   ZZ=            -87.8814
   XY=             -1.4149   XZ=              0.8547   YZ=              1.7170

  Exact polarizability: 140.188 -10.610 143.978 -12.233  -0.266 123.969
 Approx polarizability: 190.432 -11.565 200.915 -24.394  -4.865 198.231

                      1                      2                      3
                      A                      A                      A
 Frequencies --     27.2658                44.3825                51.4059
 Red. masses --      4.0302                 4.0777                 3.0598
 Frc consts  --      0.0018                 0.0047                 0.0048
 IR Inten    --      0.8768                 0.8623                 0.5485

                      4                      5                      6
                      A                      A                      A
 Frequencies --     75.7677                90.3981               113.9290
 Red. masses --      2.8341                 1.9006                 2.4474
 Frc consts  --      0.0096                 0.0092                 0.0187
 IR Inten    --      1.8725                 1.0571                 2.4481

                      7                      8                      9
                      A                      A                      A
 Frequencies --    132.7757               148.2158               169.6003
 Red. masses --      3.8046                 2.9551                 3.9011
 Frc consts  --      0.0395                 0.0382                 0.0661
 IR Inten    --      2.0241                 1.6225                 1.8185

                     10                     11                     12
                      A                      A                      A
 Frequencies --    213.8086               230.7394               249.3392
 Red. masses --      1.4344                 2.0615                 1.2990
 Frc consts  --      0.0386                 0.0647                 0.0476
 IR Inten    --      0.7756                 4.9744                 1.3414

                     13                     14                     15
                      A                      A                      A
 Frequencies --    271.8694               285.0492               297.9058
 Red. masses --      2.8398                 2.9317                 2.9747
 Frc consts  --      0.1237                 0.1404                 0.1555
 IR Inten    --      5.1461                 0.6432                 1.7886

                     16                     17                     18
                      A                      A                      A
 Frequencies --    307.0090               328.4463               333.0654
 Red. masses --      3.0047                 1.7269                 2.2656
 Frc consts  --      0.1669                 0.1098                 0.1481
 IR Inten    --      0.5725                 9.0951                11.1869

                     19                     20                     21
                      A                      A                      A
 Frequencies --    373.2353               400.6898               489.8884
 Red. masses --      3.3444                 3.4911                 3.3754
 Frc consts  --      0.2745                 0.3302                 0.4773
 IR Inten    --      0.9860                 0.7789                 4.0719

                     22                     23                     24
                      A                      A                      A
 Frequencies --    548.2288               573.9148               603.3582
 Red. masses --      4.2272                 2.3778                 2.9749
 Frc consts  --      0.7486                 0.4614                 0.6381
 IR Inten    --      3.9255                11.9602                10.3283

                     25                     26                     27
                      A                      A                      A
 Frequencies --    629.8443               654.9052               703.6258
 Red. masses --      3.8147                 1.5345                 4.0462
 Frc consts  --      0.8916                 0.3878                 1.1803
 IR Inten    --      2.5028                86.7937                 2.6005

                     28                     29                     30
                      A                      A                      A
 Frequencies --    749.5732               753.8569               797.0695
 Red. masses --      1.1343                 1.5050                 3.4212
 Frc consts  --      0.3755                 0.5039                 1.2806
 IR Inten    --      4.6789                34.5712                39.6759

                     31                     32                     33
                      A                      A                      A
 Frequencies --    802.7014               864.1400               897.0580
 Red. masses --      3.5552                 1.3503                 1.5058
 Frc consts  --      1.3497                 0.5941                 0.7140
 IR Inten    --     44.0671                10.0432                 4.5400

                     34                     35                     36
                      A                      A                      A
 Frequencies --    909.9800               913.8590               941.0008
 Red. masses --      1.7024                 1.5577                 3.6346
 Frc consts  --      0.8306                 0.7665                 1.8962
 IR Inten    --     10.1104                64.1947                97.8920

                     37                     38                     39
                      A                      A                      A
 Frequencies --    956.9574               989.5528               998.1658
 Red. masses --      1.3447                 3.4988                 2.1561
 Frc consts  --      0.7255                 2.0186                 1.2657
 IR Inten    --      0.9078                32.3909                46.1601

                     40                     41                     42
                      A                      A                      A
 Frequencies --   1016.3919              1029.9561              1050.2846
 Red. masses --      2.5475                 2.7158                 2.7480
 Frc consts  --      1.5506                 1.6974                 1.7860
 IR Inten    --     73.3902                11.3174                 6.6796

                     43                     44                     45
                      A                      A                      A
 Frequencies --   1085.1787              1102.5027              1116.0568
 Red. masses --      3.6558                 1.7992                 1.7442
 Frc consts  --      2.5365                 1.2885                 1.2800
 IR Inten    --    167.6133                 5.3069                61.6107

                     46                     47                     48
                      A                      A                      A
 Frequencies --   1128.9958              1136.3141              1144.2147
 Red. masses --      5.4043                 3.2334                 1.4191
 Frc consts  --      4.0586                 2.4599                 1.0947
 IR Inten    --    320.5630                26.6344                12.3236

                     49                     50                     51
                      A                      A                      A
 Frequencies --   1163.8602              1178.7589              1200.3260
 Red. masses --      1.7825                 2.5067                 1.6140
 Frc consts  --      1.4226                 2.0521                 1.3701
 IR Inten    --     30.0876                34.5564                12.9647

                     52                     53                     54
                      A                      A                      A
 Frequencies --   1219.6290              1235.2643              1250.1026
 Red. masses --      2.5791                 1.8131                 1.3981
 Frc consts  --      2.2603                 1.6301                 1.2873
 IR Inten    --      1.3178                30.0488                 0.9225

                     55                     56                     57
                      A                      A                      A
 Frequencies --   1273.2811              1287.4188              1302.4972
 Red. masses --      1.3198                 1.1791                 1.5504
 Frc consts  --      1.2606                 1.1515                 1.5497
 IR Inten    --      2.2168                 4.4249                 8.5206

                     58                     59                     60
                      A                      A                      A
 Frequencies --   1318.5727              1323.5629              1341.1357
 Red. masses --      1.3431                 1.3367                 1.3279
 Frc consts  --      1.3758                 1.3797                 1.4072
 IR Inten    --      7.6661                 5.8568                 6.1087

                     61                     62                     63
                      A                      A                      A
 Frequencies --   1366.5817              1377.5933              1390.1571
 Red. masses --      1.3135                 1.7394                 1.6128
 Frc consts  --      1.4452                 1.9449                 1.8364
 IR Inten    --      8.1201                 2.9651                 4.7240

                     64                     65                     66
                      A                      A                      A
 Frequencies --   1410.7289              1438.1988              1464.9841
 Red. masses --      1.2316                 1.1948                 1.2509
 Frc consts  --      1.4442                 1.4561                 1.5818
 IR Inten    --      0.7375                30.1658               130.9249

                     67                     68                     69
                      A                      A                      A
 Frequencies --   1473.1015              1482.1904              1488.0214
 Red. masses --      1.0874                 1.1406                 1.0622
 Frc consts  --      1.3903                 1.4764                 1.3857
 IR Inten    --      9.1730                 5.5103                 3.3205

                     70                     71                     72
                      A                      A                      A
 Frequencies --   1491.2706              1498.8190              1506.8612
 Red. masses --      1.0578                 1.0407                 1.0752
 Frc consts  --      1.3860                 1.3774                 1.4384
 IR Inten    --      0.2344                 5.1073                 2.1543

                     73                     74                     75
                      A                      A                      A
 Frequencies --   1508.7128              1537.1957              1606.0238
 Red. masses --      1.0713                 1.0889                 6.7242
 Frc consts  --      1.4367                 1.5160                10.2187
 IR Inten    --      8.0520                 1.3240                 4.8375

                     76                     77                     78
                      A                      A                      A
 Frequencies --   1632.5382              1670.3797              2959.4351
 Red. masses --      1.1172                 6.2059                 1.0512
 Frc consts  --      1.7543                10.2020                 5.4242
 IR Inten    --     30.6290                 4.2701                29.2985

                     79                     80                     81
                      A                      A                      A
 Frequencies --   2975.1465              3008.7339              3014.6928
 Red. masses --      1.0411                 1.1068                 1.0592
 Frc consts  --      5.4296                 5.9029                 5.6715
 IR Inten    --    102.4802                62.6746                 9.2315

                     82                     83                     84
                      A                      A                      A
 Frequencies --   3017.6339              3025.6435              3028.7065
 Red. masses --      1.1033                 1.0594                 1.0394
 Frc consts  --      5.9192                 5.7139                 5.6176
 IR Inten    --     40.5902                21.8582                52.8779

                     85                     86                     87
                      A                      A                      A
 Frequencies --   3053.3127              3071.1256              3094.8653
 Red. masses --      1.0947                 1.1023                 1.0870
 Frc consts  --      6.0129                 6.1256                 6.1341
 IR Inten    --      2.2024                11.9572                12.9233

                     88                     89                     90
                      A                      A                      A
 Frequencies --   3098.5804              3100.2698              3121.2873
 Red. masses --      1.1027                 1.1010                 1.0958
 Frc consts  --      6.2381                 6.2351                 6.2901
 IR Inten    --     55.4107                35.9618                22.3197

                     91                     92                     93
                      A                      A                      A
 Frequencies --   3189.5057              3207.6588              3243.4801
 Red. masses --      1.0911                 1.0916                 1.1016
 Frc consts  --      6.5397                 6.6176                 6.8282
 IR Inten    --     18.0112                17.0799                 4.7230

                     94                     95                     96
                      A                      A                      A
 Frequencies --   3511.4237              3598.1641              3654.1093
 Red. masses --      1.0488                 1.0931                 1.0640
 Frc consts  --      7.6192                 8.3384                 8.3704
 IR Inten    --      2.8466                 7.0793                78.2006

 - Thermochemistry -
 -------------------
 Temperature   298.150 Kelvin.  Pressure   1.00000 Atm.
 Atom     1 has atomic number  6 and mass  12.00000

 Molecular mass:   213.13649 amu.
 Principal axes and moments of inertia in atomic units:
                           1         2         3
     Eigenvalues --  2892.715703696.211715109.16201
           X            0.99964   0.02495   0.00961
           Y           -0.02506   0.99962   0.01136
           Z           -0.00932  -0.01159   0.99989
 This molecule is an asymmetric top.
 Rotational symmetry number  1.
 Warning -- assumption of classical behavior for rotation
           may cause significant error
 Rotational temperatures (Kelvin)      0.02994     0.02343     0.01695
 Rotational constants (GHZ):           0.62389     0.48827     0.35324
 Zero-point vibrational energy     772452.8 (Joules/Mol)
                                  184.62064 (Kcal/Mol)
 Warning -- explicit consideration of  24 degrees of freedom as
           vibrations may cause significant error
 Vibrational temperatures:     39.23    63.86    73.96   109.01   130.06
          (Kelvin)            163.92   191.03   213.25   244.02   307.62
                              331.98   358.74   391.16   410.12   428.62
                              441.72   472.56   479.21   537.00   576.50
                              704.84   788.78   825.74   868.10   906.21
                              942.26  1012.36  1078.47  1084.63  1146.81
                             1154.91  1243.30  1290.67  1309.26  1314.84
                             1353.89  1376.85  1423.75  1436.14  1462.36
                             1481.88  1511.13  1561.33  1586.26  1605.76
                             1624.37  1634.90  1646.27  1674.54  1695.97
                             1727.00  1754.77  1777.27  1798.62  1831.97
                             1852.31  1874.00  1897.13  1904.31  1929.60
                             1966.21  1982.05  2000.13  2029.72  2069.25
                             2107.79  2119.46  2132.54  2140.93  2145.61
                             2156.47  2168.04  2170.70  2211.68  2310.71
                             2348.86  2403.30  4257.97  4280.57  4328.90
                             4337.47  4341.70  4353.23  4357.63  4393.04
                             4418.66  4452.82  4458.17  4460.60  4490.84
                             4588.99  4615.11  4666.64  5052.16  5176.96
                             5257.45

 Zero-point correction=                           0.294212 (Hartree/Particle)
 Thermal correction to Energy=                    0.310826
 Thermal correction to Enthalpy=                  0.311770
 Thermal correction to Gibbs Free Energy=         0.249299
 Sum of electronic and zero-point Energies=           -710.736139
 Sum of electronic and thermal Energies=              -710.719525
 Sum of electronic and thermal Enthalpies=            -710.718581
 Sum of electronic and thermal Free Energies=         -710.781052

                     E (Thermal)             CV                S
                      KCal/Mol        Cal/Mol-Kelvin    Cal/Mol-Kelvin
 Total                  195.046             61.561            131.482
 Electronic               0.000              0.000              0.000
 Translational            0.889              2.981             41.974
 Rotational               0.889              2.981             32.369
 Vibrational            193.269             55.599             57.140
 Vibration     1          0.593              1.984              6.019
 Vibration     2          0.595              1.980              5.053
 Vibration     3          0.596              1.977              4.763
 Vibration     4          0.599              1.965              3.998
 Vibration     5          0.602              1.956              3.651
 Vibration     6          0.607              1.938              3.201
 Vibration     7          0.613              1.921              2.905
 Vibration     8          0.618              1.905              2.695
 Vibration     9          0.625              1.880              2.440
 Vibration    10          0.644              1.820              2.011
 Vibration    11          0.652              1.794              1.873
 Vibration    12          0.662              1.764              1.735
 Vibration    13          0.675              1.725              1.584
 Vibration    14          0.683              1.701              1.503
 Vibration    15          0.691              1.678              1.429
 Vibration    16          0.697              1.660              1.378
 Vibration    17          0.712              1.619              1.268
 Vibration    18          0.715              1.609              1.245
 Vibration    19          0.745              1.527              1.066
 Vibration    20          0.767              1.469              0.960
 Vibration    21          0.846              1.272              0.684
 Vibration    22          0.903              1.144              0.548
 Vibration    23          0.930              1.088              0.497
 Vibration    24          0.962              1.025              0.444

 Optimization completed.
    -- Stationary point found.
 Normal termination of Gaussian 16 at Mon May 29 01:23:40 2023.
