 Gaussian 16, Revision A.03,
 Gaussian 16:  ES64L-G16RevA.03 25-Dec-2016

 -----------------------------
 # opt freq b3lyp/6-31g(2df,p)
 -----------------------------

 -------------------
 Title Card Required
 -------------------
 Symbolic Z-matrix:
 Charge =  0 Multiplicity = 1

 SCF Done:  E(RB3LYP) =  -584.083845626     A.U. after   12 cycles
 SCF Done:  E(RB3LYP) =  -584.090700756     A.U. after   11 cycles
 SCF Done:  E(RB3LYP) =  -584.095948996     A.U. after   11 cycles
 SCF Done:  E(RB3LYP) =  -584.099953246     A.U. after   11 cycles
 SCF Done:  E(RB3LYP) =  -584.101930130     A.U. after   10 cycles
 SCF Done:  E(RB3LYP) =  -584.104928202     A.U. after   10 cycles
 SCF Done:  E(RB3LYP) =  -584.106989724     A.U. after   10 cycles
 SCF Done:  E(RB3LYP) =  -584.107931920     A.U. after   10 cycles
 SCF Done:  E(RB3LYP) =  -584.108497797     A.U. after   10 cycles
 SCF Done:  E(RB3LYP) =  -584.108978852     A.U. after   10 cycles
 SCF Done:  E(RB3LYP) =  -584.109043659     A.U. after    9 cycles
 SCF Done:  E(RB3LYP) =  -584.109061648     A.U. after    8 cycles
 SCF Done:  E(RB3LYP) =  -584.109065585     A.U. after    8 cycles
 SCF Done:  E(RB3LYP) =  -584.109066479     A.U. after    7 cycles
 SCF Done:  E(RB3LYP) =  -584.109066690     A.U. after    6 cycles
 SCF Done:  E(RB3LYP) =  -584.109066738     A.U. after    6 cycles
 Optimization completed.
    -- Stationary point found.
 Normal termination of Gaussian 16 at Mon May 22 18:03:04 2023.

 ----------------------------------------------------------------------
 #N Geom=AllCheck Guess=TCheck SCRF=Check GenChk RB3LYP/6-31G(2df,p) Fr
 eq
 ----------------------------------------------------------------------

 Structure from the checkpoint file:  "CCCCqCrCqCCOrCCqCrO.chk"
 -------------------
 Title Card Required
 -------------------
 Charge =  0 Multiplicity = 1

                         Standard orientation:
 ---------------------------------------------------------------------
 Center     Atomic      Atomic             Coordinates (Angstroms)
 Number     Number       Type             X           Y           Z
 ---------------------------------------------------------------------
      1          6           0        4.749707   -0.282741   -0.096470
      2          6           0        3.461541   -1.100440   -0.231481
      3          6           0        2.205503   -0.280313    0.098844
      4          6           0        0.871319   -1.007809   -0.160755
      5          6           0        0.774089   -2.266586    0.719802
      6          6           0       -0.399443   -0.120158    0.028926
      7          6           0       -0.271441    1.323897   -0.521025
      8          6           0        0.201747    2.371500    0.491837
      9          8           0        0.180480    3.687915   -0.041632
     10          6           0       -1.635539   -0.824375   -0.596058
     11          6           0       -2.931621   -0.758504    0.228920
     12          6           0       -3.507188    0.645681    0.417486
     13          8           0       -3.914004   -1.631532   -0.327744
     14          1           0        5.632265   -0.885721   -0.331904
     15          1           0        4.870986    0.099398    0.923378
     16          1           0        4.746099    0.579895   -0.772410
     17          1           0        3.525094   -1.977192    0.422274
     18          1           0        3.379815   -1.488554   -1.255900
     19          1           0        2.246600    0.637943   -0.497610
     20          1           0        2.251254    0.034052    1.151538
     21          1           0        0.878144   -1.324735   -1.215472
     22          1           0        0.888183   -2.000677    1.778025
     23          1           0        1.552875   -2.993374    0.475297
     24          1           0       -0.186213   -2.777173    0.611635
     25          1           0       -0.569737   -0.045996    1.114575
     26          1           0       -1.244299    1.667800   -0.884813
     27          1           0        0.390786    1.332125   -1.398666
     28          1           0        1.193537    2.123887    0.894337
     29          1           0       -0.488946    2.390636    1.343201
     30          1           0        0.825964    3.724899   -0.754519
     31          1           0       -1.436222   -1.887775   -0.753360
     32          1           0       -1.825367   -0.404492   -1.594649
     33          1           0       -2.724139   -1.187518    1.218008
     34          1           0       -3.722468    1.113060   -0.551884
     35          1           0       -2.819697    1.302725    0.958263
     36          1           0       -4.442087    0.588420    0.981750
     37          1           0       -4.166288   -1.273610   -1.186226
 ---------------------------------------------------------------------

 SCF Done:  E(RB3LYP) =  -584.109066738     A.U. after    1 cycles

 The electronic state is 1-A.
 Alpha  occ. eigenvalues --  -19.13099 -19.12797 -10.22820 -10.22245 -10.18940
 Alpha  occ. eigenvalues --  -10.18734 -10.18002 -10.17769 -10.17766 -10.17497
 Alpha  occ. eigenvalues --  -10.17401 -10.17370 -10.17098  -1.01157  -1.01040
 Alpha  occ. eigenvalues --   -0.82790  -0.78684  -0.75282  -0.74297  -0.70234
 Alpha  occ. eigenvalues --   -0.67502  -0.64708  -0.61005  -0.59578  -0.57704
 Alpha  occ. eigenvalues --   -0.55582  -0.50030  -0.48345  -0.46867  -0.46203
 Alpha  occ. eigenvalues --   -0.45392  -0.44551  -0.43357  -0.41767  -0.41595
 Alpha  occ. eigenvalues --   -0.40642  -0.39920  -0.38699  -0.37927  -0.36975
 Alpha  occ. eigenvalues --   -0.36493  -0.35629  -0.35411  -0.34424  -0.33806
 Alpha  occ. eigenvalues --   -0.33011  -0.32688  -0.31848  -0.31447  -0.30385
 Alpha  occ. eigenvalues --   -0.29993  -0.26416  -0.25715
 Alpha virt. eigenvalues --    0.06727   0.07788   0.08550   0.09207   0.10142
 Alpha virt. eigenvalues --    0.11024   0.11981   0.12561   0.13279   0.14378
 Alpha virt. eigenvalues --    0.14605   0.15088   0.15259   0.15780   0.16751

 Mulliken charges:
               1
     1  C   -0.380338
     2  C   -0.176989
     3  C   -0.177827
     4  C    0.016888
     5  C   -0.402134
     6  C    0.018485
     7  C   -0.235965
     8  C   -0.067965
     9  O   -0.419164
    10  C   -0.229607
    11  C    0.131849
    12  C   -0.400187
    13  O   -0.431720
    14  H    0.111737
    15  H    0.114357
    16  H    0.110484
    17  H    0.101402
    18  H    0.093384
    19  H    0.085628
    20  H    0.092209
    21  H    0.067046
    22  H    0.110513
    23  H    0.117150
    24  H    0.120033
    25  H    0.064852
    26  H    0.103611
    27  H    0.083424
    28  H    0.091165
    29  H    0.109538
    30  H    0.279274
    31  H    0.105356
    32  H    0.077849
    33  H    0.087830
    34  H    0.106234
    35  H    0.125502
    36  H    0.122423
    37  H    0.273673
 Sum of Mulliken charges =  -0.00000

 Dipole moment (field-independent basis, Debye):
    X=              1.4495    Y=             -0.1107    Z=             -1.2300  Tot=              1.9042
 Quadrupole moment (field-independent basis, Debye-Ang):
   XX=            -86.3874   YY=            -95.5092   ZZ=            -80.4461
   XY=             -2.7064   XZ=              2.0752   YZ=             -2.3318

  Exact polarizability: 151.078   0.209 128.507  -0.222  -1.327 109.358
 Approx polarizability: 179.972   1.284 178.034   0.544  -2.286 178.676

                      1                      2                      3
                      A                      A                      A
 Frequencies --     34.6929                47.8543                62.2639
 Red. masses --      3.1238                 3.4438                 3.7257
 Frc consts  --      0.0022                 0.0046                 0.0085
 IR Inten    --      0.1880                 0.3619                 1.1682

                      4                      5                      6
                      A                      A                      A
 Frequencies --     67.2835                82.4115               108.2033
 Red. masses --      3.6888                 1.7504                 2.0711
 Frc consts  --      0.0098                 0.0070                 0.0143
 IR Inten    --      1.7053                 0.0434                 1.2410

                      7                      8                      9
                      A                      A                      A
 Frequencies --    115.6514               125.8091               201.2944
 Red. masses --      2.6230                 2.5668                 2.5450
 Frc consts  --      0.0207                 0.0239                 0.0608
 IR Inten    --      0.0309                 1.8819                 2.2546

                     10                     11                     12
                      A                      A                      A
 Frequencies --    212.8296               228.4863               242.2507
 Red. masses --      1.6020                 1.6795                 1.5919
 Frc consts  --      0.0428                 0.0517                 0.0550
 IR Inten    --      0.4806                 2.4080                20.5613

                     13                     14                     15
                      A                      A                      A
 Frequencies --    253.7611               277.2157               279.6483
 Red. masses --      1.2100                 1.1777                 1.3484
 Frc consts  --      0.0459                 0.0533                 0.0621
 IR Inten    --      0.8691                39.0031                28.1664

                     16                     17                     18
                      A                      A                      A
 Frequencies --    294.5369               297.9413               312.3945
 Red. masses --      2.6036                 1.5622                 2.2781
 Frc consts  --      0.1331                 0.0817                 0.1310
 IR Inten    --      7.7023                73.4881                23.0601

                     19                     20                     21
                      A                      A                      A
 Frequencies --    338.3254               370.8598               407.4014
 Red. masses --      2.6698                 3.0960                 2.5681
 Frc consts  --      0.1801                 0.2509                 0.2511
 IR Inten    --      2.6661                 7.0567                 1.1304

                     22                     23                     24
                      A                      A                      A
 Frequencies --    430.0778               457.7419               515.7878
 Red. masses --      2.6546                 1.9075                 2.4901
 Frc consts  --      0.2893                 0.2355                 0.3903
 IR Inten    --      8.6702                 3.5265                 1.2644

                     25                     26                     27
                      A                      A                      A
 Frequencies --    544.3291               565.1789               751.9761
 Red. masses --      2.6382                 3.0271                 1.1108
 Frc consts  --      0.4606                 0.5697                 0.3701
 IR Inten    --      4.1169                 1.7413                 2.0112

                     28                     29                     30
                      A                      A                      A
 Frequencies --    765.6651               817.3209               851.1038
 Red. masses --      1.2821                 2.3359                 1.8426
 Frc consts  --      0.4428                 0.9194                 0.7864
 IR Inten    --      5.2986                 2.5107                 2.1773

                     31                     32                     33
                      A                      A                      A
 Frequencies --    878.0352               882.9731               896.6627
 Red. masses --      1.4222                 1.4507                 1.9197
 Frc consts  --      0.6460                 0.6664                 0.9094
 IR Inten    --      2.6757                 2.0685                 1.1092

                     34                     35                     36
                      A                      A                      A
 Frequencies --    939.0639               951.6540               987.6778
 Red. masses --      1.8691                 2.0239                 1.5910
 Frc consts  --      0.9711                 1.0799                 0.9144
 IR Inten    --      4.7148                11.7320                 1.2286

                     37                     38                     39
                      A                      A                      A
 Frequencies --   1004.7339              1009.6141              1019.3748
 Red. masses --      2.0370                 2.5652                 1.5337
 Frc consts  --      1.2115                 1.5405                 0.9390
 IR Inten    --      9.3025                 9.9877                13.4802

                     40                     41                     42
                      A                      A                      A
 Frequencies --   1040.7386              1065.7600              1071.0527
 Red. masses --      2.2617                 2.5599                 2.2114
 Frc consts  --      1.4433                 1.7132                 1.4947
 IR Inten    --      3.5766                39.6884                92.3401

                     43                     44                     45
                      A                      A                      A
 Frequencies --   1074.3158              1087.3296              1110.7123
 Red. masses --      3.3923                 2.6245                 1.7605
 Frc consts  --      2.3068                 1.8282                 1.2796
 IR Inten    --     64.8994                10.6748                15.1394

                     46                     47                     48
                      A                      A                      A
 Frequencies --   1129.9396              1149.9189              1158.6498
 Red. masses --      1.5053                 2.2199                 2.5161
 Frc consts  --      1.1323                 1.7295                 1.9901
 IR Inten    --      8.4697                14.8182                 8.7534

                     49                     50                     51
                      A                      A                      A
 Frequencies --   1183.7436              1197.9299              1219.8827
 Red. masses --      1.8051                 1.5081                 1.4297
 Frc consts  --      1.4903                 1.2751                 1.2535
 IR Inten    --     13.0652                 6.3788                 2.9719

                     52                     53                     54
                      A                      A                      A
 Frequencies --   1254.6067              1281.0105              1294.2703
 Red. masses --      1.3209                 1.2860                 1.1968
 Frc consts  --      1.2250                 1.2434                 1.1812
 IR Inten    --      2.1977                 5.1933                 2.8975

                     55                     56                     57
                      A                      A                      A
 Frequencies --   1299.6103              1314.8982              1325.4572
 Red. masses --      1.3517                 1.2411                 1.2443
 Frc consts  --      1.3451                 1.2643                 1.2879
 IR Inten    --     10.0726                 5.7420                 2.3628

                     58                     59                     60
                      A                      A                      A
 Frequencies --   1330.0230              1350.3816              1364.0838
 Red. masses --      1.1717                 1.2651                 1.2779
 Frc consts  --      1.2212                 1.3592                 1.4009
 IR Inten    --      1.5880                 5.5758                 5.4805

                     61                     62                     63
                      A                      A                      A
 Frequencies --   1370.5567              1379.6160              1380.8141
 Red. masses --      1.3649                 1.3859                 1.3531
 Frc consts  --      1.5106                 1.5542                 1.5200
 IR Inten    --      1.3236                 1.4848                 2.5688

                     64                     65                     66
                      A                      A                      A
 Frequencies --   1392.4704              1400.3850              1403.9992
 Red. masses --      1.4698                 1.2796                 1.2528
 Frc consts  --      1.6792                 1.4785                 1.4551
 IR Inten    --      7.4061                13.7447                 5.1162

                     67                     68                     69
                      A                      A                      A
 Frequencies --   1411.4531              1415.3223              1419.3899
 Red. masses --      1.2325                 1.2336                 1.2692
 Frc consts  --      1.4467                 1.4559                 1.5066
 IR Inten    --      2.1408                 4.1808                65.6495

                     70                     71                     72
                      A                      A                      A
 Frequencies --   1422.4694              1480.4015              1484.8179
 Red. masses --      1.2472                 1.0701                 1.0679
 Frc consts  --      1.4868                 1.3818                 1.3871
 IR Inten    --     33.1116                 0.2877                 3.8255

                     73                     74                     75
                      A                      A                      A
 Frequencies --   1486.3367              1493.8484              1496.9223
 Red. masses --      1.0680                 1.0587                 1.0578
 Frc consts  --      1.3901                 1.3921                 1.3965
 IR Inten    --      3.1252                 1.1949                 4.0553

                     76                     77                     78
                      A                      A                      A
 Frequencies --   1499.6848              1499.8264              1504.4895
 Red. masses --      1.0571                 1.0490                 1.0549
 Frc consts  --      1.4007                 1.3902                 1.4068
 IR Inten    --      3.4073                 5.1153                 1.6977

                     79                     80                     81
                      A                      A                      A
 Frequencies --   1509.7747              1514.1941              1517.2984
 Red. masses --      1.0847                 1.0591                 1.0886
 Frc consts  --      1.4567                 1.4308                 1.4766
 IR Inten    --      2.3791                10.0533                 0.5148

                     82                     83                     84
                      A                      A                      A
 Frequencies --   2969.8704              2983.5058              3001.5996
 Red. masses --      1.0794                 1.0819                 1.0671
 Frc consts  --      5.6090                 5.6743                 5.6644
 IR Inten    --      1.3048                12.7679                11.2835

                     85                     86                     87
                      A                      A                      A
 Frequencies --   3002.4953              3008.6747              3013.7280
 Red. masses --      1.0684                 1.0695                 1.0658
 Frc consts  --      5.6746                 5.7038                 5.7033
 IR Inten    --     15.5995                18.0249                35.0913

                     88                     89                     90
                      A                      A                      A
 Frequencies --   3019.7632              3022.2019              3027.5686
 Red. masses --      1.0634                 1.0539                 1.0364
 Frc consts  --      5.7133                 5.6717                 5.5973
 IR Inten    --     46.8862                12.1446                39.3424

                     91                     92                     93
                      A                      A                      A
 Frequencies --   3030.4514              3031.9294              3049.7198
 Red. masses --      1.0666                 1.0439                 1.0921
 Frc consts  --      5.7715                 5.6540                 5.9845
 IR Inten    --     27.8489                36.7223                 1.9700

                     94                     95                     96
                      A                      A                      A
 Frequencies --   3056.9106              3069.1893              3080.8976
 Red. masses --      1.0939                 1.0988                 1.0948
 Frc consts  --      6.0226                 6.0986                 6.1229
 IR Inten    --     22.5925                27.8630                34.5836

                     97                     98                     99
                      A                      A                      A
 Frequencies --   3085.2770              3095.2936              3096.7508
 Red. masses --      1.0932                 1.1022                 1.0954
 Frc consts  --      6.1313                 6.2216                 6.1894
 IR Inten    --     48.3514                62.4453                37.4008

                    100                    101                    102
                      A                      A                      A
 Frequencies --   3100.2544              3102.2204              3118.0868
 Red. masses --      1.1000                 1.0937                 1.0999
 Frc consts  --      6.2290                 6.2012                 6.3008
 IR Inten    --     18.2695                52.2399                38.1629

                    103                    104                    105
                      A                      A                      A
 Frequencies --   3118.5564              3796.6867              3815.6517
 Red. masses --      1.1017                 1.0658                 1.0661
 Frc consts  --      6.3128                 9.0521                 9.1453
 IR Inten    --     23.1099                12.6127                14.2720

 - Thermochemistry -
 -------------------
 Temperature   298.150 Kelvin.  Pressure   1.00000 Atm.
 Atom     1 has atomic number  6 and mass  12.00000

 Molecular mass:   188.17763 amu.
 Principal axes and moments of inertia in atomic units:
                           1         2         3
     Eigenvalues --  2057.251844507.627256222.36625
           X            0.99977  -0.02159  -0.00065
           Y            0.02159   0.99976  -0.00437
           Z            0.00075   0.00436   0.99999
 This molecule is an asymmetric top.
 Rotational symmetry number  1.
 Warning -- assumption of classical behavior for rotation
           may cause significant error
 Rotational temperatures (Kelvin)      0.04210     0.01921     0.01392
 Rotational constants (GHZ):           0.87726     0.40037     0.29004
 Zero-point vibrational energy     891910.3 (Joules/Mol)
                                  213.17167 (Kcal/Mol)
 Warning -- explicit consideration of  26 degrees of freedom as
           vibrations may cause significant error
 Vibrational temperatures:     49.92    68.85    89.58    96.81   118.57
          (Kelvin)            155.68   166.40   181.01   289.62   306.21
                              328.74   348.54   365.11   398.85   402.35
                              423.77   428.67   449.47   486.77   533.58
                              586.16   618.79   658.59   742.10   783.17
                              813.17  1081.93  1101.62  1175.94  1224.55
                             1263.30  1270.40  1290.10  1351.10  1369.22
                             1421.05  1445.59  1452.61  1466.65  1497.39
                             1533.39  1541.01  1545.70  1564.42  1598.07
                             1625.73  1654.48  1667.04  1703.14  1723.55
                             1755.14  1805.10  1843.09  1862.17  1869.85
                             1891.85  1907.04  1913.61  1942.90  1962.61
                             1971.93  1984.96  1986.68  2003.45  2014.84
                             2020.04  2030.77  2036.33  2042.19  2046.62
                             2129.97  2136.32  2138.51  2149.31  2153.74
                             2157.71  2157.92  2164.62  2172.23  2178.59
                             2183.05  4272.98  4292.60  4318.63  4319.92
                             4328.81  4336.08  4344.77  4348.27  4356.00
                             4360.14  4362.27  4387.87  4398.21  4415.88
                             4432.72  4439.03  4453.44  4455.53  4460.57
                             4463.40  4486.23  4486.91  5462.59  5489.87

 Zero-point correction=                           0.339711 (Hartree/Particle)
 Thermal correction to Energy=                    0.356855
 Thermal correction to Enthalpy=                  0.357799
 Thermal correction to Gibbs Free Energy=         0.294644
 Sum of electronic and zero-point Energies=           -583.769356
 Sum of electronic and thermal Energies=              -583.752212
 Sum of electronic and thermal Enthalpies=            -583.751268
 Sum of electronic and thermal Free Energies=         -583.814423

                     E (Thermal)             CV                S
                      KCal/Mol        Cal/Mol-Kelvin    Cal/Mol-Kelvin
 Total                  223.930             62.765            132.922
 Electronic               0.000              0.000              0.000
 Translational            0.889              2.981             41.603
 Rotational               0.889              2.981             32.423
 Vibrational            222.152             56.803             58.896
 Vibration     1          0.594              1.983              5.541
 Vibration     2          0.595              1.978              4.904
 Vibration     3          0.597              1.972              4.384
 Vibration     4          0.598              1.970              4.231
 Vibration     5          0.600              1.961              3.833
 Vibration     6          0.606              1.943              3.301
 Vibration     7          0.608              1.936              3.172
 Vibration     8          0.611              1.927              3.009
 Vibration     9          0.638              1.838              2.121
 Vibration    10          0.644              1.821              2.019
 Vibration    11          0.651              1.798              1.891
 Vibration    12          0.658              1.776              1.786
 Vibration    13          0.665              1.756              1.704
 Vibration    14          0.678              1.716              1.551
 Vibration    15          0.680              1.711              1.536
 Vibration    16          0.689              1.684              1.448
 Vibration    17          0.691              1.678              1.428
 Vibration    18          0.701              1.650              1.350
 Vibration    19          0.719              1.599              1.220
 Vibration    20          0.743              1.532              1.076
 Vibration    21          0.772              1.454              0.936
 Vibration    22          0.791              1.405              0.858
 Vibration    23          0.816              1.344              0.773
 Vibration    24          0.871              1.215              0.620
 Vibration    25          0.899              1.152              0.556
 Vibration    26          0.921              1.107              0.514

                           ! Non-Optimized Parameters !
 Normal termination of Gaussian 16 at Mon May 22 20:14:29 2023.
