 Gaussian 16, Revision A.03,
 Gaussian 16:  ES64L-G16RevA.03 25-Dec-2016

 -----------------------------
 # opt freq b3lyp/6-31g(2df,p)
 -----------------------------

 -------------------
 Title Card Required
 -------------------
 Symbolic Z-matrix:
 Charge =  0 Multiplicity = 1

 SCF Done:  E(RB3LYP) =  -589.694051772     A.U. after   12 cycles
 SCF Done:  E(RB3LYP) =  -589.712540310     A.U. after   10 cycles
 SCF Done:  E(RB3LYP) =  -589.718064684     A.U. after   10 cycles
 SCF Done:  E(RB3LYP) =  -589.721077851     A.U. after    9 cycles
 SCF Done:  E(RB3LYP) =  -589.724737317     A.U. after   12 cycles
 SCF Done:  E(RB3LYP) =  -589.725873625     A.U. after   10 cycles
 SCF Done:  E(RB3LYP) =  -589.726474397     A.U. after    9 cycles
 SCF Done:  E(RB3LYP) =  -589.726544582     A.U. after    9 cycles
 SCF Done:  E(RB3LYP) =  -589.726579021     A.U. after    8 cycles
 SCF Done:  E(RB3LYP) =  -589.726586095     A.U. after    8 cycles
 SCF Done:  E(RB3LYP) =  -589.726587477     A.U. after    6 cycles
 SCF Done:  E(RB3LYP) =  -589.726587828     A.U. after    5 cycles
 SCF Done:  E(RB3LYP) =  -589.726588072     A.U. after    6 cycles
 SCF Done:  E(RB3LYP) =  -589.726588116     A.U. after    5 cycles
 SCF Done:  E(RB3LYP) =  -589.726588164     A.U. after    5 cycles
 SCF Done:  E(RB3LYP) =  -589.726588191     A.U. after    5 cycles
 SCF Done:  E(RB3LYP) =  -589.726588198     A.U. after    5 cycles
 Optimization completed.
    -- Stationary point found.
 Normal termination of Gaussian 16 at Mon May 22 17:02:28 2023.

 ----------------------------------------------------------------------
 #N Geom=AllCheck Guess=TCheck SCRF=Check GenChk RB3LYP/6-31G(2df,p) Fr
 eq
 ----------------------------------------------------------------------

 Structure from the checkpoint file:  "CCCCCCC1CCCCCqCrCC1.chk"
 -------------------
 Title Card Required
 -------------------
 Charge =  0 Multiplicity = 1

                         Standard orientation:
 ---------------------------------------------------------------------
 Center     Atomic      Atomic             Coordinates (Angstroms)
 Number     Number       Type             X           Y           Z
 ---------------------------------------------------------------------
      1          6           0       -6.796841    0.312060   -0.825833
      2          6           0       -5.669079   -0.367754   -0.044631
      3          6           0       -4.283146    0.203723   -0.362850
      4          6           0       -3.148480   -0.471092    0.414914
      5          6           0       -1.761655    0.099091    0.093622
      6          6           0       -0.636392   -0.586688    0.879107
      7          6           0        0.801892   -0.140254    0.526315
      8          6           0        1.040551    1.316318    0.961483
      9          6           0        2.362878    1.993853    0.539645
     10          6           0        2.886001    1.661068   -0.878962
     11          6           0        4.072870    0.680519   -0.914742
     12          6           0        3.877954   -0.802063   -0.516183
     13          6           0        3.166957   -1.628588   -1.599536
     14          6           0        3.309208   -1.026293    0.910756
     15          6           0        1.785520   -1.176185    1.107461
     16          1           0       -7.772636   -0.117319   -0.577480
     17          1           0       -6.651021    0.203680   -1.906514
     18          1           0       -6.839816    1.384811   -0.606192
     19          1           0       -5.673334   -1.445102   -0.257643
     20          1           0       -5.860414   -0.272923    1.032623
     21          1           0       -4.278901    1.282278   -0.150590
     22          1           0       -4.091517    0.109352   -1.441165
     23          1           0       -3.155532   -1.549878    0.204632
     24          1           0       -3.339763   -0.373995    1.492914
     25          1           0       -1.768966    1.177399    0.295280
     26          1           0       -1.568340   -0.006977   -0.983376
     27          1           0       -0.713480   -1.669098    0.708989
     28          1           0       -0.803114   -0.442045    1.956574
     29          1           0        0.878102   -0.176349   -0.567158
     30          1           0        0.940742    1.383957    2.054069
     31          1           0        0.219826    1.917062    0.553061
     32          1           0        3.150934    1.771826    1.266332
     33          1           0        2.204230    3.075730    0.616091
     34          1           0        3.235859    2.588181   -1.347602
     35          1           0        2.068979    1.307868   -1.518964
     36          1           0        4.854396    1.096788   -0.263721
     37          1           0        4.496636    0.692118   -1.927994
     38          1           0        4.903450   -1.195413   -0.474236
     39          1           0        2.149597   -1.281931   -1.800396
     40          1           0        3.102911   -2.683715   -1.311587
     41          1           0        3.721074   -1.577793   -2.543029
     42          1           0        3.700572   -0.243893    1.569482
     43          1           0        3.743560   -1.959910    1.291696
     44          1           0        1.606115   -1.248130    2.190052
     45          1           0        1.490423   -2.152877    0.702450
 ---------------------------------------------------------------------

 SCF Done:  E(RB3LYP) =  -589.726588198     A.U. after    1 cycles

 The electronic state is 1-A.
 Alpha  occ. eigenvalues --  -10.17932 -10.17499 -10.17403 -10.17170 -10.17149
 Alpha  occ. eigenvalues --  -10.17127 -10.17113 -10.17047 -10.17037 -10.17017
 Alpha  occ. eigenvalues --  -10.16984 -10.16942 -10.16920 -10.16844 -10.16628
 Alpha  occ. eigenvalues --   -0.82266  -0.80125  -0.78468  -0.76576  -0.75073
 Alpha  occ. eigenvalues --   -0.70707  -0.69612  -0.66658  -0.64611  -0.61775
 Alpha  occ. eigenvalues --   -0.57892  -0.57520  -0.56826  -0.55051  -0.51744
 Alpha  occ. eigenvalues --   -0.47469  -0.46593  -0.46318  -0.44241  -0.43805
 Alpha  occ. eigenvalues --   -0.42555  -0.42030  -0.41586  -0.41028  -0.40219
 Alpha  occ. eigenvalues --   -0.38911  -0.38698  -0.37632  -0.37184  -0.36996
 Alpha  occ. eigenvalues --   -0.35387  -0.34510  -0.34018  -0.33853  -0.32959
 Alpha  occ. eigenvalues --   -0.32301  -0.32153  -0.31911  -0.31487  -0.31215
 Alpha  occ. eigenvalues --   -0.30725  -0.30606  -0.28842  -0.28578  -0.27663
 Alpha virt. eigenvalues --    0.07232   0.08958   0.09318   0.10092   0.11006
 Alpha virt. eigenvalues --    0.11603   0.11860   0.12543   0.13201   0.14336
 Alpha virt. eigenvalues --    0.14663   0.15196   0.15326   0.15993   0.16441

 Mulliken charges:
               1
     1  C   -0.378994
     2  C   -0.162584
     3  C   -0.159491
     4  C   -0.175864
     5  C   -0.198681
     6  C   -0.184153
     7  C    0.018690
     8  C   -0.188543
     9  C   -0.203950
    10  C   -0.186818
    11  C   -0.198652
    12  C    0.052714
    13  C   -0.400646
    14  C   -0.239336
    15  C   -0.185993
    16  H    0.109276
    17  H    0.112177
    18  H    0.112177
    19  H    0.092683
    20  H    0.092674
    21  H    0.089479
    22  H    0.089318
    23  H    0.089934
    24  H    0.090478
    25  H    0.096435
    26  H    0.088872
    27  H    0.084620
    28  H    0.087542
    29  H    0.070346
    30  H    0.085600
    31  H    0.095891
    32  H    0.095559
    33  H    0.086927
    34  H    0.088937
    35  H    0.093793
    36  H    0.088235
    37  H    0.084097
    38  H    0.070384
    39  H    0.119644
    40  H    0.109557
    41  H    0.107296
    42  H    0.094826
    43  H    0.087611
    44  H    0.086035
    45  H    0.091896
 Sum of Mulliken charges =  -0.00000

 Dipole moment (field-independent basis, Debye):
    X=              0.1000    Y=             -0.0071    Z=              0.0090  Tot=              0.1007
 Quadrupole moment (field-independent basis, Debye-Ang):
   XX=           -100.1712   YY=            -99.2438   ZZ=            -99.4020
   XY=             -0.0236   XZ=             -0.2690   YZ=              0.4565

  Exact polarizability: 193.844  -0.624 151.179  -2.806  -0.782 143.607
 Approx polarizability: 224.305   0.209 222.518  -0.938   0.880 222.181

                      1                      2                      3
                      A                      A                      A
 Frequencies --     27.5912                34.1891                47.0111
 Red. masses --      2.5781                 1.8476                 3.3199
 Frc consts  --      0.0012                 0.0013                 0.0043
 IR Inten    --      0.0010                 0.0005                 0.0056

                      4                      5                      6
                      A                      A                      A
 Frequencies --     75.8751               102.3271               110.5469
 Red. masses --      3.0815                 2.4825                 1.7502
 Frc consts  --      0.0105                 0.0153                 0.0126
 IR Inten    --      0.0215                 0.0085                 0.0050

                      7                      8                      9
                      A                      A                      A
 Frequencies --    128.3953               154.8867               161.9856
 Red. masses --      2.3797                 2.0337                 2.5195
 Frc consts  --      0.0231                 0.0287                 0.0390
 IR Inten    --      0.0196                 0.0187                 0.0144

                     10                     11                     12
                      A                      A                      A
 Frequencies --    175.5436               200.7743               220.1493
 Red. masses --      2.5230                 2.6293                 1.2207
 Frc consts  --      0.0458                 0.0624                 0.0349
 IR Inten    --      0.0387                 0.0018                 0.0511

                     13                     14                     15
                      A                      A                      A
 Frequencies --    229.3339               247.8063               253.9843
 Red. masses --      2.3159                 1.1233                 2.1947
 Frc consts  --      0.0718                 0.0406                 0.0834
 IR Inten    --      0.0606                 0.0031                 0.1019

                     16                     17                     18
                      A                      A                      A
 Frequencies --    273.6822               307.3323               318.9114
 Red. masses --      3.2686                 2.4597                 2.7724
 Frc consts  --      0.1442                 0.1369                 0.1661
 IR Inten    --      0.0055                 0.0532                 0.1605

                     19                     20                     21
                      A                      A                      A
 Frequencies --    365.7376               388.8033               409.6524
 Red. masses --      2.0172                 2.3151                 1.8441
 Frc consts  --      0.1590                 0.2062                 0.1823
 IR Inten    --      0.0728                 0.1036                 0.3753

                     22                     23                     24
                      A                      A                      A
 Frequencies --    451.6423               455.3605               481.5233
 Red. masses --      3.0312                 2.5344                 2.1292
 Frc consts  --      0.3643                 0.3096                 0.2909
 IR Inten    --      0.2470                 0.3969                 0.1619

                     25                     26                     27
                      A                      A                      A
 Frequencies --    580.6513               624.3290               678.1754
 Red. masses --      2.7247                 2.0714                 2.3538
 Frc consts  --      0.5412                 0.4757                 0.6378
 IR Inten    --      1.3032                 1.6404                 0.3429

                     28                     29                     30
                      A                      A                      A
 Frequencies --    730.1169               738.5818               749.4440
 Red. masses --      1.0838                 1.1977                 1.7552
 Frc consts  --      0.3404                 0.3850                 0.5808
 IR Inten    --      3.7079                 0.4576                 0.8355

                     31                     32                     33
                      A                      A                      A
 Frequencies --    784.6503               802.3292               812.5094
 Red. masses --      1.2544                 2.2785                 1.5691
 Frc consts  --      0.4550                 0.8642                 0.6103
 IR Inten    --      0.4945                 2.2807                 1.2741

                     34                     35                     36
                      A                      A                      A
 Frequencies --    828.6345               878.7886               897.3931
 Red. masses --      1.7411                 1.3681                 1.9538
 Frc consts  --      0.7044                 0.6225                 0.9270
 IR Inten    --      0.5532                 0.5687                 0.9947

                     37                     38                     39
                      A                      A                      A
 Frequencies --    917.9073               930.6927               949.5233
 Red. masses --      1.7588                 1.8263                 1.8641
 Frc consts  --      0.8731                 0.9320                 0.9902
 IR Inten    --      0.5767                 2.1965                 0.9287

                     40                     41                     42
                      A                      A                      A
 Frequencies --    972.0433               975.5533               992.6371
 Red. masses --      1.5665                 2.3728                 1.6874
 Frc consts  --      0.8721                 1.3305                 0.9796
 IR Inten    --      0.6424                 0.5534                 0.4714

                     43                     44                     45
                      A                      A                      A
 Frequencies --   1005.1559              1025.9054              1031.3867
 Red. masses --      2.7035                 1.6091                 1.9017
 Frc consts  --      1.6093                 0.9978                 1.1919
 IR Inten    --      0.0402                 1.3604                 0.8786

                     46                     47                     48
                      A                      A                      A
 Frequencies --   1035.9934              1050.1803              1061.7151
 Red. masses --      2.2696                 2.1238                 2.5763
 Frc consts  --      1.4352                 1.3801                 1.7110
 IR Inten    --      0.9121                 1.5416                 0.1763

                     49                     50                     51
                      A                      A                      A
 Frequencies --   1070.5261              1073.5601              1110.9834
 Red. masses --      1.9068                 2.0982                 2.0798
 Frc consts  --      1.2875                 1.4248                 1.5125
 IR Inten    --      0.1175                 0.5627                 0.5480

                     52                     53                     54
                      A                      A                      A
 Frequencies --   1113.5413              1128.1861              1136.2167
 Red. masses --      2.2368                 1.9638                 1.3932
 Frc consts  --      1.6341                 1.4727                 1.0597
 IR Inten    --      0.7403                 0.4484                 0.2554

                     55                     56                     57
                      A                      A                      A
 Frequencies --   1152.4544              1173.5164              1208.4321
 Red. masses --      2.1222                 2.2001                 1.6427
 Frc consts  --      1.6607                 1.7851                 1.4134
 IR Inten    --      0.9788                 0.0942                 1.4535

                     58                     59                     60
                      A                      A                      A
 Frequencies --   1222.2053              1230.7543              1245.6151
 Red. masses --      1.6432                 1.1455                 1.2885
 Frc consts  --      1.4462                 1.0223                 1.1779
 IR Inten    --      0.4743                 0.7679                 0.4436

                     61                     62                     63
                      A                      A                      A
 Frequencies --   1258.5308              1269.2250              1275.4004
 Red. masses --      1.3188                 1.2722                 1.2292
 Frc consts  --      1.2308                 1.2075                 1.1781
 IR Inten    --      1.4134                 2.9062                 1.0218

                     64                     65                     66
                      A                      A                      A
 Frequencies --   1298.7994              1303.9089              1316.6848
 Red. masses --      1.2364                 1.2895                 1.2250
 Frc consts  --      1.2289                 1.2917                 1.2513
 IR Inten    --      1.5460                 0.5407                 0.7294

                     67                     68                     69
                      A                      A                      A
 Frequencies --   1325.0822              1330.7461              1335.8552
 Red. masses --      1.1199                 1.1468                 1.1168
 Frc consts  --      1.1585                 1.1966                 1.1742
 IR Inten    --      1.3936                 0.7037                 0.2790

                     70                     71                     72
                      A                      A                      A
 Frequencies --   1339.2870              1351.0575              1361.8061
 Red. masses --      1.1896                 1.3868                 1.3078
 Frc consts  --      1.2572                 1.4914                 1.4290
 IR Inten    --      0.9458                 2.4450                 2.3000

                     73                     74                     75
                      A                      A                      A
 Frequencies --   1365.7938              1372.5753              1379.3079
 Red. masses --      1.2682                 1.3690                 1.3807
 Frc consts  --      1.3939                 1.5196                 1.5476
 IR Inten    --      0.5656                 3.9136                 1.4071

                     76                     77                     78
                      A                      A                      A
 Frequencies --   1383.0348              1395.7280              1396.4820
 Red. masses --      1.3597                 1.3738                 1.3689
 Frc consts  --      1.5324                 1.5768                 1.5728
 IR Inten    --      5.5475                 0.9756                 4.4461

                     79                     80                     81
                      A                      A                      A
 Frequencies --   1400.3611              1404.4173              1411.3188
 Red. masses --      1.6013                 1.3696                 1.3815
 Frc consts  --      1.8501                 1.5916                 1.6212
 IR Inten    --      1.6442                 3.2739                 1.5754

                     82                     83                     84
                      A                      A                      A
 Frequencies --   1413.1815              1418.3345              1419.1022
 Red. masses --      1.2541                 1.3884                 1.3040
 Frc consts  --      1.4756                 1.6456                 1.5472
 IR Inten    --      0.4788                 0.5456                 9.8273

                     85                     86                     87
                      A                      A                      A
 Frequencies --   1472.3349              1480.2070              1482.0909
 Red. masses --      1.0787                 1.0811                 1.0770
 Frc consts  --      1.3778                 1.3956                 1.3938
 IR Inten    --      0.2067                 0.8115                 0.8105

                     88                     89                     90
                      A                      A                      A
 Frequencies --   1483.0622              1485.2149              1488.3461
 Red. masses --      1.0735                 1.0762                 1.0790
 Frc consts  --      1.3912                 1.3987                 1.4083
 IR Inten    --      0.6614                 1.2823                 3.3958

                     91                     92                     93
                      A                      A                      A
 Frequencies --   1489.4106              1495.5409              1497.1016
 Red. masses --      1.0863                 1.0773                 1.0827
 Frc consts  --      1.4198                 1.4197                 1.4297
 IR Inten    --      3.3567                 4.7946                 1.8665

                     94                     95                     96
                      A                      A                      A
 Frequencies --   1499.8468              1501.1579              1505.6585
 Red. masses --      1.0403                 1.0553                 1.0626
 Frc consts  --      1.3788                 1.4011                 1.4192
 IR Inten    --      4.8758                 4.8493                 0.6294

                     97                     98                     99
                      A                      A                      A
 Frequencies --   1506.9327              1514.8710              1517.8818
 Red. masses --      1.0833                 1.0942                 1.0825
 Frc consts  --      1.4494                 1.4795                 1.4694
 IR Inten    --      0.1156                 2.9765                 6.0774

                    100                    101                    102
                      A                      A                      A
 Frequencies --   2984.0681              2994.3260              2997.9881
 Red. masses --      1.0775                 1.0598                 1.0594
 Frc consts  --      5.6530                 5.5986                 5.6100
 IR Inten    --      5.1082                 1.6774                 2.8372

                    103                    104                    105
                      A                      A                      A
 Frequencies --   2999.7649              3000.6804              3004.2283
 Red. masses --      1.0605                 1.0592                 1.0654
 Frc consts  --      5.6228                 5.6194                 5.6652
 IR Inten    --      2.6877                 0.5119                46.3680

                    106                    107                    108
                      A                      A                      A
 Frequencies --   3006.1692              3009.5094              3015.7813
 Red. masses --      1.0653                 1.0639                 1.0621
 Frc consts  --      5.6724                 5.6770                 5.6915
 IR Inten    --     29.5488                12.4174                83.7346

                    109                    110                    111
                      A                      A                      A
 Frequencies --   3019.8317              3020.1880              3023.0868
 Red. masses --      1.0941                 1.0756                 1.0661
 Frc consts  --      5.8784                 5.7803                 5.7404
 IR Inten    --      7.2208                24.6265                41.8617

                    112                    113                    114
                      A                      A                      A
 Frequencies --   3025.1861              3026.3749              3027.5639
 Red. masses --      1.0902                 1.0844                 1.0365
 Frc consts  --      5.8782                 5.8516                 5.5975
 IR Inten    --     18.3024                23.6020                40.1123

                    115                    116                    117
                      A                      A                      A
 Frequencies --   3031.4103              3032.4567              3033.1621
 Red. masses --      1.0726                 1.0828                 1.0691
 Frc consts  --      5.8072                 5.8667                 5.7953
 IR Inten    --     17.5556                56.8707                11.7004

                    118                    119                    120
                      A                      A                      A
 Frequencies --   3037.8303              3042.6187              3051.0584
 Red. masses --      1.0924                 1.0794                 1.0944
 Frc consts  --      5.9398                 5.8874                 6.0024
 IR Inten    --      4.3484                36.0518                29.9896

                    121                    122                    123
                      A                      A                      A
 Frequencies --   3052.2374              3062.3033              3062.8117
 Red. masses --      1.1022                 1.0990                 1.0995
 Frc consts  --      6.0497                 6.0720                 6.0770
 IR Inten    --      3.7173                23.2666                24.8521

                    124                    125                    126
                      A                      A                      A
 Frequencies --   3067.6152              3079.8263              3091.3526
 Red. masses --      1.1001                 1.0948                 1.1010
 Frc consts  --      6.0991                 6.1182                 6.1990
 IR Inten    --    191.3056                78.6897                32.9890

                    127                    128                    129
                      A                      A                      A
 Frequencies --   3093.6315              3098.9404              3110.4792
 Red. masses --      1.1020                 1.1009                 1.0983
 Frc consts  --      6.2141                 6.2293                 6.2608
 IR Inten    --     60.6427                40.7880                40.8306

 - Thermochemistry -
 -------------------
 Temperature   298.150 Kelvin.  Pressure   1.00000 Atm.
 Atom     1 has atomic number  6 and mass  12.00000

 Molecular mass:   210.23475 amu.
 Principal axes and moments of inertia in atomic units:
                           1         2         3
     Eigenvalues --  1497.011249965.77548**********
           X            1.00000  -0.00136   0.00063
           Y            0.00136   0.99999   0.00365
           Z           -0.00063  -0.00365   0.99999
 This molecule is an asymmetric top.
 Rotational symmetry number  1.
 Warning -- assumption of classical behavior for rotation
           may cause significant error
 Rotational temperatures (Kelvin)      0.05786     0.00869     0.00844
 Rotational constants (GHZ):           1.20556     0.18109     0.17591
 Zero-point vibrational energy    1116065.0 (Joules/Mol)
                                  266.74593 (Kcal/Mol)
 Warning -- explicit consideration of  25 degrees of freedom as
           vibrations may cause significant error
 Vibrational temperatures:     39.70    49.19    67.64   109.17   147.23
          (Kelvin)            159.05   184.73   222.85   233.06   252.57
                              288.87   316.75   329.96   356.54   365.43
                              393.77   442.18   458.84   526.21   559.40
                              589.40   649.81   655.16   692.80   835.43
                              898.27   975.74  1050.48  1062.65  1078.28
                             1128.94  1154.37  1169.02  1192.22  1264.38
                             1291.15  1320.66  1339.06  1366.15  1398.55
                             1403.60  1428.18  1446.20  1476.05  1483.94
                             1490.56  1510.98  1527.57  1540.25  1544.61
                             1598.46  1602.14  1623.21  1634.76  1658.12
                             1688.43  1738.66  1758.48  1770.78  1792.16
                             1810.75  1826.13  1835.02  1868.68  1876.03
                             1894.42  1906.50  1914.65  1922.00  1926.94
                             1943.87  1959.34  1965.07  1974.83  1984.52
                             1989.88  2008.14  2009.23  2014.81  2020.64
                             2030.57  2033.25  2040.67  2041.77  2118.36
                             2129.69  2132.40  2133.80  2136.89  2141.40
                             2142.93  2151.75  2154.00  2157.95  2159.83
                             2166.31  2168.14  2179.56  2183.89  4293.41
                             4308.17  4313.44  4315.99  4317.31  4322.41
                             4325.21  4330.01  4339.04  4344.86  4345.38
                             4349.55  4352.57  4354.28  4355.99  4361.52
                             4363.03  4364.04  4370.76  4377.65  4389.79
                             4391.49  4405.97  4406.70  4413.61  4431.18
                             4447.77  4451.05  4458.68  4475.29

 Zero-point correction=                           0.425087 (Hartree/Particle)
 Thermal correction to Energy=                    0.442989
 Thermal correction to Enthalpy=                  0.443933
 Thermal correction to Gibbs Free Energy=         0.378571
 Sum of electronic and zero-point Energies=           -589.301501
 Sum of electronic and thermal Energies=              -589.283599
 Sum of electronic and thermal Enthalpies=            -589.282655
 Sum of electronic and thermal Free Energies=         -589.348018

                     E (Thermal)             CV                S
                      KCal/Mol        Cal/Mol-Kelvin    Cal/Mol-Kelvin
 Total                  277.980             68.227            137.568
 Electronic               0.000              0.000              0.000
 Translational            0.889              2.981             41.933
 Rotational               0.889              2.981             33.392
 Vibrational            276.203             62.265             62.242
 Vibration     1          0.593              1.984              5.995
 Vibration     2          0.594              1.983              5.570
 Vibration     3          0.595              1.979              4.939
 Vibration     4          0.599              1.965              3.995
 Vibration     5          0.604              1.947              3.410
 Vibration     6          0.606              1.941              3.259
 Vibration     7          0.611              1.925              2.970
 Vibration     8          0.620              1.897              2.611
 Vibration     9          0.622              1.889              2.526
 Vibration    10          0.627              1.873              2.375
 Vibration    11          0.638              1.839              2.126
 Vibration    12          0.647              1.810              1.958
 Vibration    13          0.652              1.796              1.884
 Vibration    14          0.661              1.766              1.746
 Vibration    15          0.665              1.756              1.703
 Vibration    16          0.676              1.722              1.573
 Vibration    17          0.697              1.660              1.377
 Vibration    18          0.705              1.637              1.316
 Vibration    19          0.739              1.543              1.098
 Vibration    20          0.757              1.494              1.005
 Vibration    21          0.774              1.449              0.928
 Vibration    22          0.810              1.357              0.791
 Vibration    23          0.814              1.349              0.780
 Vibration    24          0.838              1.291              0.706
 Vibration    25          0.937              1.073              0.484

 Optimization completed.
    -- Stationary point found.
 Normal termination of Gaussian 16 at Mon May 22 20:58:44 2023.
