 Gaussian 16, Revision A.03,
 Gaussian 16:  ES64L-G16RevA.03 25-Dec-2016

 -----------------------------
 # opt freq b3lyp/6-31g(2df,p)
 -----------------------------

 -------------------
 Title Card Required
 -------------------
 Symbolic Z-matrix:
 Charge =  0 Multiplicity = 1

 SCF Done:  E(RB3LYP) =  -730.136472093     A.U. after   12 cycles
 SCF Done:  E(RB3LYP) =  -730.159600774     A.U. after   11 cycles
 SCF Done:  E(RB3LYP) =  -730.172664198     A.U. after   11 cycles
 SCF Done:  E(RB3LYP) =  -730.178469856     A.U. after   11 cycles
 SCF Done:  E(RB3LYP) =  -730.180842552     A.U. after   11 cycles
 SCF Done:  E(RB3LYP) =  -730.182200806     A.U. after   11 cycles
 SCF Done:  E(RB3LYP) =  -730.183477542     A.U. after   12 cycles
 SCF Done:  E(RB3LYP) =  -730.185086620     A.U. after   11 cycles
 SCF Done:  E(RB3LYP) =  -730.181302671     A.U. after   12 cycles
 SCF Done:  E(RB3LYP) =  -730.181166560     A.U. after   11 cycles
 SCF Done:  E(RB3LYP) =  -730.199735838     A.U. after    9 cycles
 SCF Done:  E(RB3LYP) =  -730.199743741     A.U. after    9 cycles
 SCF Done:  E(RB3LYP) =  -730.199746858     A.U. after    8 cycles
 SCF Done:  E(RB3LYP) =  -730.199751352     A.U. after    9 cycles
 SCF Done:  E(RB3LYP) =  -730.199752461     A.U. after    7 cycles
 SCF Done:  E(RB3LYP) =  -730.199753314     A.U. after    8 cycles
 SCF Done:  E(RB3LYP) =  -730.199753819     A.U. after    7 cycles
 SCF Done:  E(RB3LYP) =  -730.199753941     A.U. after    6 cycles
 SCF Done:  E(RB3LYP) =  -730.199753973     A.U. after    6 cycles
 Optimization completed.
    -- Stationary point found.
 Normal termination of Gaussian 16 at Mon May 22 20:14:29 2023.

 ----------------------------------------------------------------------
 #N Geom=AllCheck Guess=TCheck SCRF=Check GenChk RB3LYP/6-31G(2df,p) Fr
 eq
 ----------------------------------------------------------------------

 Structure from the checkpoint file:  "CCCCCNCqCCCqCrCrNNNO.chk"
 -------------------
 Title Card Required
 -------------------
 Charge =  0 Multiplicity = 1

                         Standard orientation:
 ---------------------------------------------------------------------
 Center     Atomic      Atomic             Coordinates (Angstroms)
 Number     Number       Type             X           Y           Z
 ---------------------------------------------------------------------
      1          6           0        6.685601   -0.117811   -0.104735
      2          6           0        5.449928   -1.006388   -0.269807
      3          6           0        4.137642   -0.277240    0.038781
      4          6           0        2.898133   -1.161044   -0.129532
      5          6           0        1.592062   -0.432204    0.190501
      6          7           0        0.449967   -1.313970   -0.035103
      7          6           0       -0.866213   -0.825681    0.358924
      8          6           0       -1.252684    0.494784   -0.339046
      9          6           0       -0.930347    1.772283    0.450360
     10          6           0       -1.215002    3.083260   -0.307426
     11          6           0       -2.699257    3.253277   -0.661889
     12          6           0       -0.715327    4.287202    0.503076
     13          7           0       -1.813629   -1.892325   -0.011717
     14          7           0       -3.024966   -1.875392    0.739323
     15          7           0       -4.168423   -1.583814   -0.032434
     16          8           0       -4.710730   -2.829389   -0.519420
     17          1           0        7.605537   -0.665734   -0.331261
     18          1           0        6.767478    0.260564    0.920405
     19          1           0        6.641826    0.749441   -0.773051
     20          1           0        5.538487   -1.883437    0.385061
     21          1           0        5.412981   -1.397575   -1.295026
     22          1           0        4.049775    0.601251   -0.615667
     23          1           0        4.173621    0.113516    1.065360
     24          1           0        2.989674   -2.041610    0.523382
     25          1           0        2.842748   -1.543578   -1.155913
     26          1           0        1.500366    0.438270   -0.468388
     27          1           0        1.636042   -0.041680    1.225410
     28          1           0        0.625664   -2.181961    0.465088
     29          1           0       -0.920470   -0.652418    1.461265
     30          1           0       -2.331407    0.461592   -0.515763
     31          1           0       -0.779723    0.507843   -1.328346
     32          1           0        0.122046    1.773602    0.754747
     33          1           0       -1.509380    1.770184    1.385694
     34          1           0       -0.645410    3.052046   -1.248097
     35          1           0       -3.319048    3.252799    0.243260
     36          1           0       -3.063562    2.456044   -1.315945
     37          1           0       -2.869727    4.203929   -1.177827
     38          1           0       -1.251523    4.366731    1.456574
     39          1           0       -0.869952    5.224435   -0.041638
     40          1           0        0.352939    4.202448    0.729333
     41          1           0       -1.377412   -2.796827    0.139450
     42          1           0       -2.983665   -1.176161    1.476184
     43          1           0       -3.836481   -1.182937   -0.910709
     44          1           0       -5.423449   -2.999785    0.106048
 ---------------------------------------------------------------------

 SCF Done:  E(RB3LYP) =  -730.199753973     A.U. after    1 cycles

 The electronic state is 1-A.
 Alpha  occ. eigenvalues --  -19.14101 -14.37887 -14.36214 -14.33889 -14.31830
 Alpha  occ. eigenvalues --  -10.24081 -10.20784 -10.18674 -10.18187 -10.18095
 Alpha  occ. eigenvalues --  -10.18059 -10.17839 -10.17802 -10.17350 -10.17117
 Alpha  occ. eigenvalues --  -10.17055  -1.05468  -0.97309  -0.91220  -0.83307
 Alpha  occ. eigenvalues --   -0.80973  -0.79780  -0.75385  -0.73786  -0.69800
 Alpha  occ. eigenvalues --   -0.68055  -0.66677  -0.64802  -0.60293  -0.58401
 Alpha  occ. eigenvalues --   -0.57651  -0.55840  -0.52349  -0.50583  -0.49065
 Alpha  occ. eigenvalues --   -0.48473  -0.47341  -0.46513  -0.45498  -0.44995
 Alpha  occ. eigenvalues --   -0.43352  -0.43214  -0.41771  -0.41615  -0.40786
 Alpha  occ. eigenvalues --   -0.40176  -0.39381  -0.38234  -0.38027  -0.36905
 Alpha  occ. eigenvalues --   -0.35993  -0.35306  -0.34553  -0.34038  -0.33220
 Alpha  occ. eigenvalues --   -0.32436  -0.32433  -0.32019  -0.31631  -0.31244
 Alpha  occ. eigenvalues --   -0.29135  -0.27065  -0.24662  -0.23013  -0.21495
 Alpha virt. eigenvalues --    0.07415   0.07769   0.08325   0.08659   0.09563
 Alpha virt. eigenvalues --    0.09972   0.10752   0.11118   0.12020   0.12723
 Alpha virt. eigenvalues --    0.13280   0.14592   0.14791   0.15085   0.15210

 Mulliken charges:
               1
     1  C   -0.380230
     2  C   -0.163276
     3  C   -0.160419
     4  C   -0.201089
     5  C   -0.132907
     6  N   -0.316318
     7  C    0.076018
     8  C   -0.192671
     9  C   -0.180193
    10  C    0.043381
    11  C   -0.381194
    12  C   -0.389685
    13  N   -0.280399
    14  N   -0.226644
    15  N   -0.181297
    16  O   -0.399531
    17  H    0.111982
    18  H    0.113062
    19  H    0.113872
    20  H    0.094067
    21  H    0.096702
    22  H    0.094053
    23  H    0.092285
    24  H    0.088074
    25  H    0.110030
    26  H    0.110186
    27  H    0.077492
    28  H    0.207216
    29  H    0.039286
    30  H    0.104434
    31  H    0.109755
    32  H    0.096411
    33  H    0.085748
    34  H    0.071105
    35  H    0.110738
    36  H    0.116209
    37  H    0.110184
    38  H    0.110911
    39  H    0.109529
    40  H    0.107953
    41  H    0.227839
    42  H    0.227835
    43  H    0.238897
    44  H    0.290597
 Sum of Mulliken charges =  -0.00000

 Dipole moment (field-independent basis, Debye):
    X=              1.9810    Y=              1.1192    Z=              1.7263  Tot=              2.8561
 Quadrupole moment (field-independent basis, Debye-Ang):
   XX=           -104.9244   YY=           -104.5571   ZZ=           -102.7641
   XY=             -5.5084   XZ=             -4.0503   YZ=             -5.6472

  Exact polarizability: 195.108   6.203 161.619   2.276   0.996 127.660
 Approx polarizability: 227.258   4.988 215.831   0.862   1.999 207.913

                      1                      2                      3
                      A                      A                      A
 Frequencies --     21.7818                28.0267                36.7678
 Red. masses --      3.2613                 2.7957                 3.1881
 Frc consts  --      0.0009                 0.0013                 0.0025
 IR Inten    --      0.0478                 0.1193                 0.1595

                      4                      5                      6
                      A                      A                      A
 Frequencies --     41.8058                46.9115                58.1819
 Red. masses --      4.5498                 1.9588                 2.9935
 Frc consts  --      0.0047                 0.0025                 0.0060
 IR Inten    --      0.0608                 0.4798                 0.7735

                      7                      8                      9
                      A                      A                      A
 Frequencies --     72.2811                92.2077                99.4345
 Red. masses --      3.2846                 3.0923                 3.4099
 Frc consts  --      0.0101                 0.0155                 0.0199
 IR Inten    --      0.0306                 0.0867                 1.7370

                     10                     11                     12
                      A                      A                      A
 Frequencies --    121.9121               133.4075               151.5311
 Red. masses --      2.6783                 2.0588                 2.0805
 Frc consts  --      0.0235                 0.0216                 0.0281
 IR Inten    --      0.0654                 0.2929                 0.3867

                     13                     14                     15
                      A                      A                      A
 Frequencies --    158.5361               171.3408               211.6362
 Red. masses --      2.8563                 2.2689                 3.9674
 Frc consts  --      0.0423                 0.0392                 0.1047
 IR Inten    --      1.0916                 0.7534                 0.5852

                     16                     17                     18
                      A                      A                      A
 Frequencies --    224.8275               237.8929               246.8034
 Red. masses --      1.0906                 2.3947                 1.1155
 Frc consts  --      0.0325                 0.0798                 0.0400
 IR Inten    --      0.0115                 2.5059                 0.0266

                     19                     20                     21
                      A                      A                      A
 Frequencies --    254.6924               277.5717               300.2163
 Red. masses --      1.2351                 2.2065                 1.4200
 Frc consts  --      0.0472                 0.1002                 0.0754
 IR Inten    --      1.8623                 8.6541                69.4328

                     22                     23                     24
                      A                      A                      A
 Frequencies --    342.2868               347.1288               409.0069
 Red. masses --      2.9022                 2.7181                 2.7454
 Frc consts  --      0.2003                 0.1930                 0.2706
 IR Inten    --      2.1839                 3.7341                 2.9769

                     25                     26                     27
                      A                      A                      A
 Frequencies --    413.5671               430.4405               455.1131
 Red. masses --      2.7189                 2.0489                 2.7389
 Frc consts  --      0.2740                 0.2237                 0.3342
 IR Inten    --      3.8846                 0.6712                 3.8554

                     28                     29                     30
                      A                      A                      A
 Frequencies --    505.4591               531.8863               536.3444
 Red. masses --      3.0547                 2.7219                 2.5233
 Frc consts  --      0.4598                 0.4537                 0.4277
 IR Inten    --     17.8241                13.0421                10.6666

                     31                     32                     33
                      A                      A                      A
 Frequencies --    593.8348               729.9884               735.8341
 Red. masses --      2.9079                 3.2657                 1.0861
 Frc consts  --      0.6042                 1.0253                 0.3465
 IR Inten    --      4.4939                50.3385                 3.4255

                     34                     35                     36
                      A                      A                      A
 Frequencies --    741.7494               773.7757               792.0586
 Red. masses --      1.2727                 1.1097                 1.5141
 Frc consts  --      0.4126                 0.3914                 0.5597
 IR Inten    --      5.2930                 2.9224                39.6021

                     37                     38                     39
                      A                      A                      A
 Frequencies --    827.7995               850.2586               866.6427
 Red. masses --      2.1831                 1.7182                 1.4752
 Frc consts  --      0.8814                 0.7318                 0.6528
 IR Inten    --     30.4324                81.2938                15.1850

                     40                     41                     42
                      A                      A                      A
 Frequencies --    872.9203               900.3313               919.2262
 Red. masses --      2.8540                 1.9096                 1.9137
 Frc consts  --      1.2813                 0.9120                 0.9527
 IR Inten    --     35.9254                 3.1574                 3.4847

                     43                     44                     45
                      A                      A                      A
 Frequencies --    927.4730               959.3215               967.7519
 Red. masses --      1.2180                 1.8149                 1.6870
 Frc consts  --      0.6173                 0.9841                 0.9309
 IR Inten    --      1.0882                 1.1307                 0.2057

                     46                     47                     48
                      A                      A                      A
 Frequencies --    984.8726               994.9027              1012.8800
 Red. masses --      1.4112                 1.6198                 3.4123
 Frc consts  --      0.8065                 0.9446                 2.0626
 IR Inten    --      6.0502                14.7494                 2.0454

                     49                     50                     51
                      A                      A                      A
 Frequencies --   1026.7890              1050.9197              1055.4853
 Red. masses --      2.5188                 3.0290                 2.6489
 Frc consts  --      1.5646                 1.9710                 1.7387
 IR Inten    --     10.6269                 1.6721                 9.5810

                     52                     53                     54
                      A                      A                      A
 Frequencies --   1061.3381              1070.7428              1100.7074
 Red. masses --      2.3665                 2.2493                 2.6536
 Frc consts  --      1.5706                 1.5194                 1.8942
 IR Inten    --     50.0491                 2.7720                45.6764

                     55                     56                     57
                      A                      A                      A
 Frequencies --   1122.4916              1126.9652              1146.5587
 Red. masses --      2.3015                 2.0783                 2.2098
 Frc consts  --      1.7085                 1.5551                 1.7116
 IR Inten    --      8.6549                10.8410                 3.2621

                     58                     59                     60
                      A                      A                      A
 Frequencies --   1156.8562              1181.0975              1192.7296
 Red. masses --      1.9507                 1.8775                 1.7648
 Frc consts  --      1.5382                 1.5432                 1.4792
 IR Inten    --      3.3667                25.4591                 6.1925

                     61                     62                     63
                      A                      A                      A
 Frequencies --   1197.1766              1207.3283              1230.4774
 Red. masses --      2.4925                 2.0249                 1.5289
 Frc consts  --      2.1048                 1.7390                 1.3639
 IR Inten    --     39.7520                 8.9649                 1.9920

                     64                     65                     66
                      A                      A                      A
 Frequencies --   1243.6834              1272.6370              1282.7696
 Red. masses --      1.4827                 1.3332                 1.2050
 Frc consts  --      1.3512                 1.2722                 1.1683
 IR Inten    --     14.4096                 2.9746                 0.8626

                     67                     68                     69
                      A                      A                      A
 Frequencies --   1297.9076              1317.5412              1323.1768
 Red. masses --      1.2326                 1.1908                 1.0805
 Frc consts  --      1.2234                 1.2179                 1.1145
 IR Inten    --      9.8024                 1.6973                 3.5078

                     70                     71                     72
                      A                      A                      A
 Frequencies --   1332.6834              1340.8457              1346.5740
 Red. masses --      1.0924                 1.2643                 1.3182
 Frc consts  --      1.1431                 1.3392                 1.4083
 IR Inten    --      1.4985                 9.2815                 1.5075

                     73                     74                     75
                      A                      A                      A
 Frequencies --   1365.2154              1372.5964              1385.2446
 Red. masses --      1.3368                 1.3101                 1.3137
 Frc consts  --      1.4680                 1.4542                 1.4853
 IR Inten    --     51.1506                 6.2458                16.6704

                     76                     77                     78
                      A                      A                      A
 Frequencies --   1392.1704              1396.2609              1399.8250
 Red. masses --      1.2687                 1.4649                 1.3916
 Frc consts  --      1.4487                 1.6827                 1.6066
 IR Inten    --     24.7283                 3.8679                 5.0103

                     79                     80                     81
                      A                      A                      A
 Frequencies --   1402.1085              1410.4466              1415.7106
 Red. masses --      1.3508                 1.3445                 1.3692
 Frc consts  --      1.5646                 1.5759                 1.6168
 IR Inten    --      3.2289                 1.6810                 0.0914

                     82                     83                     84
                      A                      A                      A
 Frequencies --   1422.7426              1461.5428              1474.4088
 Red. masses --      1.2425                 1.2028                 1.0764
 Frc consts  --      1.4818                 1.5139                 1.3786
 IR Inten    --      2.1988                71.7059                 5.0147

                     85                     86                     87
                      A                      A                      A
 Frequencies --   1484.4057              1486.0478              1487.7851
 Red. masses --      1.0687                 1.0648                 1.0675
 Frc consts  --      1.3874                 1.3854                 1.3922
 IR Inten    --      0.3278                 0.9730                 0.0775

                     88                     89                     90
                      A                      A                      A
 Frequencies --   1491.1766              1491.4799              1497.6742
 Red. masses --      1.0611                 1.1024                 1.0707
 Frc consts  --      1.3901                 1.4448                 1.4149
 IR Inten    --      2.4387                 6.1873                 0.3644

                     91                     92                     93
                      A                      A                      A
 Frequencies --   1499.8699              1500.2182              1505.3208
 Red. masses --      1.0404                 1.0743                 1.0559
 Frc consts  --      1.3790                 1.4246                 1.4097
 IR Inten    --      5.3635                 0.8615                 2.5275

                     94                     95                     96
                      A                      A                      A
 Frequencies --   1511.5511              1512.0513              1525.3693
 Red. masses --      1.0585                 1.0782                 1.1036
 Frc consts  --      1.4249                 1.4524                 1.5129
 IR Inten    --      6.6374                 4.0361                 3.5143

                     97                     98                     99
                      A                      A                      A
 Frequencies --   1540.3861              1545.7580              2785.4004
 Red. masses --      1.2194                 1.0711                 1.0778
 Frc consts  --      1.7048                 1.5079                 4.9269
 IR Inten    --     12.4396                 1.5131                92.7327

                    100                    101                    102
                      A                      A                      A
 Frequencies --   2913.4808              2990.1721              2998.9556
 Red. masses --      1.0724                 1.0791                 1.0634
 Frc consts  --      5.3635                 5.6848                 5.6351
 IR Inten    --     59.5671                 4.4705                 4.3560

                    103                    104                    105
                      A                      A                      A
 Frequencies --   3003.9118              3005.9876              3016.3227
 Red. masses --      1.0604                 1.0699                 1.0613
 Frc consts  --      5.6378                 5.6960                 5.6893
 IR Inten    --     13.8428                27.7134                48.3913

                    106                    107                    108
                      A                      A                      A
 Frequencies --   3021.8864              3027.4841              3027.9177
 Red. masses --      1.0360                 1.0934                 1.0391
 Frc consts  --      5.5739                 5.9046                 5.6127
 IR Inten    --     27.0961                 5.0470                24.4611

                    109                    110                    111
                      A                      A                      A
 Frequencies --   3028.7054              3041.6521              3046.7648
 Red. masses --      1.0379                 1.0631                 1.0927
 Frc consts  --      5.6095                 5.7947                 5.9762
 IR Inten    --     38.0868                17.0503                19.7570

                    112                    113                    114
                      A                      A                      A
 Frequencies --   3053.1335              3062.5600              3070.4100
 Red. masses --      1.0931                 1.0911                 1.0991
 Frc consts  --      6.0036                 6.0297                 6.1050
 IR Inten    --     10.0630                17.2419                58.3266

                    115                    116                    117
                      A                      A                      A
 Frequencies --   3086.2543              3091.3182              3093.4854
 Red. masses --      1.1002                 1.1004                 1.0997
 Frc consts  --      6.1742                 6.1955                 6.2004
 IR Inten    --      4.7994                 9.1093                80.0885

                    118                    119                    120
                      A                      A                      A
 Frequencies --   3094.8289              3097.7424              3101.1958
 Red. masses --      1.1021                 1.1009                 1.1009
 Frc consts  --      6.2192                 6.2242                 6.2381
 IR Inten    --     64.7491                54.7183                36.7834

                    121                    122                    123
                      A                      A                      A
 Frequencies --   3107.8933              3437.3514              3481.7011
 Red. masses --      1.0993                 1.0729                 1.0730
 Frc consts  --      6.2561                 7.4692                 7.6633
 IR Inten    --     37.5347                 5.2639                 2.3722

                    124                    125                    126
                      A                      A                      A
 Frequencies --   3485.7315              3497.9790              3802.2099
 Red. masses --      1.0749                 1.0751                 1.0679
 Frc consts  --      7.6952                 7.7505                 9.0963
 IR Inten    --      1.1500                 4.0215                37.3059

 - Thermochemistry -
 -------------------
 Temperature   298.150 Kelvin.  Pressure   1.00000 Atm.
 Atom     1 has atomic number  6 and mass  12.00000

 Molecular mass:   232.22631 amu.
 Principal axes and moments of inertia in atomic units:
                           1         2         3
     Eigenvalues --  3696.570859178.26703**********
           X            0.99967  -0.02553  -0.00049
           Y            0.02553   0.99967  -0.00125
           Z            0.00052   0.00124   1.00000
 This molecule is an asymmetric top.
 Rotational symmetry number  1.
 Warning -- assumption of classical behavior for rotation
           may cause significant error
 Rotational temperatures (Kelvin)      0.02343     0.00944     0.00694
 Rotational constants (GHZ):           0.48822     0.19663     0.14452
 Zero-point vibrational energy    1055979.0 (Joules/Mol)
                                  252.38504 (Kcal/Mol)
 Warning -- explicit consideration of  31 degrees of freedom as
           vibrations may cause significant error
 Vibrational temperatures:     31.34    40.32    52.90    60.15    67.50
          (Kelvin)             83.71   104.00   132.67   143.06   175.40
                              191.94   218.02   228.10   246.52   304.50
                              323.48   342.27   355.10   366.45   399.36
                              431.94   492.47   499.44   588.47   595.03
                              619.31   654.81   727.24   765.27   771.68
                              854.40  1050.29  1058.70  1067.21  1113.29
                             1139.60  1191.02  1223.33  1246.91  1255.94
                             1295.38  1322.56  1334.43  1380.25  1392.38
                             1417.01  1431.44  1457.31  1477.32  1512.04
                             1518.61  1527.03  1540.56  1583.67  1615.02
                             1621.45  1649.64  1664.46  1699.34  1716.07
                             1722.47  1737.08  1770.38  1789.38  1831.04
                             1845.62  1867.40  1895.65  1903.76  1917.43
                             1929.18  1937.42  1964.24  1974.86  1993.06
                             2003.02  2008.91  2014.04  2017.32  2029.32
                             2036.89  2047.01  2102.83  2121.35  2135.73
                             2138.09  2140.59  2145.47  2145.91  2154.82
                             2157.98  2158.48  2165.82  2174.78  2175.50
                             2194.67  2216.27  2224.00  4007.57  4191.85
                             4302.19  4314.83  4321.96  4324.95  4339.82
                             4347.82  4355.87  4356.50  4357.63  4376.26
                             4383.61  4392.78  4406.34  4417.64  4440.43
                             4447.72  4450.84  4452.77  4456.96  4461.93
                             4471.57  4945.58  5009.39  5015.19  5032.81
                             5470.53

 Zero-point correction=                           0.402201 (Hartree/Particle)
 Thermal correction to Energy=                    0.423435
 Thermal correction to Enthalpy=                  0.424379
 Thermal correction to Gibbs Free Energy=         0.349078
 Sum of electronic and zero-point Energies=           -729.797553
 Sum of electronic and thermal Energies=              -729.776319
 Sum of electronic and thermal Enthalpies=            -729.775375
 Sum of electronic and thermal Free Energies=         -729.850676

                     E (Thermal)             CV                S
                      KCal/Mol        Cal/Mol-Kelvin    Cal/Mol-Kelvin
 Total                  265.709             75.831            158.485
 Electronic               0.000              0.000              0.000
 Translational            0.889              2.981             42.229
 Rotational               0.889              2.981             34.404
 Vibrational            263.932             69.869             81.851
 Vibration     1          0.593              1.985              6.465
 Vibration     2          0.593              1.984              5.964
 Vibration     3          0.594              1.982              5.426
 Vibration     4          0.594              1.980              5.172
 Vibration     5          0.595              1.979              4.944
 Vibration     6          0.596              1.974              4.518
 Vibration     7          0.598              1.967              4.090
 Vibration     8          0.602              1.955              3.613
 Vibration     9          0.604              1.950              3.465
 Vibration    10          0.609              1.931              3.070
 Vibration    11          0.613              1.920              2.896
 Vibration    12          0.619              1.901              2.653
 Vibration    13          0.621              1.893              2.567
 Vibration    14          0.626              1.878              2.421
 Vibration    15          0.643              1.823              2.030
 Vibration    16          0.649              1.803              1.920
 Vibration    17          0.656              1.783              1.819
 Vibration    18          0.661              1.768              1.753
 Vibration    19          0.665              1.755              1.698
 Vibration    20          0.679              1.715              1.549
 Vibration    21          0.693              1.673              1.416
 Vibration    22          0.721              1.591              1.201
 Vibration    23          0.725              1.581              1.179
 Vibration    24          0.773              1.451              0.930
 Vibration    25          0.777              1.441              0.914
 Vibration    26          0.792              1.404              0.857
 Vibration    27          0.813              1.350              0.780
 Vibration    28          0.861              1.238              0.645
 Vibration    29          0.887              1.179              0.583
 Vibration    30          0.891              1.170              0.573
 Vibration    31          0.951              1.045              0.460

                           ! Non-Optimized Parameters !
 Normal termination of Gaussian 16 at Mon May 22 23:58:11 2023.
