 Gaussian 16, Revision A.03,
 Gaussian 16:  ES64L-G16RevA.03 25-Dec-2016

 -----------------------------
 # opt freq b3lyp/6-31g(2df,p)
 -----------------------------

 -------------------
 Title Card Required
 -------------------
 Symbolic Z-matrix:
 Charge =  0 Multiplicity = 1

 SCF Done:  E(RB3LYP) =  -626.850825907     A.U. after   12 cycles
 SCF Done:  E(RB3LYP) =  -626.859437107     A.U. after    9 cycles
 SCF Done:  E(RB3LYP) =  -626.860344546     A.U. after    9 cycles
 SCF Done:  E(RB3LYP) =  -626.860419381     A.U. after    8 cycles
 SCF Done:  E(RB3LYP) =  -626.860430684     A.U. after    8 cycles
 SCF Done:  E(RB3LYP) =  -626.860432389     A.U. after    8 cycles
 SCF Done:  E(RB3LYP) =  -626.860433128     A.U. after    8 cycles
 SCF Done:  E(RB3LYP) =  -626.860433197     A.U. after    6 cycles
 SCF Done:  E(RB3LYP) =  -626.860433224     A.U. after    6 cycles
 Optimization completed.
    -- Stationary point found.
 Normal termination of Gaussian 16 at Sun May 21 20:18:30 2023.

 ----------------------------------------------------------------------
 #N Geom=AllCheck Guess=TCheck SCRF=Check GenChk RB3LYP/6-31G(2df,p) Fr
 eq
 ----------------------------------------------------------------------

 Structure from the checkpoint file:  "CCCCCqOrCCCCCCCqCrC.chk"
 -------------------
 Title Card Required
 -------------------
 Charge =  0 Multiplicity = 1

                         Standard orientation:
 ---------------------------------------------------------------------
 Center     Atomic      Atomic             Coordinates (Angstroms)
 Number     Number       Type             X           Y           Z
 ---------------------------------------------------------------------
      1          6           0       -7.954620    0.053945    0.282246
      2          6           0       -6.644373    0.695663   -0.182432
      3          6           0       -5.402654   -0.082684    0.264249
      4          6           0       -4.086105    0.554683   -0.190470
      5          6           0       -2.843645   -0.259609    0.192681
      6          8           0       -2.904919   -1.584610   -0.340890
      7          6           0       -1.538441    0.442285   -0.204017
      8          6           0       -0.278277   -0.308055    0.238760
      9          6           0        1.022186    0.358205   -0.221877
     10          6           0        2.281893   -0.389804    0.228061
     11          6           0        3.585379    0.268541   -0.238729
     12          6           0        4.838716   -0.485852    0.220977
     13          6           0        6.174361    0.075410   -0.301150
     14          6           0        6.460448    1.492222    0.216960
     15          6           0        7.330261   -0.869630    0.054916
     16          1           0       -8.824047    0.627878   -0.053759
     17          1           0       -7.998736   -0.007997    1.375366
     18          1           0       -8.055806   -0.964685   -0.108550
     19          1           0       -6.585995    1.725083    0.196304
     20          1           0       -6.645595    0.778182   -1.277805
     21          1           0       -5.448868   -1.109565   -0.116568
     22          1           0       -5.401919   -0.167412    1.360165
     23          1           0       -3.993317    1.563589    0.233219
     24          1           0       -4.095753    0.686122   -1.283923
     25          1           0       -2.844688   -0.413257    1.280601
     26          1           0       -2.905668   -1.506703   -1.302028
     27          1           0       -1.538069    1.455749    0.218905
     28          1           0       -1.528297    0.571530   -1.297708
     29          1           0       -0.327098   -1.335103   -0.140919
     30          1           0       -0.276325   -0.391207    1.334668
     31          1           0        1.058979    1.390361    0.154716
     32          1           0        1.021025    0.439127   -1.318287
     33          1           0        2.242047   -1.423014   -0.144197
     34          1           0        2.285982   -0.465825    1.324468
     35          1           0        3.612191    1.302685    0.127433
     36          1           0        3.584554    0.335113   -1.336124
     37          1           0        4.752956   -1.533584   -0.098614
     38          1           0        4.867239   -0.509183    1.320438
     39          1           0        6.107257    0.124919   -1.398214
     40          1           0        6.511135    1.502856    1.312839
     41          1           0        5.690195    2.206483   -0.087775
     42          1           0        7.419864    1.860947   -0.161223
     43          1           0        7.440596   -0.960040    1.142463
     44          1           0        8.282019   -0.503025   -0.344100
     45          1           0        7.162716   -1.875067   -0.345708
 ---------------------------------------------------------------------

 SCF Done:  E(RB3LYP) =  -626.860433224     A.U. after    1 cycles

 The electronic state is 1-A.
 Alpha  occ. eigenvalues --  -19.13026 -10.22424 -10.18086 -10.17526 -10.17521
 Alpha  occ. eigenvalues --  -10.17517 -10.17262 -10.17182 -10.17156 -10.17074
 Alpha  occ. eigenvalues --  -10.17062 -10.17041 -10.16859 -10.16671 -10.16648
 Alpha  occ. eigenvalues --   -1.01107  -0.81068  -0.79912  -0.78948  -0.76315
 Alpha  occ. eigenvalues --   -0.73623  -0.70334  -0.67605  -0.66227  -0.62616
 Alpha  occ. eigenvalues --   -0.59396  -0.58386  -0.57166  -0.56814  -0.54975
 Alpha  occ. eigenvalues --   -0.48223  -0.47192  -0.46386  -0.45914  -0.44467
 Alpha  occ. eigenvalues --   -0.43632  -0.43149  -0.42640  -0.41875  -0.40524
 Alpha  occ. eigenvalues --   -0.39805  -0.39018  -0.38085  -0.37697  -0.37525
 Alpha  occ. eigenvalues --   -0.36652  -0.35014  -0.34723  -0.34510  -0.34024
 Alpha  occ. eigenvalues --   -0.33105  -0.32633  -0.32295  -0.32013  -0.31823
 Alpha  occ. eigenvalues --   -0.31505  -0.31260  -0.30985  -0.30445  -0.29432
 Alpha  occ. eigenvalues --   -0.25867
 Alpha virt. eigenvalues --    0.07244   0.08619   0.09837   0.09992   0.10547
 Alpha virt. eigenvalues --    0.11819   0.12053   0.12578   0.12848   0.13944
 Alpha virt. eigenvalues --    0.14329   0.14682   0.15337   0.15432   0.15814

 Mulliken charges:
               1
     1  C   -0.378745
     2  C   -0.165292
     3  C   -0.157291
     4  C   -0.203320
     5  C    0.115328
     6  O   -0.428157
     7  C   -0.205508
     8  C   -0.178618
     9  C   -0.183692
    10  C   -0.177854
    11  C   -0.190742
    12  C   -0.164408
    13  C    0.043399
    14  C   -0.379665
    15  C   -0.387630
    16  H    0.108753
    17  H    0.113055
    18  H    0.113854
    19  H    0.091085
    20  H    0.090332
    21  H    0.104719
    22  H    0.089224
    23  H    0.092071
    24  H    0.079464
    25  H    0.082907
    26  H    0.273952
    27  H    0.092134
    28  H    0.079543
    29  H    0.105282
    30  H    0.089827
    31  H    0.088457
    32  H    0.087608
    33  H    0.091621
    34  H    0.091116
    35  H    0.094407
    36  H    0.088498
    37  H    0.086412
    38  H    0.086895
    39  H    0.067726
    40  H    0.108720
    41  H    0.112923
    42  H    0.107589
    43  H    0.109909
    44  H    0.106556
    45  H    0.107558
 Sum of Mulliken charges =  -0.00000

 Dipole moment (field-independent basis, Debye):
    X=              0.0280    Y=              1.0902    Z=             -0.8401  Tot=              1.3766
 Quadrupole moment (field-independent basis, Debye-Ang):
   XX=           -102.0678   YY=           -102.6549   ZZ=            -95.6164
   XY=             -3.3053   XZ=              2.0233   YZ=              2.4080

  Exact polarizability: 210.920  -1.142 141.180  -0.413   0.018 135.486
 Approx polarizability: 215.920   0.274 213.631   0.064   2.058 217.494

                      1                      2                      3
                      A                      A                      A
 Frequencies --     17.9447                23.2771                29.6262
 Red. masses --      3.5636                 2.6442                 3.5587
 Frc consts  --      0.0007                 0.0008                 0.0018
 IR Inten    --      0.0597                 0.2598                 0.1133

                      4                      5                      6
                      A                      A                      A
 Frequencies --     49.4384                66.8965                76.9489
 Red. masses --      3.3107                 1.7231                 2.4070
 Frc consts  --      0.0048                 0.0045                 0.0084
 IR Inten    --      0.0047                 0.0426                 0.0332

                      7                      8                      9
                      A                      A                      A
 Frequencies --     85.5275                88.9924               127.3760
 Red. masses --      3.0455                 2.1868                 2.3688
 Frc consts  --      0.0131                 0.0102                 0.0226
 IR Inten    --      0.0777                 0.3960                 0.1234

                     10                     11                     12
                      A                      A                      A
 Frequencies --    141.4108               146.7129               155.8449
 Red. masses --      2.2232                 2.6862                 2.2666
 Frc consts  --      0.0262                 0.0341                 0.0324
 IR Inten    --      0.3244                 0.9681                 0.0569

                     13                     14                     15
                      A                      A                      A
 Frequencies --    159.5270               172.6504               221.7479
 Red. masses --      3.1911                 2.0946                 1.3988
 Frc consts  --      0.0478                 0.0368                 0.0405
 IR Inten    --      0.1497                 0.1702                 0.5181

                     16                     17                     18
                      A                      A                      A
 Frequencies --    232.7209               245.7707               252.5995
 Red. masses --      1.7133                 1.1151                 1.1801
 Frc consts  --      0.0547                 0.0397                 0.0444
 IR Inten    --      0.4900                 0.0935                 0.0415

                     19                     20                     21
                      A                      A                      A
 Frequencies --    291.2511               302.3482               310.0009
 Red. masses --      1.6506                 2.1947                 2.0569
 Frc consts  --      0.0825                 0.1182                 0.1165
 IR Inten    --     42.6760                14.2756                67.0934

                     22                     23                     24
                      A                      A                      A
 Frequencies --    344.2538               384.8086               409.3208
 Red. masses --      3.0018                 2.5691                 2.2067
 Frc consts  --      0.2096                 0.2241                 0.2178
 IR Inten    --     19.4291                 0.0301                 1.9602

                     25                     26                     27
                      A                      A                      A
 Frequencies --    434.9987               456.8493               484.0540
 Red. masses --      2.4375                 2.2872                 2.6819
 Frc consts  --      0.2717                 0.2813                 0.3702
 IR Inten    --      1.4022                 1.8533                 1.7065

                     28                     29                     30
                      A                      A                      A
 Frequencies --    522.9925               569.1901               731.9727
 Red. masses --      2.6026                 3.0259                 1.0669
 Frc consts  --      0.4194                 0.5776                 0.3368
 IR Inten    --      1.1811                14.7068                 2.7923

                     31                     32                     33
                      A                      A                      A
 Frequencies --    736.1889               742.3664               779.2699
 Red. masses --      1.0868                 1.1219                 1.2491
 Frc consts  --      0.3470                 0.3643                 0.4469
 IR Inten    --      2.9742                 0.3827                 0.4900

                     34                     35                     36
                      A                      A                      A
 Frequencies --    792.6921               821.0888               854.2825
 Red. masses --      1.2951                 2.4786                 1.6089
 Frc consts  --      0.4795                 0.9845                 0.6918
 IR Inten    --      0.4366                 0.5932                 3.7223

                     37                     38                     39
                      A                      A                      A
 Frequencies --    883.0620               906.1048               926.5858
 Red. masses --      1.8273                 1.7601                 1.2118
 Frc consts  --      0.8395                 0.8514                 0.6130
 IR Inten    --      6.0371                 2.1287                 1.1346

                     40                     41                     42
                      A                      A                      A
 Frequencies --    929.2594               950.5760               963.8727
 Red. masses --      1.4523                 1.7998                 1.4453
 Frc consts  --      0.7389                 0.9582                 0.7911
 IR Inten    --      2.8494                 5.2522                 1.3297

                     43                     44                     45
                      A                      A                      A
 Frequencies --    974.5797               985.0785              1013.8300
 Red. masses --      1.5716                 3.6403                 3.0102
 Frc consts  --      0.8795                 2.0813                 1.8230
 IR Inten    --      4.4626                 1.9250                 3.1969

                     46                     47                     48
                      A                      A                      A
 Frequencies --   1028.0806              1033.3849              1049.7532
 Red. masses --      2.8473                 1.7440                 1.4363
 Frc consts  --      1.7731                 1.0973                 0.9325
 IR Inten    --      2.5264                 1.4596                 1.2496

                     49                     50                     51
                      A                      A                      A
 Frequencies --   1056.8194              1063.5275              1069.8030
 Red. masses --      3.1276                 2.0693                 2.2557
 Frc consts  --      2.0581                 1.3790                 1.5211
 IR Inten    --      6.0988                 1.8121                 0.1156

                     52                     53                     54
                      A                      A                      A
 Frequencies --   1077.6422              1084.9076              1114.7911
 Red. masses --      2.4159                 2.2484                 1.2768
 Frc consts  --      1.6530                 1.5592                 0.9349
 IR Inten    --      0.9804                13.2544                31.2689

                     55                     56                     57
                      A                      A                      A
 Frequencies --   1127.8746              1144.8506              1157.9937
 Red. masses --      1.7736                 2.1936                 3.0099
 Frc consts  --      1.3293                 1.6940                 2.3780
 IR Inten    --     21.2340                13.5241                 4.5102

                     58                     59                     60
                      A                      A                      A
 Frequencies --   1192.6936              1208.9152              1228.4330
 Red. masses --      1.7584                 1.9068                 1.3977
 Frc consts  --      1.4737                 1.6419                 1.2427
 IR Inten    --      5.1730                 1.8971                 2.9996

                     61                     62                     63
                      A                      A                      A
 Frequencies --   1233.9968              1249.6612              1263.5647
 Red. masses --      1.4340                 1.4941                 1.2906
 Frc consts  --      1.2866                 1.3747                 1.2140
 IR Inten    --      1.1518                 1.4213                 0.2781

                     64                     65                     66
                      A                      A                      A
 Frequencies --   1284.1244              1290.3074              1305.0323
 Red. masses --      1.3040                 1.3480                 1.2420
 Frc consts  --      1.2669                 1.3223                 1.2463
 IR Inten    --      1.6510                 4.0525                 1.5549

                     67                     68                     69
                      A                      A                      A
 Frequencies --   1317.9050              1320.0136              1328.0455
 Red. masses --      1.1671                 1.1571                 1.1210
 Frc consts  --      1.1944                 1.1879                 1.1649
 IR Inten    --      0.9646                 0.9144                 0.5729

                     70                     71                     72
                      A                      A                      A
 Frequencies --   1330.5070              1334.6492              1343.9008
 Red. masses --      1.0917                 1.1179                 1.3076
 Frc consts  --      1.1387                 1.1733                 1.3914
 IR Inten    --      0.7553                 0.4995                 1.3274

                     73                     74                     75
                      A                      A                      A
 Frequencies --   1362.5705              1367.1147              1371.7997
 Red. masses --      1.3245                 1.3159                 1.3403
 Frc consts  --      1.4489                 1.4490                 1.4861
 IR Inten    --      0.0971                 2.9804                 2.5691

                     76                     77                     78
                      A                      A                      A
 Frequencies --   1382.5966              1393.6963              1397.8383
 Red. masses --      1.4563                 1.5580                 1.6122
 Frc consts  --      1.6402                 1.7830                 1.8560
 IR Inten    --      9.3573                 2.1877                 0.2380

                     79                     80                     81
                      A                      A                      A
 Frequencies --   1398.6928              1401.9665              1402.8354
 Red. masses --      1.4483                 1.5809                 1.4155
 Frc consts  --      1.6694                 1.8308                 1.6412
 IR Inten    --      4.2415                 1.7115                 1.3291

                     82                     83                     84
                      A                      A                      A
 Frequencies --   1413.2786              1419.5786              1421.9987
 Red. masses --      1.2535                 1.2016                 1.2456
 Frc consts  --      1.4751                 1.4267                 1.4839
 IR Inten    --      0.5371                36.2515                 3.6430

                     85                     86                     87
                      A                      A                      A
 Frequencies --   1471.9095              1477.4399              1481.9865
 Red. masses --      1.0842                 1.0747                 1.0834
 Frc consts  --      1.3840                 1.3821                 1.4020
 IR Inten    --      0.5216                 0.2306                 1.5052

                     88                     89                     90
                      A                      A                      A
 Frequencies --   1483.5906              1486.5858              1488.4270
 Red. masses --      1.0705                 1.0633                 1.0666
 Frc consts  --      1.3882                 1.3845                 1.3923
 IR Inten    --      0.4439                 0.6950                 0.0256

                     91                     92                     93
                      A                      A                      A
 Frequencies --   1489.6913              1495.5976              1499.4927
 Red. masses --      1.0628                 1.0628                 1.0403
 Frc consts  --      1.3897                 1.4006                 1.3781
 IR Inten    --      1.1296                 1.0453                 4.8049

                     94                     95                     96
                      A                      A                      A
 Frequencies --   1500.1226              1503.9098              1505.1195
 Red. masses --      1.0725                 1.0954                 1.0549
 Frc consts  --      1.4220                 1.4597                 1.4079
 IR Inten    --      0.1861                 0.3560                 2.9057

                     97                     98                     99
                      A                      A                      A
 Frequencies --   1511.1783              1513.5425              1514.9106
 Red. masses --      1.0554                 1.0891                 1.0949
 Frc consts  --      1.4200                 1.4699                 1.4805
 IR Inten    --      5.8080                 1.8099                 5.6685

                    100                    101                    102
                      A                      A                      A
 Frequencies --   2984.5163              2989.0155              2989.3967
 Red. masses --      1.0647                 1.0778                 1.0662
 Frc consts  --      5.5879                 5.6736                 5.6140
 IR Inten    --      1.3725                 6.5479                14.5849

                    103                    104                    105
                      A                      A                      A
 Frequencies --   2995.9923              2998.6850              3001.2731
 Red. masses --      1.0612                 1.0595                 1.0601
 Frc consts  --      5.6119                 5.6135                 5.6262
 IR Inten    --     14.5928                 0.1860                 1.1784

                    106                    107                    108
                      A                      A                      A
 Frequencies --   3006.1829              3009.7006              3013.4762
 Red. masses --      1.0613                 1.0676                 1.0683
 Frc consts  --      5.6510                 5.6976                 5.7158
 IR Inten    --      3.0036                10.9101                71.8040

                    109                    110                    111
                      A                      A                      A
 Frequencies --   3014.9697              3020.6233              3021.0808
 Red. masses --      1.0675                 1.0692                 1.0559
 Frc consts  --      5.7173                 5.7479                 5.6779
 IR Inten    --     21.6572                 8.6313                64.2331

                    112                    113                    114
                      A                      A                      A
 Frequencies --   3022.0703              3026.3606              3027.6402
 Red. masses --      1.0808                 1.0486                 1.0840
 Frc consts  --      5.8156                 5.6584                 5.8543
 IR Inten    --     49.2918                40.9012                 9.3183

                    115                    116                    117
                      A                      A                      A
 Frequencies --   3028.2824              3032.0247              3035.7236
 Red. masses --      1.0375                 1.0906                 1.0958
 Frc consts  --      5.6056                 5.9071                 5.9496
 IR Inten    --     37.8321                 0.2189                21.5434

                    118                    119                    120
                      A                      A                      A
 Frequencies --   3039.8794              3045.2411              3061.6512
 Red. masses --      1.0996                 1.0952                 1.1032
 Frc consts  --      5.9869                 5.9841                 6.0927
 IR Inten    --     10.3081                26.4276                53.2208

                    121                    122                    123
                      A                      A                      A
 Frequencies --   3071.2022              3074.9016              3084.6966
 Red. masses --      1.0998                 1.1002                 1.1002
 Frc consts  --      6.1121                 6.1292                 6.1679
 IR Inten    --      5.5371               129.2783                 5.7641

                    124                    125                    126
                      A                      A                      A
 Frequencies --   3090.8552              3095.1215              3096.0085
 Red. masses --      1.0998                 1.1019                 1.1014
 Frc consts  --      6.1904                 6.2195                 6.2200
 IR Inten    --     69.2287                61.5495                44.5459

                    127                    128                    129
                      A                      A                      A
 Frequencies --   3099.5646              3105.7953              3788.2493
 Red. masses --      1.1011                 1.0996                 1.0657
 Frc consts  --      6.2327                 6.2491                 9.0108
 IR Inten    --     40.2770                39.7850                 9.8633

 - Thermochemistry -
 -------------------
 Temperature   298.150 Kelvin.  Pressure   1.00000 Atm.
 Atom     1 has atomic number  6 and mass  12.00000

 Molecular mass:   214.22967 amu.
 Principal axes and moments of inertia in atomic units:
                           1         2         3
     Eigenvalues --   621.69200********************
           X            1.00000  -0.00146   0.00027
           Y            0.00147   0.99994  -0.01062
           Z           -0.00025   0.01062   0.99994
 This molecule is an asymmetric top.
 Rotational symmetry number  1.
 Warning -- assumption of classical behavior for rotation
           may cause significant error
 Rotational temperatures (Kelvin)      0.13932     0.00476     0.00467
 Rotational constants (GHZ):           2.90295     0.09925     0.09733
 Zero-point vibrational energy    1100951.5 (Joules/Mol)
                                  263.13373 (Kcal/Mol)
 Warning -- explicit consideration of  29 degrees of freedom as
           vibrations may cause significant error
 Vibrational temperatures:     25.82    33.49    42.63    71.13    96.25
          (Kelvin)            110.71   123.06   128.04   183.27   203.46
                              211.09   224.23   229.52   248.41   319.05
                              334.83   353.61   363.43   419.05   435.01
                              446.02   495.30   553.65   588.92   625.87
                              657.30   696.45   752.47   818.94  1053.15
                             1059.21  1068.10  1121.20  1140.51  1181.36
                             1229.12  1270.53  1303.68  1333.15  1337.00
                             1367.67  1386.80  1402.20  1417.31  1458.68
                             1479.18  1486.81  1510.36  1520.53  1530.18
                             1539.21  1550.49  1560.94  1603.94  1622.76
                             1647.18  1666.09  1716.02  1739.36  1767.44
                             1775.45  1797.98  1817.99  1847.57  1856.46
                             1877.65  1896.17  1899.21  1910.76  1914.30
                             1920.26  1933.57  1960.43  1966.97  1973.71
                             1989.25  2005.22  2011.18  2012.41  2017.12
                             2018.37  2033.39  2042.46  2045.94  2117.75
                             2125.71  2132.25  2134.56  2138.87  2141.51
                             2143.33  2151.83  2157.44  2158.34  2163.79
                             2165.53  2174.25  2177.65  2179.62  4294.05
                             4300.53  4301.08  4310.56  4314.44  4318.16
                             4325.23  4330.29  4335.72  4337.87  4346.00
                             4346.66  4348.09  4354.26  4356.10  4357.02
                             4362.41  4367.73  4373.71  4381.42  4405.03
                             4418.77  4424.10  4438.19  4447.05  4453.19
                             4454.47  4459.58  4468.55  5450.45

 Zero-point correction=                           0.419330 (Hartree/Particle)
 Thermal correction to Energy=                    0.439727
 Thermal correction to Enthalpy=                  0.440671
 Thermal correction to Gibbs Free Energy=         0.367668
 Sum of electronic and zero-point Energies=           -626.441103
 Sum of electronic and thermal Energies=              -626.420706
 Sum of electronic and thermal Enthalpies=            -626.419762
 Sum of electronic and thermal Free Energies=         -626.492765

                     E (Thermal)             CV                S
                      KCal/Mol        Cal/Mol-Kelvin    Cal/Mol-Kelvin
 Total                  275.933             73.301            153.647
 Electronic               0.000              0.000              0.000
 Translational            0.889              2.981             41.989
 Rotational               0.889              2.981             33.705
 Vibrational            274.155             67.340             77.953
 Vibration     1          0.593              1.986              6.850
 Vibration     2          0.593              1.985              6.333
 Vibration     3          0.593              1.984              5.854
 Vibration     4          0.595              1.978              4.840
 Vibration     5          0.598              1.970              4.243
 Vibration     6          0.599              1.965              3.967
 Vibration     7          0.601              1.959              3.760
 Vibration     8          0.602              1.957              3.682
 Vibration     9          0.611              1.926              2.985
 Vibration    10          0.615              1.912              2.785
 Vibration    11          0.617              1.906              2.714
 Vibration    12          0.620              1.896              2.600
 Vibration    13          0.621              1.892              2.555
 Vibration    14          0.626              1.876              2.406
 Vibration    15          0.648              1.808              1.945
 Vibration    16          0.653              1.791              1.858
 Vibration    17          0.660              1.770              1.761
 Vibration    18          0.664              1.758              1.712
 Vibration    19          0.687              1.690              1.467
 Vibration    20          0.694              1.669              1.404
 Vibration    21          0.699              1.655              1.362
 Vibration    22          0.723              1.587              1.192
 Vibration    23          0.754              1.503              1.020
 Vibration    24          0.774              1.450              0.929
 Vibration    25          0.796              1.394              0.842
 Vibration    26          0.815              1.346              0.775
 Vibration    27          0.840              1.285              0.699
 Vibration    28          0.878              1.199              0.603
 Vibration    29          0.925              1.098              0.506

 Optimization completed.
    -- Stationary point found.
 Normal termination of Gaussian 16 at Sun May 21 23:13:11 2023.
