 Gaussian 16, Revision A.03,
 Gaussian 16:  ES64L-G16RevA.03 25-Dec-2016

 -----------------------------
 # opt freq b3lyp/6-31g(2df,p)
 -----------------------------

 -------------------
 Title Card Required
 -------------------
 Symbolic Z-matrix:
 Charge =  0 Multiplicity = 1

 SCF Done:  E(RB3LYP) =  -663.690699758     A.U. after   12 cycles
 SCF Done:  E(RB3LYP) =  -663.701725039     A.U. after   12 cycles
 SCF Done:  E(RB3LYP) =  -663.708367120     A.U. after   11 cycles
 SCF Done:  E(RB3LYP) =  -663.710231061     A.U. after   10 cycles
 SCF Done:  E(RB3LYP) =  -663.712092366     A.U. after   11 cycles
 SCF Done:  E(RB3LYP) =  -663.713609257     A.U. after   13 cycles
 SCF Done:  E(RB3LYP) =  -663.715862177     A.U. after   11 cycles
 SCF Done:  E(RB3LYP) =  -663.717321644     A.U. after   10 cycles
 SCF Done:  E(RB3LYP) =  -663.718915466     A.U. after   11 cycles
 SCF Done:  E(RB3LYP) =  -663.719248794     A.U. after   11 cycles
 SCF Done:  E(RB3LYP) =  -663.725904009     A.U. after   11 cycles
 SCF Done:  E(RB3LYP) =  -663.726297840     A.U. after   11 cycles
 SCF Done:  E(RB3LYP) =  -663.726584297     A.U. after   10 cycles
 SCF Done:  E(RB3LYP) =  -663.726655237     A.U. after    9 cycles
 SCF Done:  E(RB3LYP) =  -663.726662865     A.U. after    8 cycles
 SCF Done:  E(RB3LYP) =  -663.726664588     A.U. after    8 cycles
 SCF Done:  E(RB3LYP) =  -663.726665228     A.U. after    7 cycles
 SCF Done:  E(RB3LYP) =  -663.726665423     A.U. after    7 cycles
 SCF Done:  E(RB3LYP) =  -663.726665481     A.U. after    6 cycles
 Optimization completed.
    -- Stationary point found.
 Normal termination of Gaussian 16 at Sun May 28 20:01:25 2023.

 ----------------------------------------------------------------------
 #N Geom=AllCheck Guess=TCheck SCRF=Check GenChk RB3LYP/6-31G(2df,p) Fr
 eq
 ----------------------------------------------------------------------

 Structure from the checkpoint file:  "CCCCCdCCCCC1CCCC1CO.chk"
 -------------------
 Title Card Required
 -------------------
 Charge =  0 Multiplicity = 1

                         Standard orientation:
 ---------------------------------------------------------------------
 Center     Atomic      Atomic             Coordinates (Angstroms)
 Number     Number       Type             X           Y           Z
 ---------------------------------------------------------------------
      1          6           0        7.982358   -0.171480    0.273393
      2          6           0        6.701301    0.625481    0.012889
      3          6           0        5.446946   -0.252417   -0.045092
      4          6           0        4.156692    0.545614   -0.305723
      5          6           0        2.937596   -0.325124   -0.411654
      6          6           0        1.876030   -0.274709    0.390500
      7          6           0        0.656318   -1.144727    0.283500
      8          6           0       -0.630736   -0.347348    0.000848
      9          6           0       -1.883308   -1.230745   -0.027806
     10          6           0       -3.186108   -0.522361   -0.429180
     11          6           0       -4.364827   -1.517740   -0.582520
     12          6           0       -5.615573   -0.723123   -0.186806
     13          6           0       -5.117572    0.127042    0.993023
     14          6           0       -3.687278    0.562342    0.581393
     15          6           0       -3.710227    1.969916   -0.031786
     16          8           0       -2.474243    2.378531   -0.597293
     17          1           0        8.860123    0.481496    0.309678
     18          1           0        8.152910   -0.914919   -0.513355
     19          1           0        7.927418   -0.708611    1.226877
     20          1           0        6.798664    1.179392   -0.930421
     21          1           0        6.575771    1.384470    0.796629
     22          1           0        5.340738   -0.807801    0.896034
     23          1           0        5.569063   -1.010398   -0.831290
     24          1           0        4.283547    1.114666   -1.238858
     25          1           0        4.014834    1.286208    0.491324
     26          1           0        2.954121   -1.066504   -1.212555
     27          1           0        1.860080    0.466788    1.191615
     28          1           0        0.520464   -1.704493    1.221062
     29          1           0        0.803382   -1.893267   -0.504852
     30          1           0       -0.527390    0.184920   -0.951838
     31          1           0       -0.739037    0.427368    0.772635
     32          1           0       -2.019013   -1.700526    0.957772
     33          1           0       -1.711222   -2.058461   -0.730117
     34          1           0       -3.010428   -0.026026   -1.390956
     35          1           0       -4.230883   -2.355717    0.114781
     36          1           0       -4.420350   -1.946454   -1.587780
     37          1           0       -6.468652   -1.357479    0.071466
     38          1           0       -5.932626   -0.076389   -1.014303
     39          1           0       -5.077839   -0.489794    1.897929
     40          1           0       -5.767253    0.979904    1.218239
     41          1           0       -3.034353    0.593439    1.463580
     42          1           0       -4.056942    2.693314    0.723633
     43          1           0       -4.429339    2.001675   -0.858967
     44          1           0       -1.811515    2.371211    0.100514
 ---------------------------------------------------------------------

 SCF Done:  E(RB3LYP) =  -663.726665481     A.U. after    1 cycles

 The electronic state is 1-A.
 Alpha  occ. eigenvalues --  -19.13134 -10.21972 -10.17853 -10.17800 -10.17746
 Alpha  occ. eigenvalues --  -10.17613 -10.17599 -10.17539 -10.17514 -10.17474
 Alpha  occ. eigenvalues --  -10.17453 -10.17354 -10.17295 -10.17204 -10.17115
 Alpha  occ. eigenvalues --  -10.16978  -1.01134  -0.83705  -0.80867  -0.79030
 Alpha  occ. eigenvalues --   -0.76267  -0.73063  -0.72890  -0.69592  -0.66026
 Alpha  occ. eigenvalues --   -0.63851  -0.61271  -0.58424  -0.57226  -0.56507
 Alpha  occ. eigenvalues --   -0.54667  -0.54114  -0.49693  -0.47371  -0.46893
 Alpha  occ. eigenvalues --   -0.45987  -0.45524  -0.43699  -0.42700  -0.42643
 Alpha  occ. eigenvalues --   -0.41978  -0.40964  -0.40573  -0.39164  -0.38614
 Alpha  occ. eigenvalues --   -0.37852  -0.36718  -0.36113  -0.34916  -0.33925
 Alpha  occ. eigenvalues --   -0.33399  -0.33183  -0.33160  -0.33074  -0.32269
 Alpha  occ. eigenvalues --   -0.32080  -0.31930  -0.31587  -0.30936  -0.29921
 Alpha  occ. eigenvalues --   -0.29515  -0.26093  -0.23520
 Alpha virt. eigenvalues --    0.03116   0.07084   0.08349   0.09555   0.09885
 Alpha virt. eigenvalues --    0.10482   0.11270   0.12292   0.12834   0.13591
 Alpha virt. eigenvalues --    0.13773   0.14310   0.14512   0.15433   0.15724

 Mulliken charges:
               1
     1  C   -0.379966
     2  C   -0.160449
     3  C   -0.148588
     4  C   -0.239771
     5  C   -0.042966
     6  C   -0.045987
     7  C   -0.242104
     8  C   -0.177683
     9  C   -0.204467
    10  C    0.036444
    11  C   -0.220961
    12  C   -0.206030
    13  C   -0.223115
    14  C   -0.018856
    15  C   -0.071083
    16  O   -0.415163
    17  H    0.110256
    18  H    0.112931
    19  H    0.113327
    20  H    0.093493
    21  H    0.093619
    22  H    0.095956
    23  H    0.091148
    24  H    0.099228
    25  H    0.092020
    26  H    0.073120
    27  H    0.068977
    28  H    0.097007
    29  H    0.094876
    30  H    0.112252
    31  H    0.073448
    32  H    0.085878
    33  H    0.090948
    34  H    0.081563
    35  H    0.090060
    36  H    0.091575
    37  H    0.091711
    38  H    0.097951
    39  H    0.094256
    40  H    0.089372
    41  H    0.054650
    42  H    0.084047
    43  H    0.106199
    44  H    0.280877
 Sum of Mulliken charges =  -0.00000

 Dipole moment (field-independent basis, Debye):
    X=             -0.1217    Y=             -0.4941    Z=              1.1828  Tot=              1.2876
 Quadrupole moment (field-independent basis, Debye-Ang):
   XX=            -99.7003   YY=           -105.2131   ZZ=           -101.8605
   XY=              2.4286   XZ=             -3.3022   YZ=              4.2953

  Exact polarizability: 227.273   6.409 148.559  -8.350   3.975 137.586
 Approx polarizability: 249.872   5.274 217.193 -15.486   4.399 225.857

                      1                      2                      3
                      A                      A                      A
 Frequencies --     18.8744                25.3005                34.8188
 Red. masses --      3.5805                 3.3695                 2.5384
 Frc consts  --      0.0008                 0.0013                 0.0018
 IR Inten    --      0.0944                 0.0085                 0.1538

                      4                      5                      6
                      A                      A                      A
 Frequencies --     49.8505                72.3180                75.5963
 Red. masses --      3.3281                 2.8112                 2.7478
 Frc consts  --      0.0049                 0.0087                 0.0093
 IR Inten    --      0.3048                 0.3129                 0.0450

                      7                      8                      9
                      A                      A                      A
 Frequencies --     98.2323               113.3555               122.7207
 Red. masses --      2.0857                 2.7315                 2.4012
 Frc consts  --      0.0119                 0.0207                 0.0213
 IR Inten    --      0.0057                 2.8184                 0.1882

                     10                     11                     12
                      A                      A                      A
 Frequencies --    139.2953               148.0886               194.1655
 Red. masses --      2.1399                 2.6411                 2.7492
 Frc consts  --      0.0245                 0.0341                 0.0611
 IR Inten    --      0.3672                 0.8752                 0.6743

                     13                     14                     15
                      A                      A                      A
 Frequencies --    208.3829               219.6810               238.3320
 Red. masses --      2.8083                 2.6205                 2.3931
 Frc consts  --      0.0718                 0.0745                 0.0801
 IR Inten    --      0.3405                 1.6630                 7.4182

                     16                     17                     18
                      A                      A                      A
 Frequencies --    244.3634               285.6134               298.7634
 Red. masses --      1.1259                 2.2622                 1.9179
 Frc consts  --      0.0396                 0.1087                 0.1009
 IR Inten    --      0.0256                 9.5391                20.1551

                     19                     20                     21
                      A                      A                      A
 Frequencies --    301.3043               344.7401               368.0553
 Red. masses --      1.3671                 2.3101                 2.6483
 Frc consts  --      0.0731                 0.1618                 0.2114
 IR Inten    --     88.8045                21.8837                15.4230

                     22                     23                     24
                      A                      A                      A
 Frequencies --    399.8742               429.4332               501.2341
 Red. masses --      2.6195                 3.1485                 3.1898
 Frc consts  --      0.2468                 0.3421                 0.4722
 IR Inten    --      0.1531                 6.5688                11.3786

                     25                     26                     27
                      A                      A                      A
 Frequencies --    514.4064               541.0018               573.9922
 Red. masses --      3.0473                 2.1773                 2.0841
 Frc consts  --      0.4751                 0.3755                 0.4045
 IR Inten    --      1.9743                 1.2200                 0.2670

                     28                     29                     30
                      A                      A                      A
 Frequencies --    646.3686               735.8929               740.8370
 Red. masses --      3.1894                 1.0798                 1.1922
 Frc consts  --      0.7851                 0.3445                 0.3855
 IR Inten    --      0.2243                 2.4212                 4.1317

                     31                     32                     33
                      A                      A                      A
 Frequencies --    776.7500               785.3144               816.9555
 Red. masses --      1.5076                 1.5952                 1.4206
 Frc consts  --      0.5359                 0.5796                 0.5586
 IR Inten    --      0.3017                 0.2474                 0.2802

                     34                     35                     36
                      A                      A                      A
 Frequencies --    843.3564               868.1145               877.2534
 Red. masses --      1.5427                 1.8858                 1.6984
 Frc consts  --      0.6465                 0.8374                 0.7701
 IR Inten    --      1.9222                 1.1654                 0.4334

                     37                     38                     39
                      A                      A                      A
 Frequencies --    900.0603               920.8161               934.4773
 Red. masses --      1.7735                 2.5785                 1.4048
 Frc consts  --      0.8465                 1.2882                 0.7228
 IR Inten    --      1.0581                 0.7090                 2.0685

                     40                     41                     42
                      A                      A                      A
 Frequencies --    937.3629               968.1697               988.5969
 Red. masses --      1.8177                 2.1209                 1.8559
 Frc consts  --      0.9410                 1.1713                 1.0687
 IR Inten    --      1.0839                12.1692                 5.8263

                     43                     44                     45
                      A                      A                      A
 Frequencies --    994.5472              1004.9683              1019.0202
 Red. masses --      1.8089                 3.7339                 1.1166
 Frc consts  --      1.0542                 2.2219                 0.6831
 IR Inten    --      7.6260                 0.0468                19.3068

                     46                     47                     48
                      A                      A                      A
 Frequencies --   1025.4793              1028.7719              1041.4424
 Red. masses --      2.6139                 2.2886                 1.5109
 Frc consts  --      1.6196                 1.4271                 0.9655
 IR Inten    --      0.9515                 3.3411                 4.1258

                     49                     50                     51
                      A                      A                      A
 Frequencies --   1048.7063              1062.2308              1074.8001
 Red. masses --      2.3096                 2.4858                 1.7611
 Frc consts  --      1.4966                 1.6526                 1.1986
 IR Inten    --      0.1289                 0.1052                 3.2307

                     52                     53                     54
                      A                      A                      A
 Frequencies --   1085.5409              1089.2437              1106.3215
 Red. masses --      3.3251                 2.0272                 2.0301
 Frc consts  --      2.3086                 1.4171                 1.4640
 IR Inten    --     86.4789                 4.2565                 0.1156

                     55                     56                     57
                      A                      A                      A
 Frequencies --   1109.0155              1123.4147              1146.5206
 Red. masses --      1.8807                 2.1280                 1.7743
 Frc consts  --      1.3628                 1.5824                 1.3742
 IR Inten    --      1.1603                 1.1478                 0.4476

                     58                     59                     60
                      A                      A                      A
 Frequencies --   1153.2750              1188.9270              1198.5635
 Red. masses --      1.4458                 1.6922                 1.6390
 Frc consts  --      1.1330                 1.4093                 1.3872
 IR Inten    --      5.6884                 0.5817                 1.3511

                     61                     62                     63
                      A                      A                      A
 Frequencies --   1234.1366              1245.4200              1251.9838
 Red. masses --      1.5068                 1.4709                 1.3125
 Frc consts  --      1.3522                 1.3442                 1.2121
 IR Inten    --      6.9893                 3.2449                 0.7523

                     64                     65                     66
                      A                      A                      A
 Frequencies --   1257.0857              1270.0505              1281.0718
 Red. masses --      1.3014                 1.3039                 1.3531
 Frc consts  --      1.2117                 1.2392                 1.3083
 IR Inten    --      5.9161                 9.0126                 2.2097

                     67                     68                     69
                      A                      A                      A
 Frequencies --   1294.7522              1304.5660              1310.3089
 Red. masses --      1.2501                 1.2160                 1.2162
 Frc consts  --      1.2347                 1.2193                 1.2303
 IR Inten    --      1.5811                 0.0355                 0.2116

                     70                     71                     72
                      A                      A                      A
 Frequencies --   1320.4987              1327.9580              1328.4224
 Red. masses --      1.1658                 1.1938                 1.1988
 Frc consts  --      1.1977                 1.2404                 1.2465
 IR Inten    --      0.4966                 0.8958                 0.5558

                     73                     74                     75
                      A                      A                      A
 Frequencies --   1337.8316              1339.4249              1345.0624
 Red. masses --      1.2866                 1.2122                 1.2737
 Frc consts  --      1.3568                 1.2814                 1.3577
 IR Inten    --      4.8155                 0.0847                 0.2150

                     76                     77                     78
                      A                      A                      A
 Frequencies --   1346.4374              1351.5168              1361.3034
 Red. masses --      1.2196                 1.3041                 1.3986
 Frc consts  --      1.3027                 1.4035                 1.5270
 IR Inten    --      1.3259                 1.2286                 0.7120

                     79                     80                     81
                      A                      A                      A
 Frequencies --   1381.3922              1386.8603              1391.5938
 Red. masses --      1.4365                 1.3289                 1.4984
 Frc consts  --      1.6150                 1.5059                 1.7096
 IR Inten    --      0.8105                 1.5257                 2.6150

                     82                     83                     84
                      A                      A                      A
 Frequencies --   1394.5873              1395.4646              1412.8334
 Red. masses --      1.5700                 1.4850                 1.2388
 Frc consts  --      1.7990                 1.7037                 1.4569
 IR Inten    --      2.7812                 0.2245                 0.7969

                     85                     86                     87
                      A                      A                      A
 Frequencies --   1419.5771              1476.3049              1477.6886
 Red. masses --      1.2368                 1.0840                 1.0848
 Frc consts  --      1.4684                 1.3920                 1.3957
 IR Inten    --     30.8706                 2.5568                 0.4036

                     88                     89                     90
                      A                      A                      A
 Frequencies --   1480.7461              1485.5369              1488.7352
 Red. masses --      1.0872                 1.0663                 1.0906
 Frc consts  --      1.4045                 1.3865                 1.4242
 IR Inten    --      0.2079                 0.4754                 0.7272

                     91                     92                     93
                      A                      A                      A
 Frequencies --   1492.6685              1498.6831              1499.6705
 Red. masses --      1.0833                 1.0720                 1.0406
 Frc consts  --      1.4221                 1.4187                 1.3789
 IR Inten    --      3.0455                 0.6569                 4.8198

                     94                     95                     96
                      A                      A                      A
 Frequencies --   1502.2091              1505.2886              1510.5240
 Red. masses --      1.0990                 1.0874                 1.1060
 Frc consts  --      1.4612                 1.4517                 1.4868
 IR Inten    --      1.8814                 3.4354                 1.0869

                     97                     98                     99
                      A                      A                      A
 Frequencies --   1512.1752              1742.6322              2972.3339
 Red. masses --      1.0875                 6.3943                 1.0701
 Frc consts  --      1.4652                11.4407                 5.5700
 IR Inten    --      2.7181                 0.0052                77.4517

                    100                    101                    102
                      A                      A                      A
 Frequencies --   2991.4919              2994.0431              2995.5592
 Red. masses --      1.0621                 1.0635                 1.0622
 Frc consts  --      5.6003                 5.6172                 5.6157
 IR Inten    --      1.5014                29.5309                24.9360

                    103                    104                    105
                      A                      A                      A
 Frequencies --   3003.6143              3006.8360              3009.5408
 Red. masses --      1.0754                 1.0589                 1.0763
 Frc consts  --      5.7160                 5.6407                 5.7435
 IR Inten    --     24.9942                 0.7499                26.3205

                    106                    107                    108
                      A                      A                      A
 Frequencies --   3015.5462              3015.6643              3024.7962
 Red. masses --      1.0621                 1.0704                 1.0859
 Frc consts  --      5.6906                 5.7353                 5.8536
 IR Inten    --     55.4077                11.6263                37.1793

                    109                    110                    111
                      A                      A                      A
 Frequencies --   3028.1428              3030.1056              3031.1887
 Red. masses --      1.0382                 1.0654                 1.0923
 Frc consts  --      5.6089                 5.7633                 5.9132
 IR Inten    --     35.3201                24.0116                13.1747

                    112                    113                    114
                      A                      A                      A
 Frequencies --   3035.7527              3037.6340              3042.9541
 Red. masses --      1.0659                 1.0848                 1.0971
 Frc consts  --      5.7879                 5.8975                 5.9852
 IR Inten    --     19.8637                30.4569                 5.4933

                    115                    116                    117
                      A                      A                      A
 Frequencies --   3046.0583              3059.4632              3062.8201
 Red. masses --      1.0910                 1.0937                 1.1036
 Frc consts  --      5.9643                 6.0314                 6.0994
 IR Inten    --      9.7092                36.4443                49.4733

                    118                    119                    120
                      A                      A                      A
 Frequencies --   3071.0902              3072.0596              3079.6304
 Red. masses --      1.1000                 1.1004                 1.0942
 Frc consts  --      6.1129                 6.1190                 6.1141
 IR Inten    --     45.1120                35.8900                47.1475

                    121                    122                    123
                      A                      A                      A
 Frequencies --   3089.1020              3094.7008              3099.5158
 Red. masses --      1.1033                 1.1020                 1.1010
 Frc consts  --      6.2031                 6.2185                 6.2320
 IR Inten    --     64.8018                55.6440                40.0422

                    124                    125                    126
                      A                      A                      A
 Frequencies --   3107.5546              3114.2626              3818.6913
 Red. masses --      1.0896                 1.0860                 1.0660
 Frc consts  --      6.1997                 6.2057                 9.1587
 IR Inten    --      4.6136                56.5555                15.4914

 - Thermochemistry -
 -------------------
 Temperature   298.150 Kelvin.  Pressure   1.00000 Atm.
 Atom     1 has atomic number  6 and mass  12.00000

 Molecular mass:   224.21402 amu.
 Principal axes and moments of inertia in atomic units:
                           1         2         3
     Eigenvalues --  1226.30466********************
           X            1.00000   0.00225  -0.00042
           Y           -0.00224   0.99980   0.01963
           Z            0.00047  -0.01963   0.99981
 This molecule is an asymmetric top.
 Rotational symmetry number  1.
 Warning -- assumption of classical behavior for rotation
           may cause significant error
 Rotational temperatures (Kelvin)      0.07063     0.00571     0.00544
 Rotational constants (GHZ):           1.47169     0.11902     0.11325
 Zero-point vibrational energy    1062978.1 (Joules/Mol)
                                  254.05787 (Kcal/Mol)
 Warning -- explicit consideration of  27 degrees of freedom as
           vibrations may cause significant error
 Vibrational temperatures:     27.16    36.40    50.10    71.72   104.05
          (Kelvin)            108.77   141.33   163.09   176.57   200.41
                              213.07   279.36   299.82   316.07   342.91
                              351.58   410.93   429.85   433.51   496.00
                              529.55   575.33   617.86   721.16   740.12
                              778.38   825.85   929.98  1058.79  1065.90
                             1117.57  1129.89  1175.42  1213.40  1249.02
                             1262.17  1294.99  1324.85  1344.50  1348.66
                             1392.98  1422.37  1430.93  1445.93  1466.14
                             1475.44  1480.17  1498.40  1508.85  1528.31
                             1546.40  1561.85  1567.18  1591.75  1595.63
                             1616.34  1649.59  1659.31  1710.60  1724.47
                             1775.65  1791.88  1801.33  1808.67  1827.32
                             1843.18  1862.86  1876.98  1885.24  1899.90
                             1910.64  1911.30  1924.84  1927.13  1935.24
                             1937.22  1944.53  1958.61  1987.52  1995.38
                             2002.19  2006.50  2007.76  2032.75  2042.45
                             2124.07  2126.06  2130.46  2137.36  2141.96
                             2147.62  2156.27  2157.69  2161.34  2165.77
                             2173.31  2175.68  2507.26  4276.53  4304.09
                             4307.76  4309.94  4321.53  4326.17  4330.06
                             4338.70  4338.87  4352.01  4356.82  4359.65
                             4361.20  4367.77  4370.48  4378.13  4382.60
                             4401.89  4406.72  4418.61  4420.01  4430.90
                             4444.53  4452.58  4459.51  4471.08  4480.73
                             5494.25

 Zero-point correction=                           0.404867 (Hartree/Particle)
 Thermal correction to Energy=                    0.424087
 Thermal correction to Enthalpy=                  0.425032
 Thermal correction to Gibbs Free Energy=         0.354658
 Sum of electronic and zero-point Energies=           -663.321798
 Sum of electronic and thermal Energies=              -663.302578
 Sum of electronic and thermal Enthalpies=            -663.301634
 Sum of electronic and thermal Free Energies=         -663.372008

                     E (Thermal)             CV                S
                      KCal/Mol        Cal/Mol-Kelvin    Cal/Mol-Kelvin
 Total                  266.119             70.750            148.114
 Electronic               0.000              0.000              0.000
 Translational            0.889              2.981             42.125
 Rotational               0.889              2.981             34.049
 Vibrational            264.341             64.789             71.941
 Vibration     1          0.593              1.986              6.749
 Vibration     2          0.593              1.985              6.167
 Vibration     3          0.594              1.983              5.534
 Vibration     4          0.595              1.978              4.823
 Vibration     5          0.598              1.967              4.089
 Vibration     6          0.599              1.965              4.002
 Vibration     7          0.604              1.950              3.489
 Vibration     8          0.607              1.938              3.211
 Vibration     9          0.610              1.930              3.057
 Vibration    10          0.615              1.914              2.814
 Vibration    11          0.617              1.905              2.697
 Vibration    12          0.635              1.848              2.188
 Vibration    13          0.642              1.828              2.058
 Vibration    14          0.647              1.811              1.962
 Vibration    15          0.656              1.782              1.815
 Vibration    16          0.660              1.772              1.771
 Vibration    17          0.683              1.700              1.500
 Vibration    18          0.692              1.676              1.424
 Vibration    19          0.693              1.671              1.410
 Vibration    20          0.723              1.586              1.190
 Vibration    21          0.741              1.538              1.088
 Vibration    22          0.766              1.470              0.963
 Vibration    23          0.791              1.406              0.861
 Vibration    24          0.857              1.247              0.655
 Vibration    25          0.869              1.218              0.623
 Vibration    26          0.896              1.159              0.563
 Vibration    27          0.930              1.088              0.497

                           ! Non-Optimized Parameters !
 Normal termination of Gaussian 16 at Sun May 28 23:33:17 2023.
