 Gaussian 16, Revision A.03,
 Gaussian 16:  ES64L-G16RevA.03 25-Dec-2016

 -----------------------------
 # opt freq b3lyp/6-31g(2df,p)
 -----------------------------

 -------------------
 Title Card Required
 -------------------
 Symbolic Z-matrix:
 Charge =  0 Multiplicity = 1

 SCF Done:  E(RB3LYP) =  -737.931579505     A.U. after   12 cycles
 SCF Done:  E(RB3LYP) =  -737.948067121     A.U. after   11 cycles
 SCF Done:  E(RB3LYP) =  -737.953256868     A.U. after   10 cycles
 SCF Done:  E(RB3LYP) =  -737.955637067     A.U. after   10 cycles
 SCF Done:  E(RB3LYP) =  -737.956130564     A.U. after   10 cycles
 SCF Done:  E(RB3LYP) =  -737.956255874     A.U. after    9 cycles
 SCF Done:  E(RB3LYP) =  -737.956323280     A.U. after    9 cycles
 SCF Done:  E(RB3LYP) =  -737.956289068     A.U. after   11 cycles
 SCF Done:  E(RB3LYP) =  -737.956517700     A.U. after   10 cycles
 SCF Done:  E(RB3LYP) =  -737.956498652     A.U. after    9 cycles
 SCF Done:  E(RB3LYP) =  -737.956923574     A.U. after   10 cycles
 SCF Done:  E(RB3LYP) =  -737.957112151     A.U. after    6 cycles
 SCF Done:  E(RB3LYP) =  -737.957093925     A.U. after    9 cycles
 SCF Done:  E(RB3LYP) =  -737.957221786     A.U. after    9 cycles
 SCF Done:  E(RB3LYP) =  -737.957247847     A.U. after    9 cycles
 SCF Done:  E(RB3LYP) =  -737.957254269     A.U. after    8 cycles
 SCF Done:  E(RB3LYP) =  -737.957257610     A.U. after    8 cycles
 SCF Done:  E(RB3LYP) =  -737.957258248     A.U. after    7 cycles
 SCF Done:  E(RB3LYP) =  -737.957258434     A.U. after    6 cycles
 Optimization completed.
    -- Stationary point found.
 Normal termination of Gaussian 16 at Tue May 23 14:07:43 2023.

 ----------------------------------------------------------------------
 #N Geom=AllCheck Guess=TCheck SCRF=Check GenChk RB3LYP/6-31G(2df,p) Fr
 eq
 ----------------------------------------------------------------------

 Structure from the checkpoint file:  "CCCCqCCCrOCCOCqCrCCO.chk"
 -------------------
 Title Card Required
 -------------------
 Charge =  0 Multiplicity = 1

                         Standard orientation:
 ---------------------------------------------------------------------
 Center     Atomic      Atomic             Coordinates (Angstroms)
 Number     Number       Type             X           Y           Z
 ---------------------------------------------------------------------
      1          6           0       -5.839978   -2.199833   -0.029349
      2          6           0       -4.912196   -1.011915   -0.303705
      3          6           0       -3.480499   -1.268590    0.176998
      4          6           0       -2.462488   -0.169488   -0.143814
      5          6           0       -2.790513    1.203222    0.487018
      6          6           0       -3.494503    2.192980   -0.451247
      7          6           0       -3.803086    3.532676    0.222896
      8          8           0       -1.211966   -0.670826    0.330128
      9          6           0       -0.076249   -0.121296   -0.294900
     10          6           0        1.148436   -0.785809    0.318452
     11          8           0        2.283043   -0.259291   -0.333279
     12          6           0        3.538028   -0.612502    0.238114
     13          6           0        3.913960   -2.061981   -0.084066
     14          6           0        4.542051    0.409464   -0.302564
     15          6           0        5.937402    0.329951    0.320181
     16          8           0        6.771671    1.403877   -0.087483
     17          1           0       -6.858645   -1.999204   -0.375571
     18          1           0       -5.889509   -2.422814    1.042225
     19          1           0       -5.485864   -3.103539   -0.537432
     20          1           0       -5.319361   -0.119197    0.185728
     21          1           0       -4.906489   -0.795543   -1.380363
     22          1           0       -3.107707   -2.199699   -0.266438
     23          1           0       -3.476026   -1.423767    1.264135
     24          1           0       -2.397895   -0.050872   -1.239615
     25          1           0       -1.851881    1.655476    0.827684
     26          1           0       -3.393275    1.051667    1.392249
     27          1           0       -4.424041    1.755912   -0.834055
     28          1           0       -2.858798    2.363144   -1.330368
     29          1           0       -4.469138    3.399369    1.082708
     30          1           0       -4.289250    4.226507   -0.470063
     31          1           0       -2.887728    4.012054    0.587696
     32          1           0       -0.006059    0.967917   -0.150989
     33          1           0       -0.092401   -0.307935   -1.381059
     34          1           0        1.064371   -1.875610    0.196035
     35          1           0        1.180181   -0.575720    1.399551
     36          1           0        3.472268   -0.496920    1.334418
     37          1           0        4.004167   -2.198133   -1.166856
     38          1           0        3.159434   -2.760942    0.287075
     39          1           0        4.866427   -2.333700    0.380903
     40          1           0        4.139865    1.411524   -0.122530
     41          1           0        4.614055    0.285762   -1.392297
     42          1           0        6.410591   -0.639398    0.100511
     43          1           0        5.867521    0.412320    1.411073
     44          1           0        6.871012    1.349993   -1.043375
 ---------------------------------------------------------------------

 SCF Done:  E(RB3LYP) =  -737.957258434     A.U. after    1 cycles

 The electronic state is 1-A.
 Alpha  occ. eigenvalues --  -19.13582 -19.13222 -19.13157 -10.23453 -10.22605
 Alpha  occ. eigenvalues --  -10.22580 -10.22241 -10.22124 -10.18001 -10.17932
 Alpha  occ. eigenvalues --  -10.17707 -10.17596 -10.17383 -10.17288 -10.17220
 Alpha  occ. eigenvalues --  -10.17216  -1.03304  -1.02302  -1.01252  -0.80801
 Alpha  occ. eigenvalues --   -0.79311  -0.77564  -0.74471  -0.71549  -0.70376
 Alpha  occ. eigenvalues --   -0.67438  -0.64375  -0.61354  -0.59509  -0.58265
 Alpha  occ. eigenvalues --   -0.57750  -0.56496  -0.50881  -0.49907  -0.48042
 Alpha  occ. eigenvalues --   -0.47936  -0.47094  -0.45989  -0.45105  -0.44296
 Alpha  occ. eigenvalues --   -0.43405  -0.43051  -0.41883  -0.40205  -0.39654
 Alpha  occ. eigenvalues --   -0.39374  -0.38949  -0.38515  -0.37658  -0.36797
 Alpha  occ. eigenvalues --   -0.36365  -0.35443  -0.34985  -0.34142  -0.33670
 Alpha  occ. eigenvalues --   -0.33346  -0.32926  -0.32179  -0.31631  -0.31496
 Alpha  occ. eigenvalues --   -0.30573  -0.29988  -0.26613  -0.25298  -0.24550
 Alpha virt. eigenvalues --    0.07913   0.08225   0.08288   0.09565   0.10227
 Alpha virt. eigenvalues --    0.10727   0.11454   0.12357   0.12975   0.13031
 Alpha virt. eigenvalues --    0.13404   0.14105   0.14565   0.15320   0.15660

 Mulliken charges:
               1
     1  C   -0.380728
     2  C   -0.174618
     3  C   -0.180873
     4  C    0.120447
     5  C   -0.189832
     6  C   -0.170429
     7  C   -0.379366
     8  O   -0.268531
     9  C   -0.081311
    10  C   -0.081832
    11  O   -0.265538
    12  C    0.142830
    13  C   -0.403931
    14  C   -0.214693
    15  C   -0.063535
    16  O   -0.417890
    17  H    0.110281
    18  H    0.115130
    19  H    0.114980
    20  H    0.101677
    21  H    0.094611
    22  H    0.095985
    23  H    0.100191
    24  H    0.058893
    25  H    0.101138
    26  H    0.092831
    27  H    0.101562
    28  H    0.095928
    29  H    0.114072
    30  H    0.111017
    31  H    0.114743
    32  H    0.093079
    33  H    0.092994
    34  H    0.097624
    35  H    0.093313
    36  H    0.065160
    37  H    0.120281
    38  H    0.121222
    39  H    0.119645
    40  H    0.112728
    41  H    0.091240
    42  H    0.088418
    43  H    0.110775
    44  H    0.280313
 Sum of Mulliken charges =  -0.00000

 Dipole moment (field-independent basis, Debye):
    X=             -0.8559    Y=             -0.8216    Z=             -0.8877  Tot=              1.4818
 Quadrupole moment (field-independent basis, Debye-Ang):
   XX=           -104.6504   YY=           -104.6168   ZZ=            -99.9590
   XY=             -8.8969   XZ=             -4.9854   YZ=             -1.0960

  Exact polarizability: 191.761   3.523 154.523  -0.964  -1.108 130.826
 Approx polarizability: 216.570   2.429 206.768  -2.097  -2.560 209.078

                      1                      2                      3
                      A                      A                      A
 Frequencies --     11.8279                18.8421                35.0247
 Red. masses --      3.2236                 4.5323                 3.1759
 Frc consts  --      0.0003                 0.0009                 0.0023
 IR Inten    --      0.6018                 0.1426                 0.1921

                      4                      5                      6
                      A                      A                      A
 Frequencies --     53.5308                61.9801                63.1958
 Red. masses --      3.6928                 2.2348                 2.0202
 Frc consts  --      0.0062                 0.0051                 0.0048
 IR Inten    --      0.7640                 0.8157                 0.0089

                      7                      8                      9
                      A                      A                      A
 Frequencies --     77.1629                84.7208               100.5192
 Red. masses --      1.9025                 2.1698                 2.3847
 Frc consts  --      0.0067                 0.0092                 0.0142
 IR Inten    --      1.2253                 1.3734                 0.1430

                     10                     11                     12
                      A                      A                      A
 Frequencies --    104.2885               113.8089               133.9375
 Red. masses --      2.3570                 2.2018                 2.7567
 Frc consts  --      0.0151                 0.0168                 0.0291
 IR Inten    --      0.6609                 0.9317                 0.8615

                     13                     14                     15
                      A                      A                      A
 Frequencies --    172.9490               176.3442               195.5303
 Red. masses --      2.5943                 3.3722                 3.6998
 Frc consts  --      0.0457                 0.0618                 0.0833
 IR Inten    --      4.4055                 2.4793                 0.1746

                     16                     17                     18
                      A                      A                      A
 Frequencies --    210.1297               234.9196               245.1976
 Red. masses --      2.8806                 1.2395                 1.1542
 Frc consts  --      0.0749                 0.0403                 0.0409
 IR Inten    --      0.9385                 2.2831                 0.1220

                     19                     20                     21
                      A                      A                      A
 Frequencies --    251.1763               271.4390               300.6551
 Red. masses --      1.1545                 2.8949                 1.2780
 Frc consts  --      0.0429                 0.1257                 0.0681
 IR Inten    --      0.3548                 8.1186                80.8825

                     22                     23                     24
                      A                      A                      A
 Frequencies --    305.2737               325.5308               352.6117
 Red. masses --      2.3698                 3.3085                 3.9316
 Frc consts  --      0.1301                 0.2066                 0.2880
 IR Inten    --      6.6466                 8.1909                15.0128

                     25                     26                     27
                      A                      A                      A
 Frequencies --    386.9837               412.4593               456.0539
 Red. masses --      3.2815                 3.1955                 2.8030
 Frc consts  --      0.2895                 0.3203                 0.3435
 IR Inten    --      0.9738                 6.1622                 2.0723

                     28                     29                     30
                      A                      A                      A
 Frequencies --    488.9811               519.7590               561.1649
 Red. masses --      2.8593                 2.5756                 3.3071
 Frc consts  --      0.4028                 0.4100                 0.6136
 IR Inten    --      8.7849                 2.6885                 1.3010

                     31                     32                     33
                      A                      A                      A
 Frequencies --    577.0143               734.7205               753.0314
 Red. masses --      3.2828                 1.1189                 1.1070
 Frc consts  --      0.6440                 0.3559                 0.3698
 IR Inten    --      1.7125                 3.3252                 2.3008

                     34                     35                     36
                      A                      A                      A
 Frequencies --    786.7193               833.8223               853.0925
 Red. masses --      1.1827                 1.1254                 1.3595
 Frc consts  --      0.4313                 0.4610                 0.5829
 IR Inten    --      2.1919                 0.3991                 4.3884

                     37                     38                     39
                      A                      A                      A
 Frequencies --    857.4458               863.6639               908.1523
 Red. masses --      1.8122                 1.6544                 1.8022
 Frc consts  --      0.7850                 0.7271                 0.8757
 IR Inten    --      3.1190                 2.1917                 4.6168

                     40                     41                     42
                      A                      A                      A
 Frequencies --    911.6184               935.9281               958.0292
 Red. masses --      1.7482                 2.0736                 2.0192
 Frc consts  --      0.8560                 1.0702                 1.0919
 IR Inten    --      6.0444                 8.3123                 1.8447

                     43                     44                     45
                      A                      A                      A
 Frequencies --    964.4059               998.7164              1014.7877
 Red. masses --      1.4348                 2.4104                 3.1967
 Frc consts  --      0.7863                 1.4165                 1.9395
 IR Inten    --      7.1614                12.5862                20.4303

                     46                     47                     48
                      A                      A                      A
 Frequencies --   1034.7970              1054.6898              1061.4831
 Red. masses --      3.0248                 1.9584                 1.6058
 Frc consts  --      1.9083                 1.2835                 1.0661
 IR Inten    --      2.0933                 0.6197                 2.6775

                     49                     50                     51
                      A                      A                      A
 Frequencies --   1073.4444              1078.9666              1085.4911
 Red. masses --      3.8178                 2.4612                 2.1147
 Frc consts  --      2.5919                 1.6882                 1.4681
 IR Inten    --     95.5718                59.3641                20.3361

                     52                     53                     54
                      A                      A                      A
 Frequencies --   1107.9077              1130.1770              1132.8982
 Red. masses --      2.7386                 2.0406                 2.0558
 Frc consts  --      1.9805                 1.5357                 1.5546
 IR Inten    --      5.7937                 2.1616                13.2733

                     55                     56                     57
                      A                      A                      A
 Frequencies --   1137.8423              1144.5711              1155.4795
 Red. masses --      2.6225                 4.2930                 2.6416
 Frc consts  --      2.0004                 3.3136                 2.0780
 IR Inten    --     50.3361               190.7876                27.7851

                     58                     59                     60
                      A                      A                      A
 Frequencies --   1162.5001              1171.6165              1196.3441
 Red. masses --      2.8386                 1.7734                 2.1295
 Frc consts  --      2.2602                 1.4343                 1.7958
 IR Inten    --    183.2716                56.1284                25.8613

                     61                     62                     63
                      A                      A                      A
 Frequencies --   1224.8059              1231.7446              1247.7659
 Red. masses --      1.5381                 1.2334                 1.4262
 Frc consts  --      1.3595                 1.1025                 1.3082
 IR Inten    --      2.4695                 9.1818                 1.6072

                     64                     65                     66
                      A                      A                      A
 Frequencies --   1276.7125              1283.1500              1293.4466
 Red. masses --      1.2907                 1.2630                 1.2305
 Frc consts  --      1.2395                 1.2252                 1.2129
 IR Inten    --      9.2966                 4.9121                 3.5850

                     67                     68                     69
                      A                      A                      A
 Frequencies --   1295.5602              1305.5380              1312.7494
 Red. masses --      1.1677                 1.2294                 1.2179
 Frc consts  --      1.1548                 1.2346                 1.2366
 IR Inten    --      1.6930                 6.8095                12.3209

                     70                     71                     72
                      A                      A                      A
 Frequencies --   1323.2443              1331.4478              1344.0022
 Red. masses --      1.1032                 1.0967                 1.2333
 Frc consts  --      1.1381                 1.1454                 1.3126
 IR Inten    --      0.5459                 1.0954                61.6634

                     73                     74                     75
                      A                      A                      A
 Frequencies --   1369.5063              1375.3645              1376.5027
 Red. masses --      1.2805                 1.3167                 1.3554
 Frc consts  --      1.4150                 1.4675                 1.5131
 IR Inten    --      3.0110                17.4412                 0.4014

                     76                     77                     78
                      A                      A                      A
 Frequencies --   1388.4926              1391.7272              1402.8442
 Red. masses --      1.3993                 1.4954                 1.3844
 Frc consts  --      1.5895                 1.7065                 1.6052
 IR Inten    --      1.8254                10.4275                 5.4530

                     79                     80                     81
                      A                      A                      A
 Frequencies --   1407.0491              1410.8483              1412.2565
 Red. masses --      1.2814                 1.3179                 1.2366
 Frc consts  --      1.4948                 1.5456                 1.4531
 IR Inten    --     17.0004                 5.6292                 0.9530

                     82                     83                     84
                      A                      A                      A
 Frequencies --   1415.4430              1425.0963              1453.8454
 Red. masses --      1.3120                 1.2913                 1.5359
 Frc consts  --      1.5487                 1.5452                 1.9127
 IR Inten    --      6.1477                50.9029                 0.0735

                     85                     86                     87
                      A                      A                      A
 Frequencies --   1480.6751              1483.4708              1487.4502
 Red. masses --      1.0782                 1.0717                 1.0641
 Frc consts  --      1.3928                 1.3895                 1.3871
 IR Inten    --      2.1040                 0.3676                 2.6337

                     88                     89                     90
                      A                      A                      A
 Frequencies --   1492.4308              1494.6282              1495.7253
 Red. masses --      1.0618                 1.0522                 1.0700
 Frc consts  --      1.3934                 1.3848                 1.4104
 IR Inten    --      2.7315                 1.3204                 2.9194

                     91                     92                     93
                      A                      A                      A
 Frequencies --   1499.3713              1499.6579              1502.4279
 Red. masses --      1.0406                 1.0402                 1.0633
 Frc consts  --      1.3783                 1.3783                 1.4141
 IR Inten    --      4.9239                 6.4713                 5.0937

                     94                     95                     96
                      A                      A                      A
 Frequencies --   1510.5100              1512.6336              1516.7495
 Red. masses --      1.0837                 1.0872                 1.0912
 Frc consts  --      1.4569                 1.4657                 1.4791
 IR Inten    --      4.1257                 1.0472                 0.1458

                     97                     98                     99
                      A                      A                      A
 Frequencies --   1522.9550              1534.4109              2945.0147
 Red. masses --      1.0823                 1.0868                 1.0809
 Frc consts  --      1.4790                 1.5076                 5.5236
 IR Inten    --      0.8772                 6.9250                23.7456

                    100                    101                    102
                      A                      A                      A
 Frequencies --   2945.7727              2969.1864              2977.1899
 Red. masses --      1.0812                 1.0577                 1.0568
 Frc consts  --      5.5278                 5.4938                 5.5190
 IR Inten    --     28.5393                11.5037                66.7784

                    103                    104                    105
                      A                      A                      A
 Frequencies --   2984.0294              2996.2671              3013.4235
 Red. masses --      1.0687                 1.0987                 1.0610
 Frc consts  --      5.6069                 5.8117                 5.6768
 IR Inten    --     55.9075                 3.9107                 4.7775

                    106                    107                    108
                      A                      A                      A
 Frequencies --   3015.8482              3016.2176              3022.1557
 Red. masses --      1.0663                 1.0639                 1.0641
 Frc consts  --      5.7142                 5.7024                 5.7265
 IR Inten    --     20.5673                 1.7230                 7.4154

                    109                    110                    111
                      A                      A                      A
 Frequencies --   3024.1139              3025.3348              3029.0953
 Red. masses --      1.0967                 1.0580                 1.0400
 Frc consts  --      5.9093                 5.7055                 5.6225
 IR Inten    --     69.0799                43.9820                62.9008

                    112                    113                    114
                      A                      A                      A
 Frequencies --   3030.3307              3039.8378              3045.5408
 Red. masses --      1.0404                 1.0375                 1.0974
 Frc consts  --      5.6292                 5.6486                 5.9972
 IR Inten    --     45.0412                24.3875                 0.1934

                    115                    116                    117
                      A                      A                      A
 Frequencies --   3049.8464              3058.6782              3067.1301
 Red. masses --      1.0939                 1.0896                 1.1016
 Frc consts  --      5.9947                 6.0059                 6.1057
 IR Inten    --      3.1029                26.3185                35.7789

                    118                    119                    120
                      A                      A                      A
 Frequencies --   3071.1300              3087.0765              3096.0772
 Red. masses --      1.1017                 1.0990                 1.1022
 Frc consts  --      6.1221                 6.1705                 6.2248
 IR Inten    --     25.4162                37.1953                51.1395

                    121                    122                    123
                      A                      A                      A
 Frequencies --   3097.9084              3100.7064              3102.0319
 Red. masses --      1.1023                 1.1009                 1.1011
 Frc consts  --      6.2327                 6.2363                 6.2427
 IR Inten    --     61.4629                30.5006                48.8192

                    124                    125                    126
                      A                      A                      A
 Frequencies --   3111.6013              3114.7582              3814.3245
 Red. masses --      1.1012                 1.1007                 1.0661
 Frc consts  --      6.2815                 6.2918                 9.1388
 IR Inten    --     26.5833                30.2834                16.2426

 - Thermochemistry -
 -------------------
 Temperature   298.150 Kelvin.  Pressure   1.00000 Atm.
 Atom     1 has atomic number  6 and mass  12.00000

 Molecular mass:   232.20384 amu.
 Principal axes and moments of inertia in atomic units:
                           1         2         3
     Eigenvalues --  2060.50249********************
           X            0.99997  -0.00722   0.00023
           Y            0.00722   0.99997  -0.00009
           Z           -0.00023   0.00009   1.00000
 This molecule is an asymmetric top.
 Rotational symmetry number  1.
 Warning -- assumption of classical behavior for rotation
           may cause significant error
 Rotational temperatures (Kelvin)      0.04204     0.00648     0.00573
 Rotational constants (GHZ):           0.87587     0.13500     0.11933
 Zero-point vibrational energy    1050250.8 (Joules/Mol)
                                  251.01597 (Kcal/Mol)
 Warning -- explicit consideration of  31 degrees of freedom as
           vibrations may cause significant error
 Vibrational temperatures:     17.02    27.11    50.39    77.02    89.18
          (Kelvin)             90.92   111.02   121.89   144.62   150.05
                              163.75   192.71   248.84   253.72   281.32
                              302.33   338.00   352.78   361.39   390.54
                              432.58   439.22   468.37   507.33   556.78
                              593.44   656.16   703.53   747.82   807.39
                              830.19  1057.10  1083.44  1131.91  1199.68
                             1227.41  1233.67  1242.62  1306.63  1311.62
                             1346.59  1378.39  1387.57  1436.93  1460.05
                             1488.84  1517.46  1527.24  1544.45  1552.39
                             1561.78  1594.03  1626.07  1629.99  1637.10
                             1646.78  1662.48  1672.58  1685.69  1721.27
                             1762.22  1772.21  1795.26  1836.90  1846.17
                             1860.98  1864.02  1878.38  1888.75  1903.85
                             1915.66  1933.72  1970.41  1978.84  1980.48
                             1997.73  2002.39  2018.38  2024.43  2029.90
                             2031.92  2036.51  2050.40  2091.76  2130.36
                             2134.38  2140.11  2147.28  2150.44  2152.02
                             2157.26  2157.67  2161.66  2173.29  2176.34
                             2182.26  2191.19  2207.68  4237.22  4238.31
                             4272.00  4283.51  4293.35  4310.96  4335.64
                             4339.13  4339.66  4348.21  4351.03  4352.78
                             4358.19  4359.97  4373.65  4381.85  4388.05
                             4400.76  4412.92  4418.67  4441.61  4454.56
                             4457.20  4461.22  4463.13  4476.90  4481.44
                             5487.96

 Zero-point correction=                           0.400019 (Hartree/Particle)
 Thermal correction to Energy=                    0.421382
 Thermal correction to Enthalpy=                  0.422326
 Thermal correction to Gibbs Free Energy=         0.346008
 Sum of electronic and zero-point Energies=           -737.557239
 Sum of electronic and thermal Energies=              -737.535876
 Sum of electronic and thermal Enthalpies=            -737.534932
 Sum of electronic and thermal Free Energies=         -737.611251

                     E (Thermal)             CV                S
                      KCal/Mol        Cal/Mol-Kelvin    Cal/Mol-Kelvin
 Total                  264.421             75.133            160.626
 Electronic               0.000              0.000              0.000
 Translational            0.889              2.981             42.229
 Rotational               0.889              2.981             34.387
 Vibrational            262.644             69.171             84.009
 Vibration     1          0.593              1.987              7.678
 Vibration     2          0.593              1.986              6.753
 Vibration     3          0.594              1.982              5.522
 Vibration     4          0.596              1.976              4.682
 Vibration     5          0.597              1.972              4.393
 Vibration     6          0.597              1.972              4.355
 Vibration     7          0.599              1.964              3.962
 Vibration     8          0.601              1.960              3.778
 Vibration     9          0.604              1.949              3.444
 Vibration    10          0.605              1.946              3.373
 Vibration    11          0.607              1.938              3.203
 Vibration    12          0.613              1.919              2.889
 Vibration    13          0.626              1.876              2.403
 Vibration    14          0.628              1.872              2.367
 Vibration    15          0.636              1.846              2.175
 Vibration    16          0.642              1.825              2.043
 Vibration    17          0.655              1.787              1.841
 Vibration    18          0.660              1.771              1.765
 Vibration    19          0.663              1.761              1.722
 Vibration    20          0.675              1.726              1.587
 Vibration    21          0.693              1.672              1.413
 Vibration    22          0.696              1.664              1.388
 Vibration    23          0.710              1.624              1.282
 Vibration    24          0.729              1.570              1.154
 Vibration    25          0.755              1.498              1.012
 Vibration    26          0.776              1.443              0.918
 Vibration    27          0.814              1.348              0.778
 Vibration    28          0.845              1.274              0.686
 Vibration    29          0.875              1.206              0.611
 Vibration    30          0.917              1.115              0.522
 Vibration    31          0.933              1.081              0.491

                           ! Non-Optimized Parameters !
 Normal termination of Gaussian 16 at Tue May 23 17:30:13 2023.
