 Gaussian 16, Revision A.03,
 Gaussian 16:  ES64L-G16RevA.03 25-Dec-2016

 -----------------------------
 # opt freq b3lyp/6-31g(2df,p)
 -----------------------------

 -------------------
 Title Card Required
 -------------------
 Symbolic Z-matrix:
 Charge =  0 Multiplicity = 1

 SCF Done:  E(RB3LYP) =  -393.118068283     A.U. after   12 cycles
 SCF Done:  E(RB3LYP) =  -393.125946107     A.U. after   10 cycles
 SCF Done:  E(RB3LYP) =  -393.127255487     A.U. after    9 cycles
 SCF Done:  E(RB3LYP) =  -393.127838703     A.U. after    9 cycles
 SCF Done:  E(RB3LYP) =  -393.128024256     A.U. after    9 cycles
 SCF Done:  E(RB3LYP) =  -393.128067711     A.U. after    9 cycles
 SCF Done:  E(RB3LYP) =  -393.128078298     A.U. after    8 cycles
 SCF Done:  E(RB3LYP) =  -393.128083723     A.U. after    8 cycles
 SCF Done:  E(RB3LYP) =  -393.128084544     A.U. after    6 cycles
 SCF Done:  E(RB3LYP) =  -393.128084617     A.U. after    6 cycles
 SCF Done:  E(RB3LYP) =  -393.128084623     A.U. after    5 cycles
 Optimization completed.
    -- Stationary point found.
 Normal termination of Gaussian 16 at Mon May 29 00:02:32 2023.

 ----------------------------------------------------------------------
 #N Geom=AllCheck Guess=TCheck SCRF=Check GenChk RB3LYP/6-31G(2df,p) Fr
 eq
 ----------------------------------------------------------------------

 Structure from the checkpoint file:  "CCCCCCC1CCC1.chk"
 -------------------
 Title Card Required
 -------------------
 Charge =  0 Multiplicity = 1

                         Standard orientation:
 ---------------------------------------------------------------------
 Center     Atomic      Atomic             Coordinates (Angstroms)
 Number     Number       Type             X           Y           Z
 ---------------------------------------------------------------------
      1          6           0        5.032377   -0.774796   -0.000008
      2          6           0        3.919951    0.277230    0.000035
      3          6           0        2.512972   -0.330274    0.000030
      4          6           0        1.393829    0.716153   -0.000038
      5          6           0       -0.013831    0.108025    0.000120
      6          6           0       -1.120066    1.170423   -0.000161
      7          6           0       -2.561220    0.657407   -0.000138
      8          6           0       -3.069216   -0.339658   -1.083400
      9          6           0       -3.974596   -0.984784    0.000098
     10          6           0       -3.069293   -0.339277    1.083442
     11          1           0        6.023707   -0.310607    0.000030
     12          1           0        4.967171   -1.419901   -0.883446
     13          1           0        4.967149   -1.419998    0.883358
     14          1           0        4.032011    0.929231   -0.876555
     15          1           0        4.032027    0.929176    0.876665
     16          1           0        2.400651   -0.983405    0.877056
     17          1           0        2.400684   -0.983471   -0.876950
     18          1           0        1.507173    1.368964   -0.877031
     19          1           0        1.507267    1.369183    0.876781
     20          1           0       -0.119956   -0.543293    0.877484
     21          1           0       -0.119963   -0.543776   -0.876886
     22          1           0       -0.983582    1.820881   -0.876168
     23          1           0       -0.983699    1.821236    0.875604
     24          1           0       -3.228206    1.528355   -0.000308
     25          1           0       -2.283067   -1.029991   -1.403608
     26          1           0       -3.546328    0.077396   -1.974308
     27          1           0       -4.071147   -2.073118    0.000288
     28          1           0       -4.977692   -0.548165   -0.000014
     29          1           0       -2.283176   -1.029500    1.403958
     30          1           0       -3.546475    0.078099    1.974162
 ---------------------------------------------------------------------

 SCF Done:  E(RB3LYP) =  -393.128084623     A.U. after    1 cycles

 The electronic state is 1-A.
 Alpha  occ. eigenvalues --  -10.17854 -10.17435 -10.17375 -10.17228 -10.17193
 Alpha  occ. eigenvalues --  -10.17175 -10.17154 -10.17132 -10.17131 -10.16869
 Alpha  occ. eigenvalues --   -0.83699  -0.79875  -0.76289  -0.71265  -0.65717
 Alpha  occ. eigenvalues --   -0.64844  -0.60589  -0.57981  -0.57046  -0.52703
 Alpha  occ. eigenvalues --   -0.47365  -0.47036  -0.45302  -0.44304  -0.41901
 Alpha  occ. eigenvalues --   -0.40565  -0.40060  -0.38078  -0.37964  -0.35914
 Alpha  occ. eigenvalues --   -0.35766  -0.34262  -0.32909  -0.32298  -0.31961
 Alpha  occ. eigenvalues --   -0.31624  -0.31562  -0.29260  -0.28901  -0.28561
 Alpha virt. eigenvalues --    0.09050   0.09306   0.10148   0.10898   0.11500
 Alpha virt. eigenvalues --    0.12711   0.13602   0.13641   0.15459   0.15831
 Alpha virt. eigenvalues --    0.16931   0.17674   0.18860   0.18993   0.19243

 Mulliken charges:
               1
     1  C   -0.379043
     2  C   -0.162243
     3  C   -0.161771
     4  C   -0.171924
     5  C   -0.182191
     6  C   -0.225074
     7  C    0.054511
     8  C   -0.225692
     9  C   -0.203601
    10  C   -0.225692
    11  H    0.109393
    12  H    0.112242
    13  H    0.112242
    14  H    0.092745
    15  H    0.092745
    16  H    0.089446
    17  H    0.089447
    18  H    0.090096
    19  H    0.090096
    20  H    0.094172
    21  H    0.094170
    22  H    0.090253
    23  H    0.090253
    24  H    0.065621
    25  H    0.099707
    26  H    0.089572
    27  H    0.092330
    28  H    0.098910
    29  H    0.099708
    30  H    0.089572
 Sum of Mulliken charges =   0.00000

 Dipole moment (field-independent basis, Debye):
    X=              0.0345    Y=              0.1363    Z=              0.0000  Tot=              0.1405
 Quadrupole moment (field-independent basis, Debye-Ang):
   XX=            -67.2637   YY=            -66.4383   ZZ=            -65.8517
   XY=             -0.5287   XZ=              0.0002   YZ=             -0.0000

  Exact polarizability: 132.637   1.210  98.083  -0.000   0.000  95.823
 Approx polarizability: 148.272   0.662 145.393   0.000   0.000 146.497

                      1                      2                      3
                      A                      A                      A
 Frequencies --     35.8706                50.3704                65.2471
 Red. masses --      1.6896                 2.7962                 3.2747
 Frc consts  --      0.0013                 0.0042                 0.0082
 IR Inten    --      0.0007                 0.0006                 0.0058

                      4                      5                      6
                      A                      A                      A
 Frequencies --    103.8421               123.4224               131.5415
 Red. masses --      1.8876                 2.0391                 2.4651
 Frc consts  --      0.0120                 0.0183                 0.0251
 IR Inten    --      0.0098                 0.0005                 0.0046

                      7                      8                      9
                      A                      A                      A
 Frequencies --    158.2372               209.4567               246.9990
 Red. masses --      2.0423                 2.4831                 1.1187
 Frc consts  --      0.0301                 0.0642                 0.0402
 IR Inten    --      0.0010                 0.0064                 0.0007

                     10                     11                     12
                      A                      A                      A
 Frequencies --    256.2028               308.3788               381.9975
 Red. masses --      3.3139                 2.1403                 2.9226
 Frc consts  --      0.1282                 0.1199                 0.2513
 IR Inten    --      0.0130                 0.0322                 0.0394

                     13                     14                     15
                      A                      A                      A
 Frequencies --    437.6376               537.7361               637.6576
 Red. masses --      2.8580                 2.1219                 2.6078
 Frc consts  --      0.3225                 0.3615                 0.6248
 IR Inten    --      0.1287                 3.4365                 0.8774

                     16                     17                     18
                      A                      A                      A
 Frequencies --    729.0745               736.3851               748.8852
 Red. masses --      1.0861                 1.1119                 1.5992
 Frc consts  --      0.3401                 0.3552                 0.5284
 IR Inten    --      4.1571                 0.3866                 0.1764

                     19                     20                     21
                      A                      A                      A
 Frequencies --    768.7455               800.1721               873.3600
 Red. masses --      1.2020                 1.1938                 1.3806
 Frc consts  --      0.4185                 0.4504                 0.6205
 IR Inten    --      0.7741                 0.0530                 0.2243

                     22                     23                     24
                      A                      A                      A
 Frequencies --    890.3066               900.1655               933.2444
 Red. masses --      2.1509                 1.9833                 2.4070
 Frc consts  --      1.0045                 0.9468                 1.2351
 IR Inten    --      0.0182                 1.9136                 1.1946

                     25                     26                     27
                      A                      A                      A
 Frequencies --    936.4742               952.0251               979.3799
 Red. masses --      1.6031                 2.5315                 1.0875
 Frc consts  --      0.8283                 1.3518                 0.6146
 IR Inten    --      0.1614                 0.3652                 0.4632

                     28                     29                     30
                      A                      A                      A
 Frequencies --   1001.7365              1010.4084              1028.6942
 Red. masses --      2.5103                 3.7281                 1.2077
 Frc consts  --      1.4842                 2.2425                 0.7530
 IR Inten    --      0.3978                 0.0346                 0.1049

                     31                     32                     33
                      A                      A                      A
 Frequencies --   1054.4049              1070.2228              1106.6775
 Red. masses --      2.8071                 2.2456                 1.7190
 Frc consts  --      1.8388                 1.5154                 1.2404
 IR Inten    --      0.2367                 0.1012                 0.3558

                     34                     35                     36
                      A                      A                      A
 Frequencies --   1137.0755              1152.7596              1154.5747
 Red. masses --      2.5296                 2.6854                 1.4879
 Frc consts  --      1.9270                 2.1025                 1.1686
 IR Inten    --      1.5328                 1.8434                 0.5688

                     37                     38                     39
                      A                      A                      A
 Frequencies --   1206.7348              1228.8822              1239.1769
 Red. masses --      1.5170                 1.5140                 1.3857
 Frc consts  --      1.3015                 1.3471                 1.2537
 IR Inten    --      0.1491                 0.0068                 0.8631

                     40                     41                     42
                      A                      A                      A
 Frequencies --   1254.8612              1254.9873              1263.5571
 Red. masses --      1.3125                 1.2273                 1.2801
 Frc consts  --      1.2177                 1.1389                 1.2041
 IR Inten    --      1.7585                 0.3717                 0.3126

                     43                     44                     45
                      A                      A                      A
 Frequencies --   1278.0115              1280.3351              1304.8256
 Red. masses --      1.4731                 1.2903                 1.2963
 Frc consts  --      1.4175                 1.2462                 1.3004
 IR Inten    --      1.4430                 0.2700                 0.1495

                     46                     47                     48
                      A                      A                      A
 Frequencies --   1314.8141              1328.5921              1332.5172
 Red. masses --      1.4034                 1.0486                 1.1643
 Frc consts  --      1.4295                 1.0905                 1.2180
 IR Inten    --      4.0832                 0.0866                 0.0019

                     49                     50                     51
                      A                      A                      A
 Frequencies --   1344.8204              1363.1963              1383.5947
 Red. masses --      1.1515                 1.5517                 1.4278
 Frc consts  --      1.2269                 1.6990                 1.6104
 IR Inten    --      0.8002                 1.4726                 7.1321

                     52                     53                     54
                      A                      A                      A
 Frequencies --   1399.9775              1408.2057              1412.8052
 Red. masses --      1.6180                 1.4671                 1.2507
 Frc consts  --      1.8684                 1.7141                 1.4709
 IR Inten    --      1.5882                11.3385                 0.5679

                     55                     56                     57
                      A                      A                      A
 Frequencies --   1476.0945              1478.9717              1482.6629
 Red. masses --      1.0808                 1.0909                 1.0735
 Frc consts  --      1.3875                 1.4059                 1.3904
 IR Inten    --      1.2655                 0.2417                 0.1175

                     58                     59                     60
                      A                      A                      A
 Frequencies --   1484.8091              1486.7577              1494.7566
 Red. masses --      1.0714                 1.0823                 1.0755
 Frc consts  --      1.3917                 1.4095                 1.4158
 IR Inten    --      0.2897                 1.4419                 1.0140

                     61                     62                     63
                      A                      A                      A
 Frequencies --   1499.6358              1506.0094              1511.7695
 Red. masses --      1.0404                 1.0863                 1.1377
 Frc consts  --      1.3785                 1.4516                 1.5320
 IR Inten    --      4.8900                 0.0734                 2.5557

                     64                     65                     66
                      A                      A                      A
 Frequencies --   1514.8774              2993.3179              2998.5976
 Red. masses --      1.0960                 1.0597                 1.0579
 Frc consts  --      1.4819                 5.5940                 5.6046
 IR Inten    --      2.1033                11.5335                 0.5544

                     67                     68                     69
                      A                      A                      A
 Frequencies --   3001.9705              3013.4193              3018.6995
 Red. masses --      1.0580                 1.0594                 1.0592
 Frc consts  --      5.6177                 5.6678                 5.6866
 IR Inten    --      7.9913                 7.5850                99.2433

                     70                     71                     72
                      A                      A                      A
 Frequencies --   3019.3216              3022.9993              3024.4318
 Red. masses --      1.0981                 1.0996                 1.0829
 Frc consts  --      5.8982                 5.9208                 5.8361
 IR Inten    --      0.2856                13.7076                47.7437

                     73                     74                     75
                      A                      A                      A
 Frequencies --   3027.5694              3032.9095              3048.2267
 Red. masses --      1.0357                 1.1023                 1.0730
 Frc consts  --      5.5935                 5.9739                 5.8740
 IR Inten    --     39.5671                 0.2522                35.5029

                     76                     77                     78
                      A                      A                      A
 Frequencies --   3051.3324              3052.2095              3058.2813
 Red. masses --      1.0568                 1.0895                 1.0620
 Frc consts  --      5.7973                 5.9802                 5.8522
 IR Inten    --     28.4656                 2.7139                20.8374

                     79                     80                     81
                      A                      A                      A
 Frequencies --   3065.6430              3092.8295              3093.6484
 Red. masses --      1.1028                 1.1060                 1.1020
 Frc consts  --      6.1067                 6.2335                 6.2141
 IR Inten    --    145.6974                21.3278                61.5317

                     82                     83                     84
                      A                      A                      A
 Frequencies --   3098.9884              3100.4600              3115.8367
 Red. masses --      1.1009                 1.1077                 1.1072
 Frc consts  --      6.2295                 6.2739                 6.3331
 IR Inten    --     39.7342                11.2112                82.7241

 - Thermochemistry -
 -------------------
 Temperature   298.150 Kelvin.  Pressure   1.00000 Atm.
 Atom     1 has atomic number  6 and mass  12.00000

 Molecular mass:   140.15650 amu.
 Principal axes and moments of inertia in atomic units:
                           1         2         3
     Eigenvalues --   461.072274896.608325005.43802
           X            1.00000  -0.00175  -0.00000
           Y            0.00175   1.00000  -0.00000
           Z            0.00000   0.00000   1.00000
 This molecule is an asymmetric top.
 Rotational symmetry number  1.
 Warning -- assumption of classical behavior for rotation
           may cause significant error
 Rotational temperatures (Kelvin)      0.18785     0.01769     0.01730
 Rotational constants (GHZ):           3.91423     0.36857     0.36056
 Zero-point vibrational energy     736399.0 (Joules/Mol)
                                  176.00359 (Kcal/Mol)
 Warning -- explicit consideration of  14 degrees of freedom as
           vibrations may cause significant error
 Vibrational temperatures:     51.61    72.47    93.88   149.41   177.58
          (Kelvin)            189.26   227.67   301.36   355.38   368.62
                              443.69   549.61   629.66   773.68   917.45
                             1048.98  1059.49  1077.48  1106.05  1151.27
                             1256.57  1280.95  1295.14  1342.73  1347.38
                             1369.75  1409.11  1441.28  1453.75  1480.06
                             1517.05  1539.81  1592.26  1636.00  1658.56
                             1661.18  1736.22  1768.09  1782.90  1805.47
                             1805.65  1817.98  1838.77  1842.12  1877.35
                             1891.72  1911.55  1917.20  1934.90  1961.34
                             1990.68  2014.26  2026.09  2032.71  2123.77
                             2127.91  2133.22  2136.31  2139.11  2150.62
                             2157.64  2166.81  2175.10  2179.57  4306.72
                             4314.31  4319.17  4335.64  4343.24  4344.13
                             4349.42  4351.48  4356.00  4363.68  4385.72
                             4390.19  4391.45  4400.18  4410.78  4449.89
                             4451.07  4458.75  4460.87  4482.99

 Zero-point correction=                           0.280480 (Hartree/Particle)
 Thermal correction to Energy=                    0.292710
 Thermal correction to Enthalpy=                  0.293654
 Thermal correction to Gibbs Free Energy=         0.240883
 Sum of electronic and zero-point Energies=           -392.847605
 Sum of electronic and thermal Energies=              -392.835375
 Sum of electronic and thermal Enthalpies=            -392.834431
 Sum of electronic and thermal Free Energies=         -392.887202

                     E (Thermal)             CV                S
                      KCal/Mol        Cal/Mol-Kelvin    Cal/Mol-Kelvin
 Total                  183.678             44.627            111.065
 Electronic               0.000              0.000              0.000
 Translational            0.889              2.981             40.724
 Rotational               0.889              2.981             30.803
 Vibrational            181.901             38.666             39.538
 Vibration     1          0.594              1.982              5.475
 Vibration     2          0.595              1.977              4.803
 Vibration     3          0.597              1.971              4.292
 Vibration     4          0.605              1.946              3.381
 Vibration     5          0.610              1.929              3.046
 Vibration     6          0.612              1.922              2.923
 Vibration     7          0.621              1.893              2.571
 Vibration     8          0.642              1.826              2.048
 Vibration     9          0.661              1.768              1.752
 Vibration    10          0.666              1.752              1.688
 Vibration    11          0.698              1.658              1.371
 Vibration    12          0.751              1.509              1.031
 Vibration    13          0.798              1.388              0.834
 Vibration    14          0.893              1.167              0.570

 Optimization completed.
    -- Stationary point found.
 Normal termination of Gaussian 16 at Mon May 29 00:49:56 2023.
