 Gaussian 16, Revision A.03,
 Gaussian 16:  ES64L-G16RevA.03 25-Dec-2016

 -----------------------------
 # opt freq b3lyp/6-31g(2df,p)
 -----------------------------

 -------------------
 Title Card Required
 -------------------
 Symbolic Z-matrix:
 Charge =  0 Multiplicity = 1

 SCF Done:  E(RB3LYP) =  -734.525460351     A.U. after   12 cycles
 SCF Done:  E(RB3LYP) =  -734.534272417     A.U. after   11 cycles
 SCF Done:  E(RB3LYP) =  -734.537209488     A.U. after   11 cycles
 SCF Done:  E(RB3LYP) =  -734.538467201     A.U. after   10 cycles
 SCF Done:  E(RB3LYP) =  -734.539021562     A.U. after   10 cycles
 SCF Done:  E(RB3LYP) =  -734.539269674     A.U. after    9 cycles
 SCF Done:  E(RB3LYP) =  -734.539409833     A.U. after   10 cycles
 SCF Done:  E(RB3LYP) =  -734.539454099     A.U. after    9 cycles
 SCF Done:  E(RB3LYP) =  -734.539469839     A.U. after    8 cycles
 SCF Done:  E(RB3LYP) =  -734.539507339     A.U. after    8 cycles
 SCF Done:  E(RB3LYP) =  -734.543769043     A.U. after   10 cycles
 SCF Done:  E(RB3LYP) =  -734.544495192     A.U. after   10 cycles
 SCF Done:  E(RB3LYP) =  -734.544530309     A.U. after    9 cycles
 SCF Done:  E(RB3LYP) =  -734.544589960     A.U. after    8 cycles
 SCF Done:  E(RB3LYP) =  -734.544611667     A.U. after    9 cycles
 SCF Done:  E(RB3LYP) =  -734.544619875     A.U. after    8 cycles
 SCF Done:  E(RB3LYP) =  -734.544624668     A.U. after    8 cycles
 SCF Done:  E(RB3LYP) =  -734.544625353     A.U. after    7 cycles
 SCF Done:  E(RB3LYP) =  -734.544625493     A.U. after    6 cycles
 Optimization completed.
    -- Stationary point found.
 Normal termination of Gaussian 16 at Wed May 24 03:16:01 2023.

 ----------------------------------------------------------------------
 #N Geom=AllCheck Guess=TCheck SCRF=Check GenChk RB3LYP/6-31G(2df,p) Fr
 eq
 ----------------------------------------------------------------------

 Structure from the checkpoint file:  "CCCCqCOCCCCqOrCOrOC.chk"
 -------------------
 Title Card Required
 -------------------
 Charge =  0 Multiplicity = 1

                         Standard orientation:
 ---------------------------------------------------------------------
 Center     Atomic      Atomic             Coordinates (Angstroms)
 Number     Number       Type             X           Y           Z
 ---------------------------------------------------------------------
      1          6           0       -3.182495    3.489221    0.095369
      2          6           0       -2.691508    2.081853   -0.255649
      3          6           0       -3.686427    0.997292    0.174061
      4          6           0       -3.294453   -0.438491   -0.183466
      5          6           0       -2.053086   -0.958961    0.555684
      6          8           0       -0.888261   -0.443623   -0.051992
      7          6           0        0.305399   -0.887769    0.559051
      8          6           0        1.490253   -0.281079   -0.178900
      9          6           0        2.834023   -0.734198    0.400616
     10          6           0        4.027867   -0.091198   -0.299096
     11          8           0        3.951301    1.313186   -0.129831
     12          6           0        5.367378   -0.592389    0.245130
     13          8           0        6.445660    0.164076   -0.303369
     14          8           0       -4.410681   -1.257645    0.155647
     15          6           0       -4.555477   -2.411711   -0.637954
     16          1           0       -2.465677    4.252036   -0.224485
     17          1           0       -3.326624    3.601145    1.176063
     18          1           0       -4.141501    3.708954   -0.387637
     19          1           0       -1.716985    1.898791    0.205546
     20          1           0       -2.524630    2.010996   -1.338404
     21          1           0       -4.661372    1.188119   -0.290941
     22          1           0       -3.852163    1.046883    1.258885
     23          1           0       -3.092405   -0.505723   -1.264733
     24          1           0       -2.042737   -2.060705    0.520155
     25          1           0       -2.104412   -0.670458    1.619065
     26          1           0        0.355236   -1.991139    0.531752
     27          1           0        0.323333   -0.594494    1.623066
     28          1           0        1.423516    0.809795   -0.133665
     29          1           0        1.423808   -0.560652   -1.237522
     30          1           0        2.927132   -1.826116    0.326068
     31          1           0        2.885352   -0.479049    1.467149
     32          1           0        3.983726   -0.344185   -1.377469
     33          1           0        4.844338    1.642822   -0.297429
     34          1           0        5.490927   -1.668441    0.057780
     35          1           0        5.410691   -0.423340    1.326137
     36          1           0        6.542876   -0.087354   -1.228302
     37          1           0       -5.445833   -2.937519   -0.283130
     38          1           0       -3.696212   -3.095116   -0.559824
     39          1           0       -4.693381   -2.158628   -1.700831
 ---------------------------------------------------------------------

 SCF Done:  E(RB3LYP) =  -734.544625493     A.U. after    1 cycles

 The electronic state is 1-A.
 Alpha  occ. eigenvalues --  -19.15420 -19.13752 -19.13340 -19.12782 -10.23300
 Alpha  occ. eigenvalues --  -10.23120 -10.22440 -10.22432 -10.22067 -10.22016
 Alpha  occ. eigenvalues --  -10.18455 -10.17608 -10.16815 -10.16730 -10.16363
 Alpha  occ. eigenvalues --   -1.03883  -1.03385  -1.02271  -1.00622  -0.80084
 Alpha  occ. eigenvalues --   -0.78764  -0.75019  -0.72995  -0.68857  -0.66454
 Alpha  occ. eigenvalues --   -0.65122  -0.60213  -0.58950  -0.58171  -0.56363
 Alpha  occ. eigenvalues --   -0.52525  -0.50238  -0.49710  -0.48921  -0.47412
 Alpha  occ. eigenvalues --   -0.46678  -0.45789  -0.45343  -0.44142  -0.43201
 Alpha  occ. eigenvalues --   -0.42126  -0.40972  -0.39944  -0.39408  -0.38419
 Alpha  occ. eigenvalues --   -0.37323  -0.36629  -0.35633  -0.34480  -0.34379
 Alpha  occ. eigenvalues --   -0.33762  -0.32924  -0.32708  -0.32230  -0.31868
 Alpha  occ. eigenvalues --   -0.30761  -0.30200  -0.28970  -0.25980  -0.25203
 Alpha  occ. eigenvalues --   -0.24810
 Alpha virt. eigenvalues --    0.05956   0.08397   0.09249   0.09641   0.11018
 Alpha virt. eigenvalues --    0.11609   0.11854   0.12614   0.13213   0.14068
 Alpha virt. eigenvalues --    0.14258   0.15023   0.15373   0.15705   0.16144

 Mulliken charges:
               1
     1  C   -0.380041
     2  C   -0.168605
     3  C   -0.178888
     4  C    0.081938
     5  C   -0.064831
     6  O   -0.245012
     7  C   -0.052796
     8  C   -0.203339
     9  C   -0.192425
    10  C    0.114946
    11  O   -0.439674
    12  C   -0.095444
    13  O   -0.422993
    14  O   -0.246744
    15  C   -0.237970
    16  H    0.109364
    17  H    0.111050
    18  H    0.109989
    19  H    0.113115
    20  H    0.093078
    21  H    0.095779
    22  H    0.095969
    23  H    0.070501
    24  H    0.085992
    25  H    0.088601
    26  H    0.079324
    27  H    0.086632
    28  H    0.132409
    29  H    0.099795
    30  H    0.090123
    31  H    0.103770
    32  H    0.048330
    33  H    0.285574
    34  H    0.093234
    35  H    0.118945
    36  H    0.288070
    37  H    0.125192
    38  H    0.102130
    39  H    0.104910
 Sum of Mulliken charges =  -0.00000

 Dipole moment (field-independent basis, Debye):
    X=              1.6673    Y=             -2.4263    Z=             -1.2007  Tot=              3.1793
 Quadrupole moment (field-independent basis, Debye-Ang):
   XX=            -94.2738   YY=            -92.1108   ZZ=            -90.7228
   XY=             -4.3865   XZ=             -4.1938   YZ=              1.1201

  Exact polarizability: 164.793   4.926 140.445  -0.158   0.678 116.400
 Approx polarizability: 190.240   4.219 188.293  -2.127   1.832 183.212

                      1                      2                      3
                      A                      A                      A
 Frequencies --     18.5384                22.9475                42.2668
 Red. masses --      3.3389                 3.9569                 3.9857
 Frc consts  --      0.0007                 0.0012                 0.0042
 IR Inten    --      1.1746                 1.1538                 0.0788

                      4                      5                      6
                      A                      A                      A
 Frequencies --     53.7211                67.6394                74.6703
 Red. masses --      2.3200                 3.4464                 2.0077
 Frc consts  --      0.0039                 0.0093                 0.0066
 IR Inten    --      0.9324                 0.7544                 0.4853

                      7                      8                      9
                      A                      A                      A
 Frequencies --     99.6081               105.7350               116.2249
 Red. masses --      2.0284                 3.3526                 2.4387
 Frc consts  --      0.0119                 0.0221                 0.0194
 IR Inten    --      2.6865                 1.4568                 0.4064

                     10                     11                     12
                      A                      A                      A
 Frequencies --    130.6841               145.2334               159.0228
 Red. masses --      2.0910                 3.1309                 3.2417
 Frc consts  --      0.0210                 0.0389                 0.0483
 IR Inten    --      0.8558                 0.0468                 2.7723

                     13                     14                     15
                      A                      A                      A
 Frequencies --    169.2587               186.0106               212.2204
 Red. masses --      2.0847                 2.4937                 2.6234
 Frc consts  --      0.0352                 0.0508                 0.0696
 IR Inten    --      3.2956                 0.4935                 0.7874

                     16                     17                     18
                      A                      A                      A
 Frequencies --    244.3757               256.7461               305.3544
 Red. masses --      1.2281                 2.7631                 3.2149
 Frc consts  --      0.0432                 0.1073                 0.1766
 IR Inten    --      0.9643                 4.7170                 1.8995

                     19                     20                     21
                      A                      A                      A
 Frequencies --    326.0403               336.4106               347.4739
 Red. masses --      2.7007                 1.6347                 2.0240
 Frc consts  --      0.1691                 0.1090                 0.1440
 IR Inten    --      4.3332                31.7175                38.3898

                     22                     23                     24
                      A                      A                      A
 Frequencies --    372.9303               426.5377               458.1462
 Red. masses --      3.5829                 3.5412                 3.5045
 Frc consts  --      0.2936                 0.3796                 0.4334
 IR Inten    --      3.7793                22.2851                 7.7309

                     25                     26                     27
                      A                      A                      A
 Frequencies --    488.5435               523.2258               530.3972
 Red. masses --      2.0034                 1.3240                 2.0051
 Frc consts  --      0.2817                 0.2136                 0.3323
 IR Inten    --      3.0377                73.8504                18.3246

                     28                     29                     30
                      A                      A                      A
 Frequencies --    547.9028               583.8509               745.8590
 Red. masses --      3.3563                 2.7147                 1.1038
 Frc consts  --      0.5936                 0.5452                 0.3618
 IR Inten    --     14.6310                35.9665                 2.1795

                     31                     32                     33
                      A                      A                      A
 Frequencies --    760.0519               853.5410               862.8825
 Red. masses --      1.1408                 1.5187                 1.2899
 Frc consts  --      0.3883                 0.6519                 0.5659
 IR Inten    --      0.4534                 5.1315                 0.8422

                     34                     35                     36
                      A                      A                      A
 Frequencies --    888.3547               890.1169               931.6570
 Red. masses --      2.0241                 1.9778                 2.1371
 Frc consts  --      0.9411                 0.9233                 1.0929
 IR Inten    --      6.4625                10.8974                 2.7312

                     37                     38                     39
                      A                      A                      A
 Frequencies --    971.9936               985.4857               993.4905
 Red. masses --      3.2645                 3.0521                 1.6846
 Frc consts  --      1.8171                 1.7464                 0.9797
 IR Inten    --     26.8481                35.5245                20.1038

                     40                     41                     42
                      A                      A                      A
 Frequencies --   1007.0228              1032.5218              1048.7879
 Red. masses --      1.4170                 3.4486                 3.1367
 Frc consts  --      0.8467                 2.1662                 2.0328
 IR Inten    --      4.5816                14.1481                 3.1420

                     43                     44                     45
                      A                      A                      A
 Frequencies --   1060.4920              1075.3292              1081.5574
 Red. masses --      2.4068                 3.5480                 2.9857
 Frc consts  --      1.5948                 2.4172                 2.0578
 IR Inten    --      1.9783                76.4247                22.9478

                     46                     47                     48
                      A                      A                      A
 Frequencies --   1105.0419              1118.7477              1131.6891
 Red. masses --      1.8246                 2.0382                 3.3132
 Frc consts  --      1.3127                 1.5030                 2.5001
 IR Inten    --     11.8524                 4.2352               112.2749

                     49                     50                     51
                      A                      A                      A
 Frequencies --   1147.9659              1158.4574              1162.2382
 Red. masses --      3.0543                 5.9109                 3.0997
 Frc consts  --      2.3715                 4.6737                 2.4670
 IR Inten    --     44.5526               236.7085                32.6317

                     52                     53                     54
                      A                      A                      A
 Frequencies --   1176.8793              1185.7171              1202.5125
 Red. masses --      1.6496                 1.3946                 1.5721
 Frc consts  --      1.3461                 1.1552                 1.3394
 IR Inten    --     11.8403                24.5606                 2.4294

                     55                     56                     57
                      A                      A                      A
 Frequencies --   1224.5577              1230.6755              1242.6377
 Red. masses --      1.5759                 1.3141                 1.3286
 Frc consts  --      1.3924                 1.1726                 1.2088
 IR Inten    --     34.5674                 8.3469                 5.5623

                     58                     59                     60
                      A                      A                      A
 Frequencies --   1269.4921              1285.7931              1294.0334
 Red. masses --      1.2823                 1.2199                 1.1543
 Frc consts  --      1.2176                 1.1883                 1.1388
 IR Inten    --      6.8417                 5.2560                28.1138

                     61                     62                     63
                      A                      A                      A
 Frequencies --   1299.2023              1314.3488              1319.4654
 Red. masses --      1.3162                 1.1012                 1.1082
 Frc consts  --      1.3089                 1.1208                 1.1367
 IR Inten    --      3.0197                 8.9055                 1.2086

                     64                     65                     66
                      A                      A                      A
 Frequencies --   1326.1230              1342.0956              1352.4630
 Red. masses --      1.1133                 1.1885                 1.2743
 Frc consts  --      1.1536                 1.2613                 1.3733
 IR Inten    --      1.7863                17.5160                39.0733

                     67                     68                     69
                      A                      A                      A
 Frequencies --   1380.2548              1383.1681              1389.8730
 Red. masses --      1.3569                 1.3439                 1.3088
 Frc consts  --      1.5231                 1.5148                 1.4896
 IR Inten    --     11.1666                 1.5003                 8.2036

                     70                     71                     72
                      A                      A                      A
 Frequencies --   1397.6721              1408.3277              1411.8405
 Red. masses --      1.5392                 1.3762                 1.2290
 Frc consts  --      1.7715                 1.6081                 1.4433
 IR Inten    --     18.4262                25.2608                18.9032

                     73                     74                     75
                      A                      A                      A
 Frequencies --   1413.2760              1449.1181              1453.2559
 Red. masses --      1.2842                 1.6225                 1.5401
 Frc consts  --      1.5113                 2.0075                 1.9164
 IR Inten    --     15.1918                17.7683                27.9088

                     76                     77                     78
                      A                      A                      A
 Frequencies --   1473.6377              1479.7971              1483.3717
 Red. masses --      1.0883                 1.1217                 1.0820
 Frc consts  --      1.3925                 1.4472                 1.4027
 IR Inten    --      1.0552                 0.5893                 1.4910

                     79                     80                     81
                      A                      A                      A
 Frequencies --   1487.7662              1492.7384              1494.5541
 Red. masses --      1.0665                 1.0870                 1.0698
 Frc consts  --      1.3908                 1.4271                 1.4079
 IR Inten    --      0.4158                 1.3868                 3.2065

                     82                     83                     84
                      A                      A                      A
 Frequencies --   1499.6541              1500.0208              1509.1263
 Red. masses --      1.0455                 1.0820                 1.0638
 Frc consts  --      1.3853                 1.4345                 1.4275
 IR Inten    --      2.4835                 5.0869                 2.6376

                     85                     86                     87
                      A                      A                      A
 Frequencies --   1511.8253              1513.9343              1532.9949
 Red. masses --      1.0847                 1.0882                 1.0922
 Frc consts  --      1.4607                 1.4695                 1.5123
 IR Inten    --     14.3123                 6.8085                 1.1726

                     88                     89                     90
                      A                      A                      A
 Frequencies --   2898.4597              2938.8019              2959.0944
 Red. masses --      1.0805                 1.0557                 1.0564
 Frc consts  --      5.3484                 5.3720                 5.4502
 IR Inten    --     62.9723                35.8015                40.0084

                     91                     92                     93
                      A                      A                      A
 Frequencies --   2967.8232              2970.8421              2976.3530
 Red. masses --      1.1005                 1.0536                 1.0698
 Frc consts  --      5.7111                 5.4787                 5.5835
 IR Inten    --     53.8827                45.2088                20.6230

                     94                     95                     96
                      A                      A                      A
 Frequencies --   2992.3765              3004.9345              3014.7466
 Red. masses --      1.0996                 1.0637                 1.0597
 Frc consts  --      5.8012                 5.6591                 5.6748
 IR Inten    --     76.9610                19.4333                43.1534

                     97                     98                     99
                      A                      A                      A
 Frequencies --   3015.4566              3018.3724              3025.4632
 Red. masses --      1.0616                 1.1022                 1.0436
 Frc consts  --      5.6873                 5.9164                 5.6284
 IR Inten    --     12.1040                62.0169                15.4823

                    100                    101                    102
                      A                      A                      A
 Frequencies --   3029.0892              3037.5716              3054.2976
 Red. masses --      1.0616                 1.0691                 1.0955
 Frc consts  --      5.7392                 5.8118                 6.0212
 IR Inten    --     61.0873                22.4014                21.7695

                    103                    104                    105
                      A                      A                      A
 Frequencies --   3055.8045              3079.3122              3084.7417
 Red. masses --      1.0973                 1.0965                 1.0992
 Frc consts  --      6.0369                 6.1261                 6.1628
 IR Inten    --     26.7249                 2.1397                30.4176

                    106                    107                    108
                      A                      A                      A
 Frequencies --   3098.4230              3101.0165              3104.4648
 Red. masses --      1.1014                 1.0996                 1.0982
 Frc consts  --      6.2300                 6.2300                 6.2359
 IR Inten    --     40.1378                28.7906                59.9386

                    109                    110                    111
                      A                      A                      A
 Frequencies --   3107.5860              3756.4185              3806.2084
 Red. masses --      1.0960                 1.0650                 1.0661
 Frc consts  --      6.2359                 8.8544                 9.1001
 IR Inten    --     34.7628                58.5569                21.4444

 - Thermochemistry -
 -------------------
 Temperature   298.150 Kelvin.  Pressure   1.00000 Atm.
 Atom     1 has atomic number  6 and mass  12.00000

 Molecular mass:   220.16746 amu.
 Principal axes and moments of inertia in atomic units:
                           1         2         3
     Eigenvalues --  1835.88382********************
           X            0.99996  -0.00916   0.00172
           Y            0.00915   0.99995   0.00442
           Z           -0.00176  -0.00440   0.99999
 This molecule is an asymmetric top.
 Rotational symmetry number  1.
 Warning -- assumption of classical behavior for rotation
           may cause significant error
 Rotational temperatures (Kelvin)      0.04718     0.00788     0.00693
 Rotational constants (GHZ):           0.98304     0.16418     0.14432
 Zero-point vibrational energy     916308.8 (Joules/Mol)
                                  219.00305 (Kcal/Mol)
 Warning -- explicit consideration of  29 degrees of freedom as
           vibrations may cause significant error
 Vibrational temperatures:     26.67    33.02    60.81    77.29    97.32
          (Kelvin)            107.43   143.31   152.13   167.22   188.03
                              208.96   228.80   243.53   267.63   305.34
                              351.60   369.40   439.34   469.10   484.02
                              499.94   536.56   613.69   659.17   702.91
                              752.81   763.12   788.31   840.03  1073.12
                             1093.55  1228.06  1241.50  1278.14  1280.68
                             1340.45  1398.48  1417.89  1429.41  1448.88
                             1485.57  1508.97  1525.81  1547.16  1556.12
                             1589.91  1609.63  1628.25  1651.67  1666.76
                             1672.20  1693.27  1705.98  1730.15  1761.87
                             1770.67  1787.88  1826.52  1849.97  1861.83
                             1869.26  1891.05  1898.42  1908.00  1930.98
                             1945.89  1985.88  1990.07  1999.72  2010.94
                             2026.27  2031.32  2033.39  2084.96  2090.91
                             2120.24  2129.10  2134.24  2140.56  2147.72
                             2150.33  2157.67  2158.20  2171.30  2175.18
                             2178.21  2205.64  4170.24  4228.28  4257.48
                             4270.04  4274.38  4282.31  4305.36  4323.43
                             4337.55  4338.57  4342.76  4352.97  4358.18
                             4370.39  4394.45  4396.62  4430.44  4438.26
                             4457.94  4461.67  4466.63  4471.12  5404.65
                             5476.29

 Zero-point correction=                           0.349004 (Hartree/Particle)
 Thermal correction to Energy=                    0.368363
 Thermal correction to Enthalpy=                  0.369308
 Thermal correction to Gibbs Free Energy=         0.298345
 Sum of electronic and zero-point Energies=           -734.195622
 Sum of electronic and thermal Energies=              -734.176262
 Sum of electronic and thermal Enthalpies=            -734.175318
 Sum of electronic and thermal Free Energies=         -734.246280

                     E (Thermal)             CV                S
                      KCal/Mol        Cal/Mol-Kelvin    Cal/Mol-Kelvin
 Total                  231.151             68.106            149.353
 Electronic               0.000              0.000              0.000
 Translational            0.889              2.981             42.071
 Rotational               0.889              2.981             33.889
 Vibrational            229.374             62.144             73.393
 Vibration     1          0.593              1.986              6.785
 Vibration     2          0.593              1.985              6.361
 Vibration     3          0.595              1.980              5.150
 Vibration     4          0.596              1.976              4.675
 Vibration     5          0.598              1.970              4.221
 Vibration     6          0.599              1.966              4.026
 Vibration     7          0.604              1.949              3.462
 Vibration     8          0.605              1.945              3.346
 Vibration     9          0.608              1.936              3.162
 Vibration    10          0.612              1.923              2.936
 Vibration    11          0.617              1.908              2.734
 Vibration    12          0.621              1.892              2.561
 Vibration    13          0.625              1.880              2.444
 Vibration    14          0.632              1.859              2.267
 Vibration    15          0.643              1.822              2.024
 Vibration    16          0.660              1.772              1.771
 Vibration    17          0.666              1.751              1.684
 Vibration    18          0.696              1.664              1.387
 Vibration    19          0.710              1.623              1.280
 Vibration    20          0.717              1.603              1.229
 Vibration    21          0.725              1.580              1.178
 Vibration    22          0.744              1.528              1.068
 Vibration    23          0.788              1.412              0.870
 Vibration    24          0.816              1.343              0.772
 Vibration    25          0.844              1.275              0.687
 Vibration    26          0.878              1.199              0.603
 Vibration    27          0.885              1.183              0.586
 Vibration    28          0.903              1.144              0.549
 Vibration    29          0.941              1.066              0.478

 Optimization completed.
    -- Stationary point found.
 Normal termination of Gaussian 16 at Wed May 24 05:45:09 2023.
