 Gaussian 16, Revision A.03,
 Gaussian 16:  ES64L-G16RevA.03 25-Dec-2016

 -----------------------------
 # opt freq b3lyp/6-31g(2df,p)
 -----------------------------

 -------------------
 Title Card Required
 -------------------
 Symbolic Z-matrix:
 Charge =  0 Multiplicity = 1

 SCF Done:  E(RB3LYP) =  -623.331841033     A.U. after   12 cycles
 SCF Done:  E(RB3LYP) =  -623.342001666     A.U. after   10 cycles
 SCF Done:  E(RB3LYP) =  -623.346363565     A.U. after   10 cycles
 SCF Done:  E(RB3LYP) =  -623.348360123     A.U. after   10 cycles
 SCF Done:  E(RB3LYP) =  -623.348930306     A.U. after   10 cycles
 SCF Done:  E(RB3LYP) =  -623.349042464     A.U. after    9 cycles
 SCF Done:  E(RB3LYP) =  -623.349102113     A.U. after    9 cycles
 SCF Done:  E(RB3LYP) =  -623.349282566     A.U. after   10 cycles
 SCF Done:  E(RB3LYP) =  -623.347281751     A.U. after   13 cycles
 SCF Done:  E(RB3LYP) =  -623.349674744     A.U. after   10 cycles
 SCF Done:  E(RB3LYP) =  -623.350381762     A.U. after   12 cycles
 SCF Done:  E(RB3LYP) =  -623.350977008     A.U. after   12 cycles
 SCF Done:  E(RB3LYP) =  -623.351264369     A.U. after   10 cycles
 SCF Done:  E(RB3LYP) =  -623.351301006     A.U. after    8 cycles
 SCF Done:  E(RB3LYP) =  -623.351307668     A.U. after    9 cycles
 SCF Done:  E(RB3LYP) =  -623.351306077     A.U. after    9 cycles
 SCF Done:  E(RB3LYP) =  -623.351308308     A.U. after    8 cycles
 SCF Done:  E(RB3LYP) =  -623.351308797     A.U. after    7 cycles
 SCF Done:  E(RB3LYP) =  -623.351308834     A.U. after    6 cycles
 Optimization completed.
    -- Stationary point found.
 Normal termination of Gaussian 16 at Tue May 23 20:25:05 2023.

 ----------------------------------------------------------------------
 #N Geom=AllCheck Guess=TCheck SCRF=Check GenChk RB3LYP/6-31G(2df,p) Fr
 eq
 ----------------------------------------------------------------------

 Structure from the checkpoint file:  "CCCCqCCCrCCCCCOO.chk"
 -------------------
 Title Card Required
 -------------------
 Charge =  0 Multiplicity = 1

                         Standard orientation:
 ---------------------------------------------------------------------
 Center     Atomic      Atomic             Coordinates (Angstroms)
 Number     Number       Type             X           Y           Z
 ---------------------------------------------------------------------
      1          6           0       -5.062762   -2.491431   -0.058310
      2          6           0       -3.985387   -1.557011   -0.615540
      3          6           0       -2.938485   -1.157401    0.433850
      4          6           0       -1.830082   -0.200815   -0.080772
      5          6           0       -2.105968    1.272597    0.281124
      6          6           0       -3.416340    1.863099   -0.254499
      7          6           0       -3.570902    3.349727    0.081808
      8          6           0       -0.449320   -0.658288    0.436987
      9          6           0        0.762316    0.089107   -0.133602
     10          6           0        2.098312   -0.525677    0.301099
     11          6           0        3.313295    0.222937   -0.258851
     12          6           0        4.631106   -0.403179    0.183865
     13          8           0        5.668539    0.376172   -0.393540
     14          8           0        6.920940   -0.156400    0.092008
     15          1           0       -5.785239   -2.775662   -0.829970
     16          1           0       -5.617845   -2.014214    0.757255
     17          1           0       -4.621395   -3.412069    0.340083
     18          1           0       -4.458910   -0.661536   -1.034140
     19          1           0       -3.474985   -2.047012   -1.455531
     20          1           0       -2.475218   -2.077322    0.813779
     21          1           0       -3.442705   -0.705949    1.299455
     22          1           0       -1.804107   -0.275762   -1.178924
     23          1           0       -1.281738    1.894323   -0.089140
     24          1           0       -2.089640    1.372689    1.376898
     25          1           0       -4.272394    1.312996    0.153477
     26          1           0       -3.457268    1.729327   -1.343746
     27          1           0       -3.562383    3.513040    1.165399
     28          1           0       -4.511121    3.752851   -0.307526
     29          1           0       -2.752671    3.940042   -0.345764
     30          1           0       -0.336403   -1.725752    0.203686
     31          1           0       -0.436691   -0.589540    1.534722
     32          1           0        0.742780    1.141499    0.173563
     33          1           0        0.705120    0.090357   -1.231369
     34          1           0        2.135808   -1.576419   -0.017572
     35          1           0        2.151459   -0.539402    1.398314
     36          1           0        3.293808    1.269644    0.067103
     37          1           0        3.274160    0.234351   -1.354981
     38          1           0        4.707187   -1.447206   -0.156216
     39          1           0        4.725831   -0.394819    1.277907
     40          1           0        7.254032   -0.588626   -0.707457
 ---------------------------------------------------------------------

 SCF Done:  E(RB3LYP) =  -623.351308834     A.U. after    1 cycles

 The electronic state is 1-A.
 Alpha  occ. eigenvalues --  -19.18513 -19.18343 -10.22545 -10.18348 -10.18308
 Alpha  occ. eigenvalues --  -10.18025 -10.17781 -10.17607 -10.17546 -10.17488
 Alpha  occ. eigenvalues --  -10.17249 -10.17188 -10.17027 -10.16997  -1.10833
 Alpha  occ. eigenvalues --   -0.90521  -0.82074  -0.79455  -0.77187  -0.75412
 Alpha  occ. eigenvalues --   -0.71618  -0.66959  -0.66058  -0.61241  -0.58693
 Alpha  occ. eigenvalues --   -0.58451  -0.57392  -0.55337  -0.52103  -0.48698
 Alpha  occ. eigenvalues --   -0.47360  -0.46299  -0.45184  -0.44663  -0.43271
 Alpha  occ. eigenvalues --   -0.42407  -0.41996  -0.41267  -0.39460  -0.39032
 Alpha  occ. eigenvalues --   -0.38151  -0.37784  -0.37027  -0.36232  -0.35015
 Alpha  occ. eigenvalues --   -0.34757  -0.34360  -0.33313  -0.33189  -0.32681
 Alpha  occ. eigenvalues --   -0.32264  -0.31923  -0.31063  -0.29871  -0.29445
 Alpha  occ. eigenvalues --   -0.28676  -0.25686
 Alpha virt. eigenvalues --    0.03967   0.08469   0.08672   0.09006   0.10129
 Alpha virt. eigenvalues --    0.10546   0.10694   0.11721   0.12972   0.13237
 Alpha virt. eigenvalues --    0.14022   0.14851   0.15079   0.15963   0.16421

 Mulliken charges:
               1
     1  C   -0.380126
     2  C   -0.166173
     3  C   -0.182782
     4  C    0.010948
     5  C   -0.161487
     6  C   -0.172624
     7  C   -0.382243
     8  C   -0.200245
     9  C   -0.193533
    10  C   -0.183247
    11  C   -0.212128
    12  C   -0.008449
    13  O   -0.192444
    14  O   -0.324266
    15  H    0.109656
    16  H    0.112656
    17  H    0.112466
    18  H    0.099632
    19  H    0.092011
    20  H    0.085701
    21  H    0.088543
    22  H    0.062111
    23  H    0.092111
    24  H    0.086718
    25  H    0.099821
    26  H    0.093075
    27  H    0.112880
    28  H    0.109748
    29  H    0.113005
    30  H    0.087656
    31  H    0.090838
    32  H    0.100839
    33  H    0.092304
    34  H    0.094961
    35  H    0.098018
    36  H    0.111915
    37  H    0.105796
    38  H    0.084159
    39  H    0.103470
    40  H    0.308710
 Sum of Mulliken charges =  -0.00000

 Dipole moment (field-independent basis, Debye):
    X=             -1.0291    Y=             -1.3131    Z=             -0.7508  Tot=              1.8294
 Quadrupole moment (field-independent basis, Debye-Ang):
   XX=            -98.5437   YY=            -91.4507   ZZ=            -89.7674
   XY=             -9.3713   XZ=             -6.1885   YZ=              1.6066

  Exact polarizability: 181.555  -0.723 138.307   0.592   0.008 118.176
 Approx polarizability: 204.912  -3.229 190.166   0.778   0.062 189.720

                      1                      2                      3
                      A                      A                      A
 Frequencies --     25.4279                36.8270                41.6119
 Red. masses --      3.9340                 2.1099                 4.3268
 Frc consts  --      0.0015                 0.0017                 0.0044
 IR Inten    --      0.2577                 3.9290                 0.2217

                      4                      5                      6
                      A                      A                      A
 Frequencies --     56.3484                70.1796                87.0051
 Red. masses --      2.7775                 1.9786                 2.9173
 Frc consts  --      0.0052                 0.0057                 0.0130
 IR Inten    --      0.9164                 0.2112                 0.6549

                      7                      8                      9
                      A                      A                      A
 Frequencies --    101.6627               103.8430               108.3507
 Red. masses --      3.0479                 2.1386                 1.5823
 Frc consts  --      0.0186                 0.0136                 0.0109
 IR Inten    --      0.2290                 5.0069                 0.0818

                     10                     11                     12
                      A                      A                      A
 Frequencies --    131.3853               151.8884               154.1102
 Red. masses --      2.6506                 2.6582                 2.3157
 Frc consts  --      0.0270                 0.0361                 0.0324
 IR Inten    --      1.1510                 1.6695                 1.5908

                     13                     14                     15
                      A                      A                      A
 Frequencies --    182.7895               199.2103               218.7542
 Red. masses --      2.4161                 4.4518                 1.1777
 Frc consts  --      0.0476                 0.1041                 0.0332
 IR Inten    --      0.1556                 0.1295                89.4215

                     16                     17                     18
                      A                      A                      A
 Frequencies --    226.1437               244.3964               249.9466
 Red. masses --      2.4587                 1.1292                 1.1971
 Frc consts  --      0.0741                 0.0397                 0.0441
 IR Inten    --      8.9710                 0.0111                 0.0462

                     19                     20                     21
                      A                      A                      A
 Frequencies --    287.7099               309.3034               361.8266
 Red. masses --      3.1546                 2.7744                 3.4215
 Frc consts  --      0.1539                 0.1564                 0.2639
 IR Inten    --      0.4209                 0.0698                 1.0343

                     22                     23                     24
                      A                      A                      A
 Frequencies --    407.0113               457.2191               468.8422
 Red. masses --      3.9428                 3.0219                 2.2699
 Frc consts  --      0.3848                 0.3722                 0.2940
 IR Inten    --      1.8423                 2.3819                 1.0559

                     25                     26                     27
                      A                      A                      A
 Frequencies --    531.1250               545.1870               735.6479
 Red. masses --      3.2050                 2.9665                 1.1055
 Frc consts  --      0.5327                 0.5195                 0.3525
 IR Inten    --      3.7713                 0.9678                 3.1383

                     28                     29                     30
                      A                      A                      A
 Frequencies --    736.1625               750.4524               764.7013
 Red. masses --      1.0853                 1.1150                 1.1638
 Frc consts  --      0.3465                 0.3700                 0.4010
 IR Inten    --      3.1845                 2.0266                 0.0266

                     31                     32                     33
                      A                      A                      A
 Frequencies --    827.5624               852.4242               863.3955
 Red. masses --      1.4318                 1.2905                 1.3625
 Frc consts  --      0.5777                 0.5525                 0.5984
 IR Inten    --      0.4447                 0.0454                 0.3671

                     34                     35                     36
                      A                      A                      A
 Frequencies --    897.2440               903.4299               931.2154
 Red. masses --      1.6843                 1.6676                 2.5119
 Frc consts  --      0.7989                 0.8019                 1.2834
 IR Inten    --      0.5264                 2.0706                 8.1116

                     37                     38                     39
                      A                      A                      A
 Frequencies --    941.2978               979.5769              1003.9168
 Red. masses --      4.7816                 1.4329                 2.9573
 Frc consts  --      2.4962                 0.8101                 1.7560
 IR Inten    --      8.9914                 0.1308                 0.3496

                     40                     41                     42
                      A                      A                      A
 Frequencies --   1012.8762              1035.7677              1043.3669
 Red. masses --      4.2658                 2.8944                 3.1348
 Frc consts  --      2.5785                 1.8295                 2.0106
 IR Inten    --      1.8784                 3.2131                11.3962

                     43                     44                     45
                      A                      A                      A
 Frequencies --   1054.1097              1055.3005              1058.6171
 Red. masses --      1.5029                 2.2274                 2.4143
 Frc consts  --      0.9839                 1.4615                 1.5941
 IR Inten    --      1.1102                 1.1413                 1.5486

                     46                     47                     48
                      A                      A                      A
 Frequencies --   1068.7419              1081.2742              1084.7577
 Red. masses --      2.1737                 1.8157                 1.7308
 Frc consts  --      1.4628                 1.2508                 1.2000
 IR Inten    --      0.4568                 1.4868                 1.8229

                     49                     50                     51
                      A                      A                      A
 Frequencies --   1107.6729              1149.2597              1167.6009
 Red. masses --      2.8743                 2.8782                 2.1901
 Frc consts  --      2.0778                 2.2398                 1.7592
 IR Inten    --      6.3508                 1.4254                 2.7996

                     52                     53                     54
                      A                      A                      A
 Frequencies --   1193.1723              1206.0271              1245.0657
 Red. masses --      1.9273                 1.4254                 1.3049
 Frc consts  --      1.6166                 1.2216                 1.1918
 IR Inten    --      0.8086                 3.1375                 1.4545

                     55                     56                     57
                      A                      A                      A
 Frequencies --   1251.4819              1260.3111              1281.5179
 Red. masses --      1.3882                 1.3144                 1.2545
 Frc consts  --      1.2810                 1.2301                 1.2139
 IR Inten    --      2.2436                 1.3767                 2.2810

                     58                     59                     60
                      A                      A                      A
 Frequencies --   1290.0742              1301.1261              1308.8695
 Red. masses --      1.2492                 1.2472                 1.1849
 Frc consts  --      1.2249                 1.2440                 1.1960
 IR Inten    --      0.3908                 1.9419                 0.3947

                     61                     62                     63
                      A                      A                      A
 Frequencies --   1323.0074              1326.6733              1330.3291
 Red. masses --      1.2503                 1.1142                 1.1290
 Frc consts  --      1.2894                 1.1554                 1.1772
 IR Inten    --      1.7219                 1.1536                 0.6792

                     64                     65                     66
                      A                      A                      A
 Frequencies --   1337.2419              1339.2396              1358.9329
 Red. masses --      1.1219                 1.1465                 1.3057
 Frc consts  --      1.1820                 1.2116                 1.4207
 IR Inten    --      0.4981                 1.2340                 0.6293

                     67                     68                     69
                      A                      A                      A
 Frequencies --   1374.7730              1383.0831              1387.2486
 Red. masses --      1.3274                 1.2220                 1.3612
 Frc consts  --      1.4782                 1.3773                 1.5435
 IR Inten    --      0.5478                41.5893                13.9127

                     70                     71                     72
                      A                      A                      A
 Frequencies --   1389.3662              1402.7072              1404.2912
 Red. masses --      1.4524                 1.5412                 1.4852
 Frc consts  --      1.6519                 1.7867                 1.7257
 IR Inten    --      1.4029                 3.0544                 3.7330

                     73                     74                     75
                      A                      A                      A
 Frequencies --   1410.1054              1411.6872              1413.6376
 Red. masses --      1.4680                 1.2320                 1.2549
 Frc consts  --      1.7198                 1.4466                 1.4776
 IR Inten    --      6.5220                 0.8115                 1.0795

                     76                     77                     78
                      A                      A                      A
 Frequencies --   1478.7319              1483.1597              1485.8972
 Red. masses --      1.0764                 1.0781                 1.0738
 Frc consts  --      1.3867                 1.3973                 1.3969
 IR Inten    --      0.4292                 0.0036                 0.0242

                     79                     80                     81
                      A                      A                      A
 Frequencies --   1488.0768              1493.8324              1495.5608
 Red. masses --      1.0639                 1.0667                 1.0697
 Frc consts  --      1.3881                 1.4025                 1.4097
 IR Inten    --      1.5390                 0.8399                 0.8226

                     82                     83                     84
                      A                      A                      A
 Frequencies --   1497.2470              1499.3878              1499.6638
 Red. masses --      1.0772                 1.0407                 1.0405
 Frc consts  --      1.4227                 1.3784                 1.3787
 IR Inten    --      0.5227                 4.3508                 6.3739

                     85                     86                     87
                      A                      A                      A
 Frequencies --   1509.4777              1510.8430              1513.3638
 Red. masses --      1.0857                 1.0926                 1.0876
 Frc consts  --      1.4575                 1.4695                 1.4676
 IR Inten    --      2.8319                 2.8097                 1.6383

                     88                     89                     90
                      A                      A                      A
 Frequencies --   1529.6631              2978.8070              2986.3931
 Red. masses --      1.0898                 1.0800                 1.0601
 Frc consts  --      1.5024                 5.6461                 5.5703
 IR Inten    --      6.4560                 3.5146                31.3426

                     91                     92                     93
                      A                      A                      A
 Frequencies --   2994.6437              2998.5008              3005.0441
 Red. masses --      1.0614                 1.0628                 1.0601
 Frc consts  --      5.6079                 5.6301                 5.6402
 IR Inten    --      5.3160                 7.4232                 2.4248

                     94                     95                     96
                      A                      A                      A
 Frequencies --   3007.5952              3012.9947              3017.6607
 Red. masses --      1.0609                 1.0640                 1.0623
 Frc consts  --      5.6541                 5.6910                 5.6993
 IR Inten    --      7.2019                45.0524                28.1754

                     97                     98                     99
                      A                      A                      A
 Frequencies --   3020.5387              3026.9247              3027.6166
 Red. masses --      1.0672                 1.0371                 1.0376
 Frc consts  --      5.7370                 5.5988                 5.6038
 IR Inten    --     54.2211                48.9063                24.2599

                    100                    101                    102
                      A                      A                      A
 Frequencies --   3028.3779              3030.2901              3033.9763
 Red. masses --      1.0900                 1.0811                 1.0989
 Frc consts  --      5.8896                 5.8489                 5.9598
 IR Inten    --     17.8341                16.3658                 3.5531

                    103                    104                    105
                      A                      A                      A
 Frequencies --   3035.3307              3037.4663              3042.9755
 Red. masses --      1.0815                 1.0946                 1.0932
 Frc consts  --      5.8705                 5.9503                 5.9641
 IR Inten    --     44.2246                19.2871                20.4625

                    106                    107                    108
                      A                      A                      A
 Frequencies --   3060.0381              3064.5964              3066.4109
 Red. masses --      1.1010                 1.0997                 1.0994
 Frc consts  --      6.0743                 6.0849                 6.0907
 IR Inten    --     30.9896                33.2094                22.3641

                    109                    110                    111
                      A                      A                      A
 Frequencies --   3081.3154              3094.1462              3095.2319
 Red. masses --      1.1050                 1.1022                 1.1022
 Frc consts  --      6.1815                 6.2169                 6.2213
 IR Inten    --     95.2797                49.5756                65.4758

                    112                    113                    114
                      A                      A                      A
 Frequencies --   3099.0146              3099.7999              3748.6587
 Red. masses --      1.1008                 1.1008                 1.0687
 Frc consts  --      6.2286                 6.2320                 8.8481
 IR Inten    --     25.2692                57.4228                29.3397

 - Thermochemistry -
 -------------------
 Temperature   298.150 Kelvin.  Pressure   1.00000 Atm.
 Atom     1 has atomic number  6 and mass  12.00000

 Molecular mass:   202.19328 amu.
 Principal axes and moments of inertia in atomic units:
                           1         2         3
     Eigenvalues --  1667.67715********************
           X            1.00000  -0.00248   0.00035
           Y            0.00248   1.00000   0.00046
           Z           -0.00035  -0.00046   1.00000
 This molecule is an asymmetric top.
 Rotational symmetry number  1.
 Warning -- assumption of classical behavior for rotation
           may cause significant error
 Rotational temperatures (Kelvin)      0.05194     0.00781     0.00695
 Rotational constants (GHZ):           1.08219     0.16277     0.14472
 Zero-point vibrational energy     962836.5 (Joules/Mol)
                                  230.12346 (Kcal/Mol)
 Warning -- explicit consideration of  26 degrees of freedom as
           vibrations may cause significant error
 Vibrational temperatures:     36.59    52.99    59.87    81.07   100.97
          (Kelvin)            125.18   146.27   149.41   155.89   189.03
                              218.53   221.73   262.99   286.62   314.74
                              325.37   351.63   359.62   413.95   445.02
                              520.59   585.60   657.84   674.56   764.17
                              784.40  1058.43  1059.17  1079.73  1100.23
                             1190.68  1226.45  1242.23  1290.93  1299.83
                             1339.81  1354.32  1409.39  1444.41  1457.30
                             1490.24  1501.17  1516.63  1518.34  1523.11
                             1537.68  1555.71  1560.72  1593.69  1653.53
                             1679.92  1716.71  1735.20  1791.37  1800.60
                             1813.31  1843.82  1856.13  1872.03  1883.17
                             1903.51  1908.79  1914.05  1923.99  1926.87
                             1955.20  1977.99  1989.95  1995.94  1998.99
                             2018.18  2020.46  2028.83  2031.10  2033.91
                             2127.57  2133.94  2137.87  2141.01  2149.29
                             2151.78  2154.20  2157.28  2157.68  2171.80
                             2173.77  2177.39  2200.84  4285.84  4296.75
                             4308.62  4314.17  4323.59  4327.26  4335.03
                             4341.74  4345.88  4355.07  4356.06  4357.16
                             4359.91  4365.22  4367.16  4370.24  4378.16
                             4402.71  4409.27  4411.88  4433.33  4451.79
                             4453.35  4458.79  4459.92  5393.48

 Zero-point correction=                           0.366725 (Hartree/Particle)
 Thermal correction to Energy=                    0.385745
 Thermal correction to Enthalpy=                  0.386689
 Thermal correction to Gibbs Free Energy=         0.317153
 Sum of electronic and zero-point Energies=           -622.984584
 Sum of electronic and thermal Energies=              -622.965564
 Sum of electronic and thermal Enthalpies=            -622.964620
 Sum of electronic and thermal Free Energies=         -623.034155

                     E (Thermal)             CV                S
                      KCal/Mol        Cal/Mol-Kelvin    Cal/Mol-Kelvin
 Total                  242.058             66.847            146.350
 Electronic               0.000              0.000              0.000
 Translational            0.889              2.981             41.817
 Rotational               0.889              2.981             33.799
 Vibrational            240.281             60.885             70.734
 Vibration     1          0.593              1.985              6.158
 Vibration     2          0.594              1.982              5.423
 Vibration     3          0.594              1.981              5.181
 Vibration     4          0.596              1.975              4.581
 Vibration     5          0.598              1.968              4.148
 Vibration     6          0.601              1.958              3.726
 Vibration     7          0.604              1.948              3.422
 Vibration     8          0.605              1.946              3.381
 Vibration     9          0.606              1.943              3.298
 Vibration    10          0.612              1.922              2.926
 Vibration    11          0.619              1.901              2.648
 Vibration    12          0.620              1.898              2.621
 Vibration    13          0.630              1.863              2.300
 Vibration    14          0.637              1.841              2.140
 Vibration    15          0.647              1.813              1.969
 Vibration    16          0.650              1.801              1.909
 Vibration    17          0.660              1.772              1.771
 Vibration    18          0.663              1.763              1.731
 Vibration    19          0.685              1.697              1.487
 Vibration    20          0.699              1.656              1.366
 Vibration    21          0.736              1.551              1.114
 Vibration    22          0.772              1.455              0.937
 Vibration    23          0.815              1.345              0.774
 Vibration    24          0.826              1.319              0.741
 Vibration    25          0.886              1.181              0.585
 Vibration    26          0.900              1.150              0.554

 Optimization completed.
    -- Stationary point found.
 Normal termination of Gaussian 16 at Tue May 23 22:30:26 2023.
