 Gaussian 16, Revision A.03,
 Gaussian 16:  ES64L-G16RevA.03 25-Dec-2016

 -----------------------------
 # opt freq b3lyp/6-31g(2df,p)
 -----------------------------

 -------------------
 Title Card Required
 -------------------
 Symbolic Z-matrix:
 Charge =  0 Multiplicity = 1

 SCF Done:  E(RB3LYP) =  -1056.05727624     A.U. after   18 cycles
 SCF Done:  E(RB3LYP) =  -1056.08237352     A.U. after   13 cycles
 SCF Done:  E(RB3LYP) =  -1056.09275298     A.U. after   13 cycles
 SCF Done:  E(RB3LYP) =  -1056.09542934     A.U. after   12 cycles
 SCF Done:  E(RB3LYP) =  -1056.10028244     A.U. after   13 cycles
 SCF Done:  E(RB3LYP) =  -1056.10525622     A.U. after   15 cycles
 SCF Done:  E(RB3LYP) =  -1056.10831245     A.U. after   14 cycles
 SCF Done:  E(RB3LYP) =  -1056.11020646     A.U. after   13 cycles
 SCF Done:  E(RB3LYP) =  -1056.11069094     A.U. after   13 cycles
 SCF Done:  E(RB3LYP) =  -1056.11090052     A.U. after   12 cycles
 SCF Done:  E(RB3LYP) =  -1056.11096744     A.U. after   11 cycles
 SCF Done:  E(RB3LYP) =  -1056.11100460     A.U. after   11 cycles
 SCF Done:  E(RB3LYP) =  -1056.11102988     A.U. after   11 cycles
 SCF Done:  E(RB3LYP) =  -1056.11104201     A.U. after   11 cycles
 SCF Done:  E(RB3LYP) =  -1056.11104878     A.U. after   11 cycles
 SCF Done:  E(RB3LYP) =  -1056.11105013     A.U. after    9 cycles
 SCF Done:  E(RB3LYP) =  -1056.11105010     A.U. after   10 cycles
 SCF Done:  E(RB3LYP) =  -1056.11105071     A.U. after   10 cycles
 SCF Done:  E(RB3LYP) =  -1056.11105098     A.U. after    9 cycles
 Optimization completed.
    -- Stationary point found.
 Normal termination of Gaussian 16 at Mon May 29 03:00:15 2023.

 ----------------------------------------------------------------------
 #N Geom=AllCheck Guess=TCheck SCRF=Check GenChk RB3LYP/6-31G(2df,p) Fr
 eq
 ----------------------------------------------------------------------

 Structure from the checkpoint file:  "CCCCOOC1qCrCCqCCOCrd[SH]1.chk"
 -------------------
 Title Card Required
 -------------------
 Charge =  0 Multiplicity = 1

                         Standard orientation:
 ---------------------------------------------------------------------
 Center     Atomic      Atomic             Coordinates (Angstroms)
 Number     Number       Type             X           Y           Z
 ---------------------------------------------------------------------
      1          6           0       -4.200871   -3.387946    0.263914
      2          6           0       -4.023729   -1.878046    0.444385
      3          6           0       -2.846722   -1.321471   -0.365687
      4          6           0       -2.679125    0.181766   -0.175605
      5          8           0       -1.568248    0.555858   -0.984329
      6          8           0       -1.369751    1.979632   -0.791998
      7          6           0       -0.088317    2.238648   -0.361381
      8          6           0        0.047057    3.748100   -0.405295
      9          6           0        1.073147    1.393171   -0.927004
     10          6           0        1.313983    0.599034    0.335390
     11          6           0        2.576237   -0.109920    0.712205
     12          6           0        2.822140   -1.322020   -0.187646
     13          8           0        4.050759   -1.914760    0.178877
     14          6           0        4.367172   -3.040585   -0.599265
     15         16           0        0.345909    1.497329    1.437109
     16          1           0       -5.045062   -3.761419    0.851476
     17          1           0       -3.305167   -3.931785    0.582953
     18          1           0       -4.385890   -3.642084   -0.785488
     19          1           0       -3.873608   -1.650905    1.507621
     20          1           0       -4.946635   -1.362294    0.149034
     21          1           0       -2.992261   -1.532329   -1.432013
     22          1           0       -1.915281   -1.816930   -0.067865
     23          1           0       -2.478146    0.425956    0.874694
     24          1           0       -3.574897    0.729001   -0.499151
     25          1           0       -0.032366    4.075740   -1.446925
     26          1           0        1.016111    4.058042   -0.013713
     27          1           0       -0.743292    4.229527    0.176452
     28          1           0        1.876228    2.082975   -1.246451
     29          1           0        0.795184    0.792006   -1.801079
     30          1           0        2.512791   -0.456802    1.751348
     31          1           0        3.476759    0.527728    0.656639
     32          1           0        2.850511   -1.016309   -1.248571
     33          1           0        1.993886   -2.042024   -0.083153
     34          1           0        5.327059   -3.426924   -0.246398
     35          1           0        4.458470   -2.788993   -1.668812
     36          1           0        3.608805   -3.834737   -0.502392
     37          1           0        0.774347    2.815074    1.873593
 ---------------------------------------------------------------------

 SCF Done:  E(RB3LYP) =  -1056.11105098     A.U. after    1 cycles

 The electronic state is 1-A.
 Alpha  occ. eigenvalues --  -88.91449 -19.21658 -19.19918 -19.12753 -10.28636
 Alpha  occ. eigenvalues --  -10.23266 -10.21499 -10.21311 -10.19764 -10.18811
 Alpha  occ. eigenvalues --  -10.18722 -10.18591 -10.17717 -10.17074 -10.16599
 Alpha  occ. eigenvalues --   -7.97154  -5.93471  -5.93281  -5.93018  -1.13661
 Alpha  occ. eigenvalues --   -1.02098  -0.95616  -0.84401  -0.79730  -0.76249
 Alpha  occ. eigenvalues --   -0.74034  -0.71460  -0.69859  -0.67120  -0.63000
 Alpha  occ. eigenvalues --   -0.60689  -0.59024  -0.57692  -0.53413  -0.51031
 Alpha  occ. eigenvalues --   -0.49598  -0.48481  -0.47403  -0.47136  -0.46583
 Alpha  occ. eigenvalues --   -0.44475  -0.44103  -0.43325  -0.42504  -0.41548
 Alpha  occ. eigenvalues --   -0.41061  -0.39979  -0.39443  -0.38780  -0.38262
 Alpha  occ. eigenvalues --   -0.36630  -0.36492  -0.35519  -0.34223  -0.33852
 Alpha  occ. eigenvalues --   -0.33547  -0.33207  -0.31703  -0.30806  -0.30135
 Alpha  occ. eigenvalues --   -0.28736  -0.25800  -0.24381  -0.15615
 Alpha virt. eigenvalues --   -0.03017   0.01659   0.05110   0.08196   0.08788
 Alpha virt. eigenvalues --    0.09935   0.10601   0.11947   0.12120   0.12633
 Alpha virt. eigenvalues --    0.13234   0.13824   0.14454   0.14633   0.15473

 Mulliken charges:
               1
     1  C   -0.379742
     2  C   -0.168075
     3  C   -0.196219
     4  C   -0.031009
     5  O   -0.181116
     6  O   -0.195565
     7  C    0.394917
     8  C   -0.445422
     9  C   -0.313255
    10  C    0.083856
    11  C   -0.297539
    12  C   -0.036927
    13  O   -0.229289
    14  C   -0.225220
    15  S   -0.081666
    16  H    0.114447
    17  H    0.118776
    18  H    0.116741
    19  H    0.102854
    20  H    0.099470
    21  H    0.109612
    22  H    0.120031
    23  H    0.114185
    24  H    0.102957
    25  H    0.144624
    26  H    0.144051
    27  H    0.139407
    28  H    0.083128
    29  H    0.118339
    30  H    0.106906
    31  H    0.089201
    32  H    0.080616
    33  H    0.086341
    34  H    0.122026
    35  H    0.098506
    36  H    0.099109
    37  H   -0.009054
 Sum of Mulliken charges =  -0.00000

 Dipole moment (field-independent basis, Debye):
    X=             -1.8117    Y=              0.5691    Z=             -0.7795  Tot=              2.0528
 Quadrupole moment (field-independent basis, Debye-Ang):
   XX=           -100.5050   YY=            -91.2886   ZZ=           -102.1808
   XY=              2.3473   XZ=             -5.0586   YZ=              0.9146

  Exact polarizability: 169.573  -7.074 182.488  -2.432   6.309 139.095
 Approx polarizability: 222.019 -17.389 261.613  -4.085  21.337 245.199

                      1                      2                      3
                      A                      A                      A
 Frequencies --     11.3247                30.0031                44.4998
 Red. masses --      4.3424                 3.8064                 1.8638
 Frc consts  --      0.0003                 0.0020                 0.0022
 IR Inten    --      0.1862                 0.7394                 0.8838

                      4                      5                      6
                      A                      A                      A
 Frequencies --     54.2221                64.2813                74.3866
 Red. masses --      3.5242                 2.7914                 2.1262
 Frc consts  --      0.0061                 0.0068                 0.0069
 IR Inten    --      1.0040                 0.0762                 2.3365

                      7                      8                      9
                      A                      A                      A
 Frequencies --     98.1399               113.5800               120.5343
 Red. masses --      2.9539                 2.9356                 2.6653
 Frc consts  --      0.0168                 0.0223                 0.0228
 IR Inten    --      2.3576                 0.4940                 0.4120

                     10                     11                     12
                      A                      A                      A
 Frequencies --    131.8881               147.9775               196.8683
 Red. masses --      2.2030                 3.3452                 1.3928
 Frc consts  --      0.0226                 0.0432                 0.0318
 IR Inten    --      0.3892                 0.5116                 1.2421

                     13                     14                     15
                      A                      A                      A
 Frequencies --    206.0446               224.6740               241.5729
 Red. masses --      2.6091                 1.6766                 2.0664
 Frc consts  --      0.0653                 0.0499                 0.0710
 IR Inten    --      0.8317                 1.6649                 4.9524

                     16                     17                     18
                      A                      A                      A
 Frequencies --    248.2563               253.6855               270.5557
 Red. masses --      1.1335                 3.1670                 3.8377
 Frc consts  --      0.0412                 0.1201                 0.1655
 IR Inten    --      0.2886                14.5732                 2.9908

                     19                     20                     21
                      A                      A                      A
 Frequencies --    276.9698               307.6577               337.7460
 Red. masses --      3.1287                 2.9368                 5.7584
 Frc consts  --      0.1414                 0.1638                 0.3870
 IR Inten    --      6.3357                 1.2092                17.4410

                     22                     23                     24
                      A                      A                      A
 Frequencies --    355.3464               411.8988               456.8667
 Red. masses --      3.3757                 3.0726                 2.9270
 Frc consts  --      0.2511                 0.3071                 0.3600
 IR Inten    --      5.5519                 0.2517                11.1967

                     25                     26                     27
                      A                      A                      A
 Frequencies --    482.0248               499.5042               547.3381
 Red. masses --      3.1357                 5.7805                 3.4691
 Frc consts  --      0.4293                 0.8497                 0.6123
 IR Inten    --      8.8191                16.5395                18.0622

                     28                     29                     30
                      A                      A                      A
 Frequencies --    588.8520               680.5800               746.8014
 Red. masses --      4.0106                 3.3991                 1.0729
 Frc consts  --      0.8194                 0.9276                 0.3526
 IR Inten    --     12.0081                39.2017                 2.3501

                     31                     32                     33
                      A                      A                      A
 Frequencies --    761.7538               804.8666               818.1488
 Red. masses --      1.4140                 1.2446                 1.1301
 Frc consts  --      0.4834                 0.4750                 0.4457
 IR Inten    --    147.9617                 0.4333                 0.9128

                     34                     35                     36
                      A                      A                      A
 Frequencies --    846.9178               895.2083               905.2878
 Red. masses --      2.5923                 2.3023                 1.4354
 Frc consts  --      1.0955                 1.0871                 0.6931
 IR Inten    --     31.6012                 5.6050                16.6306

                     37                     38                     39
                      A                      A                      A
 Frequencies --    925.7721               955.5528               957.3178
 Red. masses --      2.9437                 1.7366                 1.1660
 Frc consts  --      1.4865                 0.9343                 0.6296
 IR Inten    --     10.0164                13.4071                 0.5268

                     40                     41                     42
                      A                      A                      A
 Frequencies --    979.9609               991.1324              1001.7489
 Red. masses --      2.2899                 3.2308                 1.6781
 Frc consts  --      1.2956                 1.8699                 0.9922
 IR Inten    --     31.7172                22.9569                 8.5739

                     43                     44                     45
                      A                      A                      A
 Frequencies --   1028.8779              1034.4186              1049.6260
 Red. masses --      3.0509                 3.7620                 2.1356
 Frc consts  --      1.9029                 2.3717                 1.3863
 IR Inten    --      8.0242                37.5908                 8.8845

                     46                     47                     48
                      A                      A                      A
 Frequencies --   1059.3033              1069.6260              1084.1722
 Red. masses --      1.8940                 2.2299                 1.5274
 Frc consts  --      1.2522                 1.5032                 1.0578
 IR Inten    --     18.9218                 1.9136                37.9689

                     49                     50                     51
                      A                      A                      A
 Frequencies --   1149.3145              1155.8845              1162.4157
 Red. masses --      2.8740                 2.3560                 3.7578
 Frc consts  --      2.2368                 1.8546                 2.9916
 IR Inten    --     36.8085                42.6265               147.5091

                     52                     53                     54
                      A                      A                      A
 Frequencies --   1187.2880              1190.9909              1197.0502
 Red. masses --      1.4088                 2.0749                 1.7119
 Frc consts  --      1.1701                 1.7341                 1.4452
 IR Inten    --      3.3260                17.1553                 9.4412

                     55                     56                     57
                      A                      A                      A
 Frequencies --   1224.0160              1234.9108              1244.6582
 Red. masses --      1.5669                 1.8151                 1.2891
 Frc consts  --      1.3831                 1.6309                 1.1766
 IR Inten    --     64.6555                26.8404                 1.2323

                     58                     59                     60
                      A                      A                      A
 Frequencies --   1250.4206              1281.7633              1296.7369
 Red. masses --      1.6932                 3.1341                 1.3001
 Frc consts  --      1.5598                 3.0337                 1.2881
 IR Inten    --     67.0669                52.6896                10.8384

                     61                     62                     63
                      A                      A                      A
 Frequencies --   1298.8873              1301.3685              1309.4482
 Red. masses --      1.4357                 1.1577                 1.3108
 Frc consts  --      1.4271                 1.1552                 1.3243
 IR Inten    --      8.1436                 1.8629                29.8631

                     64                     65                     66
                      A                      A                      A
 Frequencies --   1325.5246              1326.1479              1383.9263
 Red. masses --      1.2207                 1.7102                 1.4229
 Frc consts  --      1.2637                 1.7720                 1.6057
 IR Inten    --      0.7685                 1.2829                 0.4715

                     67                     68                     69
                      A                      A                      A
 Frequencies --   1400.7576              1408.2409              1415.3005
 Red. masses --      1.2651                 1.4483                 1.2636
 Frc consts  --      1.4626                 1.6923                 1.4913
 IR Inten    --     12.6630                13.9179                 3.9658

                     70                     71                     72
                      A                      A                      A
 Frequencies --   1417.0086              1475.3491              1480.1814
 Red. masses --      1.3749                 1.0472                 1.1356
 Frc consts  --      1.6265                 1.3430                 1.4660
 IR Inten    --     13.4333                 2.1236                 2.3337

                     73                     74                     75
                      A                      A                      A
 Frequencies --   1480.3502              1482.2778              1484.6490
 Red. masses --      1.0694                 1.0978                 1.0475
 Frc consts  --      1.3807                 1.4211                 1.3603
 IR Inten    --      0.2481                 3.2771                 4.4038

                     76                     77                     78
                      A                      A                      A
 Frequencies --   1488.5391              1495.4861              1497.0789
 Red. masses --      1.0610                 1.0850                 1.0738
 Frc consts  --      1.3852                 1.4297                 1.4180
 IR Inten    --      0.7158                 5.5680                 0.7280

                     79                     80                     81
                      A                      A                      A
 Frequencies --   1499.7110              1504.7382              1510.3508
 Red. masses --      1.0399                 1.0610                 1.0804
 Frc consts  --      1.3780                 1.4154                 1.4520
 IR Inten    --      5.4296                12.4409                 2.6727

                     82                     83                     84
                      A                      A                      A
 Frequencies --   1527.6377              1530.3883              1825.4491
 Red. masses --      1.0897                 1.0922                 1.0429
 Frc consts  --      1.4983                 1.5072                 2.0475
 IR Inten    --      5.5989                 0.3015               711.3547

                     85                     86                     87
                      A                      A                      A
 Frequencies --   2920.8777              2934.6457              2943.9001
 Red. masses --      1.0719                 1.0721                 1.0561
 Frc consts  --      5.3879                 5.4400                 5.3926
 IR Inten    --     73.9019                67.1070                35.3059

                     88                     89                     90
                      A                      A                      A
 Frequencies --   2962.9411              2982.7886              3001.5779
 Red. masses --      1.0424                 1.0952                 1.1027
 Frc consts  --      5.3916                 5.7411                 5.8536
 IR Inten    --     77.7468                72.9563                58.2587

                     91                     92                     93
                      A                      A                      A
 Frequencies --   3007.6846              3017.7740              3030.8592
 Red. masses --      1.0560                 1.0586                 1.0391
 Frc consts  --      5.6284                 5.6801                 5.6242
 IR Inten    --     23.5909                22.1544                17.4565

                     94                     95                     96
                      A                      A                      A
 Frequencies --   3034.6678              3035.9452              3044.6599
 Red. masses --      1.0858                 1.0568                 1.0884
 Frc consts  --      5.8913                 5.7388                 5.9444
 IR Inten    --     20.0989                47.3815                25.0861

                     97                     98                     99
                      A                      A                      A
 Frequencies --   3045.3427              3048.3829              3052.3419
 Red. masses --      1.0994                 1.0365                 1.1044
 Frc consts  --      6.0071                 5.6749                 6.0626
 IR Inten    --      9.0197                 9.6857                 7.7785

                    100                    101                    102
                      A                      A                      A
 Frequencies --   3083.7451              3100.6294              3104.8083
 Red. masses --      1.1060                 1.1026                 1.1012
 Frc consts  --      6.1965                 6.2455                 6.2542
 IR Inten    --     26.1204                61.9496                36.9083

                    103                    104                    105
                      A                      A                      A
 Frequencies --   3105.9383              3120.2492              3151.0047
 Red. masses --      1.0952                 1.1005                 1.1009
 Frc consts  --      6.2247                 6.3125                 6.4401
 IR Inten    --     36.9646                 6.2934                 5.9506

 - Thermochemistry -
 -------------------
 Temperature   298.150 Kelvin.  Pressure   1.00000 Atm.
 Atom     1 has atomic number  6 and mass  12.00000

 Molecular mass:   234.12897 amu.
 Principal axes and moments of inertia in atomic units:
                           1         2         3
     Eigenvalues --  3907.346886213.918779057.62116
           X            0.99935   0.03450  -0.01048
           Y           -0.03448   0.99940   0.00174
           Z            0.01054  -0.00137   0.99994
 This molecule is an asymmetric top.
 Rotational symmetry number  1.
 Warning -- assumption of classical behavior for rotation
           may cause significant error
 Rotational temperatures (Kelvin)      0.02217     0.01394     0.00956
 Rotational constants (GHZ):           0.46188     0.29044     0.19925
 Zero-point vibrational energy     828825.4 (Joules/Mol)
                                  198.09402 (Kcal/Mol)
 Warning -- explicit consideration of  28 degrees of freedom as
           vibrations may cause significant error
 Vibrational temperatures:     16.29    43.17    64.03    78.01    92.49
          (Kelvin)            107.03   141.20   163.42   173.42   189.76
                              212.91   283.25   296.45   323.26   347.57
                              357.19   365.00   389.27   398.50   442.65
                              485.94   511.26   592.63   657.33   693.53
                              718.68   787.50   847.23   979.20  1074.48
                             1095.99  1158.02  1177.13  1218.53  1288.01
                             1302.51  1331.98  1374.83  1377.37  1409.95
                             1426.02  1441.29  1480.33  1488.30  1510.18
                             1524.10  1538.95  1559.88  1653.61  1663.06
                             1672.46  1708.24  1713.57  1722.29  1761.09
                             1776.76  1790.79  1799.08  1844.17  1865.72
                             1868.81  1872.38  1884.00  1907.13  1908.03
                             1991.16  2015.38  2026.14  2036.30  2038.76
                             2122.70  2129.65  2129.89  2132.67  2136.08
                             2141.68  2151.67  2153.96  2157.75  2164.98
                             2173.06  2197.93  2201.89  2626.41  4202.49
                             4222.30  4235.62  4263.01  4291.57  4318.60
                             4327.39  4341.90  4360.73  4366.21  4368.05
                             4380.59  4381.57  4385.94  4391.64  4436.82
                             4461.11  4467.13  4468.75  4489.34  4533.59

 Zero-point correction=                           0.315683 (Hartree/Particle)
 Thermal correction to Energy=                    0.334982
 Thermal correction to Enthalpy=                  0.335927
 Thermal correction to Gibbs Free Energy=         0.265110
 Sum of electronic and zero-point Energies=          -1055.795368
 Sum of electronic and thermal Energies=             -1055.776069
 Sum of electronic and thermal Enthalpies=           -1055.775124
 Sum of electronic and thermal Free Energies=        -1055.845941

                     E (Thermal)             CV                S
                      KCal/Mol        Cal/Mol-Kelvin    Cal/Mol-Kelvin
 Total                  210.205             68.242            149.047
 Electronic               0.000              0.000              0.000
 Translational            0.889              2.981             42.254
 Rotational               0.889              2.981             33.752
 Vibrational            208.427             62.281             73.041
 Vibration     1          0.593              1.987              7.764
 Vibration     2          0.594              1.984              5.829
 Vibration     3          0.595              1.980              5.048
 Vibration     4          0.596              1.976              4.657
 Vibration     5          0.597              1.971              4.321
 Vibration     6          0.599              1.966              4.034
 Vibration     7          0.604              1.950              3.491
 Vibration     8          0.607              1.938              3.207
 Vibration     9          0.609              1.932              3.092
 Vibration    10          0.612              1.921              2.918
 Vibration    11          0.617              1.905              2.698
 Vibration    12          0.636              1.844              2.162
 Vibration    13          0.641              1.831              2.078
 Vibration    14          0.649              1.803              1.921
 Vibration    15          0.658              1.777              1.791
 Vibration    16          0.662              1.766              1.743
 Vibration    17          0.665              1.757              1.705
 Vibration    18          0.674              1.727              1.593
 Vibration    19          0.678              1.716              1.552
 Vibration    20          0.698              1.659              1.375
 Vibration    21          0.718              1.600              1.223
 Vibration    22          0.731              1.564              1.142
 Vibration    23          0.776              1.444              0.920
 Vibration    24          0.815              1.346              0.775
 Vibration    25          0.838              1.290              0.705
 Vibration    26          0.855              1.251              0.659
 Vibration    27          0.903              1.146              0.550
 Vibration    28          0.946              1.056              0.469

                           ! Non-Optimized Parameters !
 Normal termination of Gaussian 16 at Mon May 29 05:32:31 2023.
