 Gaussian 16, Revision A.03,
 Gaussian 16:  ES64L-G16RevA.03 25-Dec-2016

 -----------------------------
 # opt freq b3lyp/6-31g(2df,p)
 -----------------------------

 -------------------
 Title Card Required
 -------------------
 Symbolic Z-matrix:
 Charge =  0 Multiplicity = 1

 SCF Done:  E(RB3LYP) =  -663.685190014     A.U. after   12 cycles
 SCF Done:  E(RB3LYP) =  -663.696942181     A.U. after   10 cycles
 SCF Done:  E(RB3LYP) =  -663.699498263     A.U. after   10 cycles
 SCF Done:  E(RB3LYP) =  -663.701355271     A.U. after   11 cycles
 SCF Done:  E(RB3LYP) =  -663.702185324     A.U. after   11 cycles
 SCF Done:  E(RB3LYP) =  -663.702449222     A.U. after   10 cycles
 SCF Done:  E(RB3LYP) =  -663.702511230     A.U. after    8 cycles
 SCF Done:  E(RB3LYP) =  -663.702520308     A.U. after    8 cycles
 SCF Done:  E(RB3LYP) =  -663.702522319     A.U. after    7 cycles
 SCF Done:  E(RB3LYP) =  -663.702522862     A.U. after    6 cycles
 SCF Done:  E(RB3LYP) =  -663.702523044     A.U. after    6 cycles
 SCF Done:  E(RB3LYP) =  -663.702523120     A.U. after    6 cycles
 SCF Done:  E(RB3LYP) =  -663.702523171     A.U. after    5 cycles
 SCF Done:  E(RB3LYP) =  -663.702523195     A.U. after    5 cycles
 Optimization completed.
    -- Stationary point found.
 Normal termination of Gaussian 16 at Sun May 21 17:15:21 2023.

 ----------------------------------------------------------------------
 #N Geom=AllCheck Guess=TCheck SCRF=Check GenChk RB3LYP/6-31G(2df,p) Fr
 eq
 ----------------------------------------------------------------------

 Structure from the checkpoint file:  "CCCC1CC1CCC1CCCCCCO1.chk"
 -------------------
 Title Card Required
 -------------------
 Charge =  0 Multiplicity = 1

                         Standard orientation:
 ---------------------------------------------------------------------
 Center     Atomic      Atomic             Coordinates (Angstroms)
 Number     Number       Type             X           Y           Z
 ---------------------------------------------------------------------
      1          6           0       -6.660330    1.051974   -0.999704
      2          6           0       -5.558038    0.793724    0.030749
      3          6           0       -4.293935    0.174206   -0.580248
      4          6           0       -3.199050   -0.082462    0.433726
      5          6           0       -3.197006   -1.349363    1.259417
      6          6           0       -2.140420   -1.132495    0.203074
      7          6           0       -0.696850   -0.882327    0.588108
      8          6           0        0.078125   -0.128632   -0.502954
      9          6           0        1.584123    0.040567   -0.242423
     10          6           0        1.874347    0.902065    0.995401
     11          6           0        3.341523    1.303032    1.256464
     12          6           0        4.162476    1.720193    0.016106
     13          6           0        5.022730    0.606916   -0.607477
     14          6           0        4.322500   -0.622820   -1.213609
     15          6           0        3.510183   -1.500214   -0.241218
     16          8           0        2.108183   -1.279832   -0.190428
     17          1           0       -7.546715    1.496594   -0.536200
     18          1           0       -6.971928    0.121582   -1.487938
     19          1           0       -6.317324    1.735451   -1.784756
     20          1           0       -5.935461    0.132058    0.820590
     21          1           0       -5.292354    1.736305    0.527701
     22          1           0       -3.915592    0.834439   -1.373852
     23          1           0       -4.556587   -0.771469   -1.074397
     24          1           0       -2.858196    0.810489    0.956155
     25          1           0       -3.973473   -2.083144    1.065562
     26          1           0       -2.896431   -1.288488    2.300664
     27          1           0       -2.263057   -1.720407   -0.705256
     28          1           0       -0.191149   -1.833731    0.786714
     29          1           0       -0.675959   -0.316385    1.527827
     30          1           0       -0.365521    0.862692   -0.657303
     31          1           0       -0.028233   -0.671539   -1.449779
     32          1           0        1.996197    0.561416   -1.119197
     33          1           0        1.477823    0.404475    1.887147
     34          1           0        1.288166    1.822468    0.868056
     35          1           0        3.867454    0.495821    1.777825
     36          1           0        3.322250    2.137511    1.966797
     37          1           0        4.849153    2.523735    0.306962
     38          1           0        3.503520    2.161258   -0.743314
     39          1           0        5.720235    0.249638    0.163662
     40          1           0        5.649801    1.055437   -1.388383
     41          1           0        5.109089   -1.259679   -1.636295
     42          1           0        3.689966   -0.341052   -2.063841
     43          1           0        3.951328   -1.435188    0.765451
     44          1           0        3.595268   -2.547820   -0.549643
 ---------------------------------------------------------------------

 SCF Done:  E(RB3LYP) =  -663.702523195     A.U. after    1 cycles

 The electronic state is 1-A.
 Alpha  occ. eigenvalues --  -19.12490 -10.22081 -10.21971 -10.17956 -10.17905
 Alpha  occ. eigenvalues --  -10.17786 -10.17739 -10.17661 -10.17645 -10.17296
 Alpha  occ. eigenvalues --  -10.17291 -10.17225 -10.17086 -10.16905 -10.16819
 Alpha  occ. eigenvalues --  -10.16759  -1.01551  -0.85321  -0.80249  -0.79335
 Alpha  occ. eigenvalues --   -0.77360  -0.74581  -0.70363  -0.69573  -0.67785
 Alpha  occ. eigenvalues --   -0.62527  -0.59629  -0.59185  -0.57793  -0.55918
 Alpha  occ. eigenvalues --   -0.55375  -0.53351  -0.49616  -0.47212  -0.46485
 Alpha  occ. eigenvalues --   -0.46239  -0.44380  -0.43688  -0.43516  -0.42972
 Alpha  occ. eigenvalues --   -0.42193  -0.40937  -0.40558  -0.39941  -0.38530
 Alpha  occ. eigenvalues --   -0.37758  -0.36741  -0.36545  -0.35041  -0.34365
 Alpha  occ. eigenvalues --   -0.34354  -0.33380  -0.33194  -0.32902  -0.32075
 Alpha  occ. eigenvalues --   -0.31947  -0.31853  -0.31628  -0.30701  -0.28390
 Alpha  occ. eigenvalues --   -0.26492  -0.25647  -0.23601
 Alpha virt. eigenvalues --    0.07914   0.09376   0.09630   0.10144   0.10679
 Alpha virt. eigenvalues --    0.11657   0.11958   0.12374   0.13413   0.13500
 Alpha virt. eigenvalues --    0.14434   0.14764   0.15431   0.15547   0.15991

 Mulliken charges:
               1
     1  C   -0.379590
     2  C   -0.153267
     3  C   -0.196265
     4  C    0.017993
     5  C   -0.310332
     6  C   -0.011307
     7  C   -0.206986
     8  C   -0.196059
     9  C    0.120337
    10  C   -0.200018
    11  C   -0.211187
    12  C   -0.186380
    13  C   -0.182523
    14  C   -0.219402
    15  C   -0.045871
    16  O   -0.277573
    17  H    0.109129
    18  H    0.111823
    19  H    0.111516
    20  H    0.097808
    21  H    0.091093
    22  H    0.089724
    23  H    0.087604
    24  H    0.071277
    25  H    0.102111
    26  H    0.102757
    27  H    0.075003
    28  H    0.112508
    29  H    0.084833
    30  H    0.088708
    31  H    0.093597
    32  H    0.059137
    33  H    0.101565
    34  H    0.092946
    35  H    0.099946
    36  H    0.090601
    37  H    0.092012
    38  H    0.094268
    39  H    0.094815
    40  H    0.091995
    41  H    0.096468
    42  H    0.108964
    43  H    0.086140
    44  H    0.100083
 Sum of Mulliken charges =  -0.00000

 Dipole moment (field-independent basis, Debye):
    X=              1.0523    Y=              0.9182    Z=             -0.1819  Tot=              1.4084
 Quadrupole moment (field-independent basis, Debye-Ang):
   XX=            -98.0614   YY=           -102.7856   ZZ=           -101.9641
   XY=              0.7645   XZ=             -0.3942   YZ=              0.8122

  Exact polarizability: 202.760  -2.286 149.280  -1.691   0.850 142.355
 Approx polarizability: 229.844  -3.046 225.164  -1.044  -1.053 219.175

                      1                      2                      3
                      A                      A                      A
 Frequencies --     19.8760                29.7642                54.4353
 Red. masses --      3.4975                 3.4909                 2.6597
 Frc consts  --      0.0008                 0.0018                 0.0046
 IR Inten    --      0.0194                 0.0893                 0.2520

                      4                      5                      6
                      A                      A                      A
 Frequencies --     73.1216                82.8583                91.6060
 Red. masses --      2.7127                 2.9769                 2.1076
 Frc consts  --      0.0085                 0.0120                 0.0104
 IR Inten    --      0.0904                 2.3334                 0.7888

                      7                      8                      9
                      A                      A                      A
 Frequencies --    105.5200               121.1630               154.7431
 Red. masses --      2.8699                 2.7137                 3.5809
 Frc consts  --      0.0188                 0.0235                 0.0505
 IR Inten    --      0.1203                 0.1253                 0.5273

                     10                     11                     12
                      A                      A                      A
 Frequencies --    168.8016               204.0381               222.1389
 Red. masses --      2.5282                 2.1301                 2.0685
 Frc consts  --      0.0424                 0.0522                 0.0601
 IR Inten    --      0.0262                 0.7489                 0.2746

                     13                     14                     15
                      A                      A                      A
 Frequencies --    244.9576               276.0418               299.8424
 Red. masses --      1.1207                 2.8086                 2.7743
 Frc consts  --      0.0396                 0.1261                 0.1470
 IR Inten    --      0.0082                 0.3709                 0.2173

                     16                     17                     18
                      A                      A                      A
 Frequencies --    313.2274               320.3856               349.0850
 Red. masses --      2.5817                 2.1311                 2.4928
 Frc consts  --      0.1492                 0.1289                 0.1790
 IR Inten    --      0.6987                 0.3368                 0.3917

                     19                     20                     21
                      A                      A                      A
 Frequencies --    355.2121               392.3955               415.4721
 Red. masses --      2.8119                 2.4792                 2.5224
 Frc consts  --      0.2090                 0.2249                 0.2565
 IR Inten    --      0.9448                 1.0488                 0.2880

                     22                     23                     24
                      A                      A                      A
 Frequencies --    470.1202               479.5147               492.0668
 Red. masses --      2.1560                 2.1611                 2.0544
 Frc consts  --      0.2807                 0.2928                 0.2931
 IR Inten    --      1.1081                 0.6163                 1.0289

                     25                     26                     27
                      A                      A                      A
 Frequencies --    504.6662               639.5606               711.9848
 Red. masses --      2.1985                 3.6982                 1.9470
 Frc consts  --      0.3299                 0.8912                 0.5815
 IR Inten    --      3.5950                 0.2641                 0.0773

                     28                     29                     30
                      A                      A                      A
 Frequencies --    743.5087               754.5009               778.6593
 Red. masses --      1.1178                 1.3156                 1.9517
 Frc consts  --      0.3641                 0.4413                 0.6972
 IR Inten    --      3.1217                 2.4893                 0.9291

                     31                     32                     33
                      A                      A                      A
 Frequencies --    802.9253               817.9486               836.0266
 Red. masses --      2.0451                 1.8144                 2.0467
 Frc consts  --      0.7768                 0.7152                 0.8428
 IR Inten    --      6.5801                 1.9957                 1.8790

                     34                     35                     36
                      A                      A                      A
 Frequencies --    850.7653               858.9757               883.5354
 Red. masses --      1.6149                 1.2605                 1.9510
 Frc consts  --      0.6887                 0.5480                 0.8973
 IR Inten    --      0.4233                 1.5745                 4.8243

                     37                     38                     39
                      A                      A                      A
 Frequencies --    889.4591               913.0887               920.3652
 Red. masses --      2.2224                 1.9949                 1.7297
 Frc consts  --      1.0359                 0.9800                 0.8633
 IR Inten    --      1.9490                 2.6635                 0.2545

                     40                     41                     42
                      A                      A                      A
 Frequencies --    932.9893               951.3802               967.8921
 Red. masses --      1.7045                 2.5624                 2.2267
 Frc consts  --      0.8742                 1.3665                 1.2290
 IR Inten    --      2.4460                11.2006                 3.0233

                     43                     44                     45
                      A                      A                      A
 Frequencies --    988.0161              1010.7277              1035.4595
 Red. masses --      2.0276                 2.1916                 1.8647
 Frc consts  --      1.1661                 1.3191                 1.1779
 IR Inten    --     11.4498                 2.5224                 1.1264

                     46                     47                     48
                      A                      A                      A
 Frequencies --   1040.6904              1044.8922              1052.8664
 Red. masses --      1.9724                 1.8727                 1.5383
 Frc consts  --      1.2586                 1.2047                 1.0047
 IR Inten    --      4.9049                 2.6145                 3.6933

                     49                     50                     51
                      A                      A                      A
 Frequencies --   1064.2393              1085.6578              1097.7713
 Red. masses --      1.5386                 2.0252                 2.4424
 Frc consts  --      1.0268                 1.4064                 1.7342
 IR Inten    --      0.3424                 3.0149                 9.0561

                     52                     53                     54
                      A                      A                      A
 Frequencies --   1103.5560              1109.3015              1117.4505
 Red. masses --      2.2133                 2.1319                 2.1093
 Frc consts  --      1.5881                 1.5457                 1.5518
 IR Inten    --      9.9530                25.4059                 9.8914

                     55                     56                     57
                      A                      A                      A
 Frequencies --   1122.4340              1134.0985              1153.7743
 Red. masses --      1.3018                 1.8488                 3.0685
 Frc consts  --      0.9663                 1.4010                 2.4067
 IR Inten    --      5.4438                 4.0153               110.5330

                     58                     59                     60
                      A                      A                      A
 Frequencies --   1170.6902              1185.4160              1200.9371
 Red. masses --      1.5728                 1.5216                 1.8660
 Frc consts  --      1.2700                 1.2598                 1.5856
 IR Inten    --      8.2874                 6.9033                 0.0644

                     61                     62                     63
                      A                      A                      A
 Frequencies --   1226.7049              1230.2962              1242.5640
 Red. masses --      1.4915                 1.3088                 1.4413
 Frc consts  --      1.3223                 1.1672                 1.3112
 IR Inten    --      2.1731                12.8937                 3.8446

                     64                     65                     66
                      A                      A                      A
 Frequencies --   1255.5791              1269.9668              1275.5936
 Red. masses --      1.3376                 1.3594                 1.3219
 Frc consts  --      1.2424                 1.2918                 1.2673
 IR Inten    --      0.8306                 1.2502                 4.3514

                     67                     68                     69
                      A                      A                      A
 Frequencies --   1295.0806              1295.5586              1302.5215
 Red. masses --      1.1885                 1.2931                 1.3082
 Frc consts  --      1.1745                 1.2787                 1.3077
 IR Inten    --      0.5183                11.6660                 5.2006

                     70                     71                     72
                      A                      A                      A
 Frequencies --   1317.4200              1325.9853              1329.7034
 Red. masses --      1.1432                 1.1359                 1.1088
 Frc consts  --      1.1690                 1.1767                 1.1551
 IR Inten    --     20.1551                 0.7058                 1.0431

                     73                     74                     75
                      A                      A                      A
 Frequencies --   1343.0837              1360.9919              1370.5015
 Red. masses --      1.2386                 1.3124                 1.2946
 Frc consts  --      1.3164                 1.4322                 1.4327
 IR Inten    --      1.6459                 0.3028                 3.9090

                     76                     77                     78
                      A                      A                      A
 Frequencies --   1379.7905              1382.8057              1386.6905
 Red. masses --      1.3999                 1.4856                 1.4048
 Frc consts  --      1.5702                 1.6737                 1.5915
 IR Inten    --      5.1150                 1.4359                 1.9742

                     79                     80                     81
                      A                      A                      A
 Frequencies --   1393.7752              1399.9276              1403.6208
 Red. masses --      1.4305                 1.4725                 1.2792
 Frc consts  --      1.6373                 1.7002                 1.4848
 IR Inten    --      2.6200                 4.9359                12.1394

                     82                     83                     84
                      A                      A                      A
 Frequencies --   1411.7607              1418.0938              1428.7703
 Red. masses --      1.2372                 1.3746                 1.3025
 Frc consts  --      1.4528                 1.6286                 1.5665
 IR Inten    --      0.8185                 8.6110                 4.7232

                     85                     86                     87
                      A                      A                      A
 Frequencies --   1440.8237              1474.0755              1474.1884
 Red. masses --      1.5239                 1.0857                 1.0827
 Frc consts  --      1.8639                 1.3900                 1.3863
 IR Inten    --      0.1789                 0.7649                 2.0361

                     88                     89                     90
                      A                      A                      A
 Frequencies --   1480.4462              1480.5685              1485.2448
 Red. masses --      1.0869                 1.1112                 1.0881
 Frc consts  --      1.4035                 1.4351                 1.4143
 IR Inten    --      4.6288                 1.3224                 5.8155

                     91                     92                     93
                      A                      A                      A
 Frequencies --   1493.0585              1495.7298              1496.6483
 Red. masses --      1.0925                 1.1857                 1.0894
 Frc consts  --      1.4349                 1.5628                 1.4378
 IR Inten    --      0.1122                 2.3143                 7.1365

                     94                     95                     96
                      A                      A                      A
 Frequencies --   1497.6498              1499.4672              1501.6596
 Red. masses --      1.0891                 1.0605                 1.2969
 Frc consts  --      1.4393                 1.4049                 1.7231
 IR Inten    --      3.9498                 3.0976                 5.2541

                     97                     98                     99
                      A                      A                      A
 Frequencies --   1510.3500              1522.2531              2979.3291
 Red. masses --      1.0826                 1.0830                 1.0711
 Frc consts  --      1.4550                 1.4787                 5.6018
 IR Inten    --      2.5183                 3.9937                46.5810

                    100                    101                    102
                      A                      A                      A
 Frequencies --   2986.8838              2998.8331              3002.6816
 Red. masses --      1.0794                 1.0588                 1.0646
 Frc consts  --      5.6735                 5.6101                 5.6554
 IR Inten    --     27.2257                16.3705                25.9693

                    103                    104                    105
                      A                      A                      A
 Frequencies --   3011.3302              3016.7561              3017.6093
 Red. masses --      1.0656                 1.0635                 1.0645
 Frc consts  --      5.6931                 5.7023                 5.7110
 IR Inten    --     15.1765                28.6636                13.5630

                    106                    107                    108
                      A                      A                      A
 Frequencies --   3023.6847              3025.4298              3026.6686
 Red. masses --      1.0624                 1.0661                 1.0416
 Frc consts  --      5.7227                 5.7494                 5.6220
 IR Inten    --      2.8398                 5.1765                28.8701

                    109                    110                    111
                      A                      A                      A
 Frequencies --   3028.1408              3028.8964              3031.9421
 Red. masses --      1.0720                 1.0806                 1.0655
 Frc consts  --      5.7917                 5.8409                 5.7710
 IR Inten    --     61.0033                10.1126                10.0400

                    112                    113                    114
                      A                      A                      A
 Frequencies --   3045.1297              3054.1652              3054.8615
 Red. masses --      1.0935                 1.1026                 1.0929
 Frc consts  --      5.9741                 6.0596                 6.0091
 IR Inten    --     56.5045                23.5080                33.3421

                    115                    116                    117
                      A                      A                      A
 Frequencies --   3057.2209              3057.7647              3062.2684
 Red. masses --      1.0958                 1.0953                 1.0954
 Frc consts  --      6.0342                 6.0336                 6.0520
 IR Inten    --      9.0737                96.5399                 2.8081

                    118                    119                    120
                      A                      A                      A
 Frequencies --   3067.1490              3077.7959              3078.8907
 Red. masses --      1.0993                 1.0986                 1.1016
 Frc consts  --      6.0932                 6.1317                 6.1524
 IR Inten    --     56.2412                77.1122                29.9373

                    121                    122                    123
                      A                      A                      A
 Frequencies --   3092.8598              3098.6029              3110.4503
 Red. masses --      1.1020                 1.1008                 1.0852
 Frc consts  --      6.2111                 6.2274                 6.1857
 IR Inten    --     50.3952                38.6320                12.9638

                    124                    125                    126
                      A                      A                      A
 Frequencies --   3118.3806              3121.0081              3202.8121
 Red. masses --      1.0819                 1.0622                 1.1159
 Frc consts  --      6.1984                 6.0963                 6.7441
 IR Inten    --     38.2048                17.0881                16.0194

 - Thermochemistry -
 -------------------
 Temperature   298.150 Kelvin.  Pressure   1.00000 Atm.
 Atom     1 has atomic number  6 and mass  12.00000

 Molecular mass:   224.21402 amu.
 Principal axes and moments of inertia in atomic units:
                           1         2         3
     Eigenvalues --  1419.85219********************
           X            1.00000  -0.00046   0.00255
           Y            0.00047   0.99999  -0.00469
           Z           -0.00254   0.00469   0.99999
 This molecule is an asymmetric top.
 Rotational symmetry number  1.
 Warning -- assumption of classical behavior for rotation
           may cause significant error
 Rotational temperatures (Kelvin)      0.06100     0.00752     0.00728
 Rotational constants (GHZ):           1.27108     0.15666     0.15172
 Zero-point vibrational energy    1068200.0 (Joules/Mol)
                                  255.30593 (Kcal/Mol)
 Warning -- explicit consideration of  25 degrees of freedom as
           vibrations may cause significant error
 Vibrational temperatures:     28.60    42.82    78.32   105.21   119.21
          (Kelvin)            131.80   151.82   174.33   222.64   242.87
                              293.57   319.61   352.44   397.16   431.41
                              450.66   460.96   502.26   511.07   564.57
                              597.77   676.40   689.91   707.97   726.10
                              920.19  1024.39  1069.74  1085.56  1120.32
                             1155.23  1176.85  1202.86  1224.06  1235.87
                             1271.21  1279.73  1313.73  1324.20  1342.36
                             1368.82  1392.58  1421.53  1454.21  1489.80
                             1497.32  1503.37  1514.84  1531.20  1562.02
                             1579.45  1587.77  1596.04  1607.76  1614.93
                             1631.71  1660.02  1684.36  1705.55  1727.88
                             1764.95  1770.12  1787.77  1806.50  1827.20
                             1835.29  1863.33  1864.02  1874.04  1895.47
                             1907.80  1913.15  1932.40  1958.16  1971.85
                             1985.21  1989.55  1995.14  2005.33  2014.18
                             2019.50  2031.21  2040.32  2055.68  2073.02
                             2120.87  2121.03  2130.03  2130.21  2136.94
                             2148.18  2152.02  2153.34  2154.78  2157.40
                             2160.55  2173.06  2190.18  4286.59  4297.46
                             4314.65  4320.19  4332.63  4340.44  4341.67
                             4350.41  4352.92  4354.70  4356.82  4357.91
                             4362.29  4381.26  4394.26  4395.26  4398.66
                             4399.44  4405.92  4412.94  4428.26  4429.84
                             4449.94  4458.20  4475.24  4486.65  4490.43
                             4608.13

 Zero-point correction=                           0.406856 (Hartree/Particle)
 Thermal correction to Energy=                    0.424774
 Thermal correction to Enthalpy=                  0.425718
 Thermal correction to Gibbs Free Energy=         0.359448
 Sum of electronic and zero-point Energies=           -663.295667
 Sum of electronic and thermal Energies=              -663.277749
 Sum of electronic and thermal Enthalpies=            -663.276805
 Sum of electronic and thermal Free Energies=         -663.343076

                     E (Thermal)             CV                S
                      KCal/Mol        Cal/Mol-Kelvin    Cal/Mol-Kelvin
 Total                  266.550             68.418            139.478
 Electronic               0.000              0.000              0.000
 Translational            0.889              2.981             42.125
 Rotational               0.889              2.981             33.631
 Vibrational            264.772             62.456             63.722
 Vibration     1          0.593              1.986              6.647
 Vibration     2          0.594              1.984              5.845
 Vibration     3          0.596              1.976              4.649
 Vibration     4          0.599              1.967              4.068
 Vibration     5          0.600              1.961              3.822
 Vibration     6          0.602              1.955              3.625
 Vibration     7          0.605              1.945              3.350
 Vibration     8          0.609              1.932              3.082
 Vibration     9          0.620              1.897              2.613
 Vibration    10          0.625              1.881              2.449
 Vibration    11          0.640              1.834              2.096
 Vibration    12          0.648              1.807              1.942
 Vibration    13          0.660              1.771              1.767
 Vibration    14          0.678              1.718              1.558
 Vibration    15          0.692              1.674              1.418
 Vibration    16          0.701              1.648              1.345
 Vibration    17          0.706              1.635              1.308
 Vibration    18          0.726              1.577              1.170
 Vibration    19          0.731              1.565              1.143
 Vibration    20          0.760              1.486              0.991
 Vibration    21          0.779              1.437              0.907
 Vibration    22          0.827              1.316              0.737
 Vibration    23          0.836              1.295              0.711
 Vibration    24          0.848              1.268              0.678
 Vibration    25          0.860              1.240              0.647

                           ! Non-Optimized Parameters !
 Normal termination of Gaussian 16 at Sun May 21 21:14:51 2023.
