 Gaussian 16, Revision A.03,
 Gaussian 16:  ES64L-G16RevA.03 25-Dec-2016

 -----------------------------
 # opt freq b3lyp/6-31g(2df,p)
 -----------------------------

 -------------------
 Title Card Required
 -------------------
 Symbolic Z-matrix:
 Charge =  0 Multiplicity = 1

 SCF Done:  E(RB3LYP) =  -353.831980013     A.U. after   12 cycles
 SCF Done:  E(RB3LYP) =  -353.837517746     A.U. after   10 cycles
 SCF Done:  E(RB3LYP) =  -353.838691347     A.U. after    9 cycles
 SCF Done:  E(RB3LYP) =  -353.839035803     A.U. after    9 cycles
 SCF Done:  E(RB3LYP) =  -353.839109309     A.U. after    9 cycles
 SCF Done:  E(RB3LYP) =  -353.839119553     A.U. after    8 cycles
 SCF Done:  E(RB3LYP) =  -353.839128173     A.U. after    8 cycles
 SCF Done:  E(RB3LYP) =  -353.839128844     A.U. after    6 cycles
 SCF Done:  E(RB3LYP) =  -353.839129164     A.U. after    6 cycles
 SCF Done:  E(RB3LYP) =  -353.839129399     A.U. after    6 cycles
 SCF Done:  E(RB3LYP) =  -353.839133782     A.U. after    7 cycles
 SCF Done:  E(RB3LYP) =  -353.839133850     A.U. after    6 cycles
 SCF Done:  E(RB3LYP) =  -353.839134254     A.U. after    8 cycles
 SCF Done:  E(RB3LYP) =  -353.839134259     A.U. after    6 cycles
 SCF Done:  E(RB3LYP) =  -353.839134424     A.U. after    7 cycles
 SCF Done:  E(RB3LYP) =  -353.839134532     A.U. after    7 cycles
 SCF Done:  E(RB3LYP) =  -353.839134477     A.U. after    7 cycles
 SCF Done:  E(RB3LYP) =  -353.839134566     A.U. after    7 cycles
 SCF Done:  E(RB3LYP) =  -353.839134574     A.U. after    5 cycles
 Optimization completed on the basis of negligible forces.
    -- Stationary point found.
 Normal termination of Gaussian 16 at Sun May 28 06:40:36 2023.

 ----------------------------------------------------------------------
 #N Geom=AllCheck Guess=TCheck SCRF=Check GenChk RB3LYP/6-31G(2df,p) Fr
 eq
 ----------------------------------------------------------------------

 Structure from the checkpoint file:  "CCCCC1CCCC1.chk"
 -------------------
 Title Card Required
 -------------------
 Charge =  0 Multiplicity = 1

                         Standard orientation:
 ---------------------------------------------------------------------
 Center     Atomic      Atomic             Coordinates (Angstroms)
 Number     Number       Type             X           Y           Z
 ---------------------------------------------------------------------
      1          6           0       -3.982342    0.000034    0.837709
      2          6           0       -3.000935   -0.000329   -0.337359
      3          6           0       -1.531623    0.000354    0.102185
      4          6           0       -0.559347    0.000109   -1.085415
      5          6           0        0.942230    0.000245   -0.755300
      6          6           0        1.470915    1.198687    0.055529
      7          6           0        2.899062    0.780098    0.472273
      8          6           0        2.898566   -0.780060    0.474102
      9          6           0        1.471238   -1.199028    0.054181
     10          1           0       -5.021223   -0.000458    0.492777
     11          1           0       -3.842422    0.883841    1.470339
     12          1           0       -3.841910   -0.882995    1.471311
     13          1           0       -3.188841    0.875812   -0.972341
     14          1           0       -3.188317   -0.877292   -0.971361
     15          1           0       -1.352138   -0.876318    0.737814
     16          1           0       -1.352678    0.877781    0.736921
     17          1           0       -0.775823    0.875192   -1.714074
     18          1           0       -0.775733   -0.875252   -1.713725
     19          1           0        1.476016    0.000932   -1.718013
     20          1           0        0.849340    1.346099    0.946612
     21          1           0        1.449884    2.136711   -0.508298
     22          1           0        3.177947    1.195496    1.444670
     23          1           0        3.631650    1.157368   -0.248310
     24          1           0        3.173811   -1.193074    1.448551
     25          1           0        3.633471   -1.159665   -0.242847
     26          1           0        0.848450   -1.348840    0.943990
     27          1           0        1.451933   -2.135994   -0.511449
 ---------------------------------------------------------------------

 SCF Done:  E(RB3LYP) =  -353.839134574     A.U. after    1 cycles

 The electronic state is 1-A.
 Alpha  occ. eigenvalues --  -10.17543 -10.17433 -10.17146 -10.17115 -10.17081
 Alpha  occ. eigenvalues --  -10.17063 -10.16858 -10.16838 -10.16837  -0.82983
 Alpha  occ. eigenvalues --   -0.78673  -0.73544  -0.69842  -0.67982  -0.62060
 Alpha  occ. eigenvalues --   -0.57857  -0.55617  -0.53690  -0.47141  -0.46243
 Alpha  occ. eigenvalues --   -0.45415  -0.42559  -0.41366  -0.40286  -0.39845
 Alpha  occ. eigenvalues --   -0.38002  -0.35214  -0.34209  -0.33354  -0.32954
 Alpha  occ. eigenvalues --   -0.32590  -0.32153  -0.30739  -0.30425  -0.29789
 Alpha  occ. eigenvalues --   -0.29734
 Alpha virt. eigenvalues --    0.08276   0.09423   0.10272   0.11833   0.12000
 Alpha virt. eigenvalues --    0.14007   0.14891   0.15746   0.16705   0.16806
 Alpha virt. eigenvalues --    0.17691   0.18198   0.18815   0.19504   0.19779

 Mulliken charges:
               1
     1  C   -0.382061
     2  C   -0.156831
     3  C   -0.159148
     4  C   -0.221432
     5  C    0.043468
     6  C   -0.204040
     7  C   -0.202619
     8  C   -0.202598
     9  C   -0.204113
    10  H    0.109505
    11  H    0.112229
    12  H    0.112229
    13  H    0.092615
    14  H    0.092617
    15  H    0.094319
    16  H    0.094327
    17  H    0.087694
    18  H    0.087694
    19  H    0.062285
    20  H    0.095121
    21  H    0.087009
    22  H    0.093600
    23  H    0.096127
    24  H    0.093675
    25  H    0.096133
    26  H    0.095149
    27  H    0.087045
 Sum of Mulliken charges =  -0.00000

 Dipole moment (field-independent basis, Debye):
    X=             -0.0010    Y=              0.0001    Z=             -0.0885  Tot=              0.0885
 Quadrupole moment (field-independent basis, Debye-Ang):
   XX=            -60.5363   YY=            -59.4524   ZZ=            -59.2736
   XY=             -0.0003   XZ=             -0.1593   YZ=             -0.0001

  Exact polarizability: 114.166   0.000  88.447   0.891   0.001  86.547
 Approx polarizability: 132.808  -0.000 130.683  -0.044  -0.001 130.544

                      1                      2                      3
                      A                      A                      A
 Frequencies --     12.3129                47.1930                76.2923
 Red. masses --      1.5696                 1.6039                 2.6170
 Frc consts  --      0.0001                 0.0021                 0.0090
 IR Inten    --      0.0031                 0.0005                 0.0000

                      4                      5                      6
                      A                      A                      A
 Frequencies --     95.2821               137.5089               184.5792
 Red. masses --      2.9222                 2.1240                 2.4030
 Frc consts  --      0.0156                 0.0237                 0.0482
 IR Inten    --      0.0048                 0.0199                 0.0356

                      7                      8                      9
                      A                      A                      A
 Frequencies --    243.5068               275.9528               301.5213
 Red. masses --      1.1154                 3.3649                 2.1138
 Frc consts  --      0.0390                 0.1510                 0.1132
 IR Inten    --      0.0028                 0.0219                 0.0074

                     10                     11                     12
                      A                      A                      A
 Frequencies --    383.3757               481.6911               619.2396
 Red. masses --      2.5999                 1.9876                 3.7931
 Frc consts  --      0.2251                 0.2717                 0.8570
 IR Inten    --      0.0338                 1.9824                 0.0334

                     13                     14                     15
                      A                      A                      A
 Frequencies --    627.8912               731.7090               756.6624
 Red. masses --      2.5653                 1.0924                 1.2465
 Frc consts  --      0.5959                 0.3446                 0.4205
 IR Inten    --      0.1966                 2.8478                 0.7398

                     16                     17                     18
                      A                      A                      A
 Frequencies --    780.5117               822.2304               855.1108
 Red. masses --      1.2530                 1.5148                 3.1393
 Frc consts  --      0.4497                 0.6034                 1.3525
 IR Inten    --      0.0616                 0.1147                 0.3457

                     19                     20                     21
                      A                      A                      A
 Frequencies --    889.8542               906.6583               911.5343
 Red. masses --      2.5685                 1.8854                 1.4851
 Frc consts  --      1.1983                 0.9131                 0.7270
 IR Inten    --      0.9127                 0.8515                 0.0188

                     22                     23                     24
                      A                      A                      A
 Frequencies --    950.2939               963.0248               979.0249
 Red. masses --      1.8291                 1.6902                 1.2782
 Frc consts  --      0.9732                 0.9236                 0.7219
 IR Inten    --      0.8472                 2.4931                 0.0782

                     25                     26                     27
                      A                      A                      A
 Frequencies --    999.1351              1043.0852              1045.5233
 Red. masses --      2.2053                 1.6589                 2.6236
 Frc consts  --      1.2971                 1.0634                 1.6897
 IR Inten    --      0.0884                 0.0544                 0.1362

                     28                     29                     30
                      A                      A                      A
 Frequencies --   1059.3910              1099.5104              1117.8088
 Red. masses --      2.3491                 1.5862                 2.2718
 Frc consts  --      1.5533                 1.1298                 1.6725
 IR Inten    --      0.1495                 0.3520                 1.7303

                     31                     32                     33
                      A                      A                      A
 Frequencies --   1169.9375              1192.7491              1204.8667
 Red. masses --      1.8941                 1.4599                 1.5025
 Frc consts  --      1.5275                 1.2237                 1.2851
 IR Inten    --      0.2912                 1.5551                 0.1944

                     34                     35                     36
                      A                      A                      A
 Frequencies --   1239.7246              1244.4095              1267.7514
 Red. masses --      1.5391                 1.3530                 1.2751
 Frc consts  --      1.3937                 1.2345                 1.2074
 IR Inten    --      0.3020                 0.2248                 0.2032

                     37                     38                     39
                      A                      A                      A
 Frequencies --   1285.9010              1298.6494              1315.4755
 Red. masses --      1.3835                 1.2430                 1.2306
 Frc consts  --      1.3478                 1.2351                 1.2547
 IR Inten    --      1.5929                 0.0192                 0.9251

                     40                     41                     42
                      A                      A                      A
 Frequencies --   1320.6152              1330.6474              1330.8881
 Red. masses --      1.1695                 1.3214                 1.2370
 Frc consts  --      1.2017                 1.3785                 1.2909
 IR Inten    --      0.0540                 3.0817                 0.2423

                     43                     44                     45
                      A                      A                      A
 Frequencies --   1344.4338              1368.1685              1372.1949
 Red. masses --      1.1433                 1.5280                 1.3624
 Frc consts  --      1.2176                 1.6852                 1.5114
 IR Inten    --      0.0536                 2.1433                 2.3572

                     46                     47                     48
                      A                      A                      A
 Frequencies --   1393.7265              1409.6676              1415.0265
 Red. masses --      1.5236                 1.3742                 1.3143
 Frc consts  --      1.7437                 1.6089                 1.5505
 IR Inten    --      0.4455                 7.6130                 4.8304

                     49                     50                     51
                      A                      A                      A
 Frequencies --   1481.1698              1485.4087              1486.0630
 Red. masses --      1.0782                 1.0680                 1.0790
 Frc consts  --      1.3937                 1.3884                 1.4040
 IR Inten    --      0.9847                 0.7213                 0.0183

                     52                     53                     54
                      A                      A                      A
 Frequencies --   1495.2651              1496.3232              1499.7633
 Red. masses --      1.0893                 1.0804                 1.0739
 Frc consts  --      1.4350                 1.4252                 1.4231
 IR Inten    --      0.5174                 2.4072                 0.1810

                     55                     56                     57
                      A                      A                      A
 Frequencies --   1499.9367              1512.6445              1519.4462
 Red. masses --      1.0403                 1.0890                 1.1045
 Frc consts  --      1.3790                 1.4681                 1.5024
 IR Inten    --      5.0496                 2.7297                 0.2589

                     58                     59                     60
                      A                      A                      A
 Frequencies --   2978.9017              3003.4257              3009.6717
 Red. masses --      1.0790                 1.0623                 1.0579
 Frc consts  --      5.6413                 5.6459                 5.6461
 IR Inten    --     16.5152                22.9883                10.9283

                     61                     62                     63
                      A                      A                      A
 Frequencies --   3019.7501              3025.5943              3027.7203
 Red. masses --      1.0588                 1.0933                 1.0368
 Frc consts  --      5.6884                 5.8969                 5.6000
 IR Inten    --     61.5965                18.7404                33.4759

                     64                     65                     66
                      A                      A                      A
 Frequencies --   3031.6773              3036.5754              3038.4552
 Red. masses --      1.0722                 1.0971                 1.0600
 Frc consts  --      5.8059                 5.9604                 5.7656
 IR Inten    --      2.6564                 1.3924                49.9476

                     67                     68                     69
                      A                      A                      A
 Frequencies --   3041.1586              3054.4183              3064.5771
 Red. masses --      1.0646                 1.0661                 1.1029
 Frc consts  --      5.8013                 5.8600                 6.1028
 IR Inten    --     19.2092                42.4696                77.6128

                     70                     71                     72
                      A                      A                      A
 Frequencies --   3069.3334              3079.2688              3084.4745
 Red. masses --      1.0973                 1.0981                 1.1050
 Frc consts  --      6.0909                 6.1344                 6.1939
 IR Inten    --     29.3000                18.0404                 8.8397

                     73                     74                     75
                      A                      A                      A
 Frequencies --   3093.7592              3098.8499              3101.8412
 Red. masses --      1.1021                 1.1009                 1.1051
 Frc consts  --      6.2149                 6.2289                 6.2645
 IR Inten    --     60.6374                38.0120                92.3005

 - Thermochemistry -
 -------------------
 Temperature   298.150 Kelvin.  Pressure   1.00000 Atm.
 Atom     1 has atomic number  6 and mass  12.00000

 Molecular mass:   126.14085 amu.
 Principal axes and moments of inertia in atomic units:
                           1         2         3
     Eigenvalues --   475.831412818.705862869.63900
           X            1.00000  -0.00000  -0.00289
           Y            0.00000   1.00000  -0.00003
           Z            0.00289   0.00003   1.00000
 This molecule is an asymmetric top.
 Rotational symmetry number  1.
 Warning -- assumption of classical behavior for rotation
           may cause significant error
 Rotational temperatures (Kelvin)      0.18203     0.03073     0.03018
 Rotational constants (GHZ):           3.79282     0.64027     0.62891
 Zero-point vibrational energy     665349.3 (Joules/Mol)
                                  159.02231 (Kcal/Mol)
 Warning -- explicit consideration of  12 degrees of freedom as
           vibrations may cause significant error
 Vibrational temperatures:     17.72    67.90   109.77   137.09   197.84
          (Kelvin)            265.57   350.35   397.03   433.82   551.59
                              693.05   890.95   903.40  1052.77  1088.67
                             1122.98  1183.01  1230.31  1280.30  1304.48
                             1311.49  1367.26  1385.58  1408.60  1437.53
                             1500.77  1504.27  1524.23  1581.95  1608.28
                             1683.28  1716.10  1733.53  1783.69  1790.43
                             1824.01  1850.12  1868.47  1892.68  1900.07
                             1914.50  1914.85  1934.34  1968.49  1974.28
                             2005.26  2028.20  2035.91  2131.07  2137.17
                             2138.11  2151.35  2152.88  2157.82  2158.07
                             2176.36  2186.14  4285.98  4321.26  4330.25
                             4344.75  4353.16  4356.21  4361.91  4368.95
                             4371.66  4375.55  4394.63  4409.24  4416.09
                             4430.38  4437.87  4451.23  4458.55  4462.86

 Zero-point correction=                           0.253418 (Hartree/Particle)
 Thermal correction to Energy=                    0.264134
 Thermal correction to Enthalpy=                  0.265078
 Thermal correction to Gibbs Free Energy=         0.214946
 Sum of electronic and zero-point Energies=           -353.585716
 Sum of electronic and thermal Energies=              -353.575001
 Sum of electronic and thermal Enthalpies=            -353.574057
 Sum of electronic and thermal Free Energies=         -353.624189

                     E (Thermal)             CV                S
                      KCal/Mol        Cal/Mol-Kelvin    Cal/Mol-Kelvin
 Total                  165.746             38.915            105.512
 Electronic               0.000              0.000              0.000
 Translational            0.889              2.981             40.410
 Rotational               0.889              2.981             29.733
 Vibrational            163.969             32.953             35.369
 Vibration     1          0.593              1.987              7.598
 Vibration     2          0.595              1.979              4.932
 Vibration     3          0.599              1.965              3.984
 Vibration     4          0.603              1.953              3.549
 Vibration     5          0.614              1.916              2.838
 Vibration     6          0.631              1.861              2.282
 Vibration     7          0.659              1.774              1.777
 Vibration     8          0.678              1.718              1.559
 Vibration     9          0.694              1.671              1.408
 Vibration    10          0.753              1.506              1.026
 Vibration    11          0.838              1.291              0.706
 Vibration    12          0.979              0.991              0.418

 Optimization completed on the basis of negligible forces.
    -- Stationary point found.
 Normal termination of Gaussian 16 at Sun May 28 07:23:06 2023.
