 Gaussian 16, Revision A.03,
 Gaussian 16:  ES64L-G16RevA.03 25-Dec-2016

 -----------------------------
 # opt freq b3lyp/6-31g(2df,p)
 -----------------------------

 -------------------
 Title Card Required
 -------------------
 Symbolic Z-matrix:
 Charge =  0 Multiplicity = 1

 SCF Done:  E(RB3LYP) =  -811.427810560     A.U. after   12 cycles
 SCF Done:  E(RB3LYP) =  -811.444986827     A.U. after   11 cycles
 SCF Done:  E(RB3LYP) =  -811.451325237     A.U. after   11 cycles
 SCF Done:  E(RB3LYP) =  -811.455394878     A.U. after   11 cycles
 SCF Done:  E(RB3LYP) =  -811.456999149     A.U. after   11 cycles
 SCF Done:  E(RB3LYP) =  -811.457412939     A.U. after   10 cycles
 SCF Done:  E(RB3LYP) =  -811.457654246     A.U. after   10 cycles
 SCF Done:  E(RB3LYP) =  -811.457836195     A.U. after   10 cycles
 SCF Done:  E(RB3LYP) =  -811.457784336     A.U. after   10 cycles
 SCF Done:  E(RB3LYP) =  -811.458502108     A.U. after   11 cycles
 SCF Done:  E(RB3LYP) =  -811.463356520     A.U. after   12 cycles
 SCF Done:  E(RB3LYP) =  -811.457068493     A.U. after   11 cycles
 SCF Done:  E(RB3LYP) =  -811.464192292     A.U. after   10 cycles
 SCF Done:  E(RB3LYP) =  -811.464331086     A.U. after   10 cycles
 SCF Done:  E(RB3LYP) =  -811.464364640     A.U. after   10 cycles
 SCF Done:  E(RB3LYP) =  -811.464372136     A.U. after    9 cycles
 SCF Done:  E(RB3LYP) =  -811.464374220     A.U. after    8 cycles
 SCF Done:  E(RB3LYP) =  -811.464374732     A.U. after    7 cycles
 SCF Done:  E(RB3LYP) =  -811.464374842     A.U. after    6 cycles
 Optimization completed.
    -- Stationary point found.
 Normal termination of Gaussian 16 at Wed May 24 03:43:43 2023.

 ----------------------------------------------------------------------
 #N Geom=AllCheck Guess=TCheck SCRF=Check GenChk RB3LYP/6-31G(2df,p) Fr
 eq
 ----------------------------------------------------------------------

 Structure from the checkpoint file:  "CCCC1CCCCqOCrCqCCNNOrCC1.chk"
 -------------------
 Title Card Required
 -------------------
 Charge =  0 Multiplicity = 1

                         Standard orientation:
 ---------------------------------------------------------------------
 Center     Atomic      Atomic             Coordinates (Angstroms)
 Number     Number       Type             X           Y           Z
 ---------------------------------------------------------------------
      1          6           0        5.657417   -2.331597   -0.872334
      2          6           0        4.853244   -1.321144   -0.048016
      3          6           0        3.340702   -1.449913   -0.271443
      4          6           0        2.446521   -0.575914    0.636734
      5          6           0        2.703413    0.921942    0.390008
      6          6           0        1.992588    1.938991    1.299812
      7          6           0        0.451961    2.014440    1.262059
      8          6           0       -0.175612    2.001858   -0.146370
      9          8           0       -1.155723    3.044746   -0.157381
     10          6           0       -1.509178    3.525744   -1.432391
     11          6           0       -0.805069    0.651517   -0.581544
     12          6           0       -2.001162    0.268539    0.314411
     13          6           0       -2.981953   -0.698764   -0.349886
     14          7           0       -4.090089   -1.003645    0.553093
     15          7           0       -5.094162   -1.840155    0.024943
     16          8           0       -4.637627   -3.206331    0.123985
     17          6           0        0.217543   -0.497878   -0.768225
     18          6           0        0.963722   -1.004754    0.492599
     19          1           0        6.732911   -2.223077   -0.700128
     20          1           0        5.477584   -2.199284   -1.945232
     21          1           0        5.380892   -3.360814   -0.617535
     22          1           0        5.191982   -0.309162   -0.297926
     23          1           0        5.073701   -1.461848    1.018934
     24          1           0        3.061409   -2.500563   -0.114063
     25          1           0        3.114374   -1.236589   -1.326304
     26          1           0        2.735675   -0.794914    1.675954
     27          1           0        2.482916    1.153144   -0.660233
     28          1           0        3.777689    1.105635    0.499138
     29          1           0        2.384465    2.929051    1.032373
     30          1           0        2.302376    1.768839    2.339051
     31          1           0        0.149491    2.958795    1.723845
     32          1           0        0.013449    1.229215    1.881139
     33          1           0        0.596921    2.265130   -0.887532
     34          1           0       -2.134512    4.409497   -1.279186
     35          1           0       -2.082051    2.798513   -2.026361
     36          1           0       -0.621255    3.818589   -2.014950
     37          1           0       -1.212419    0.833099   -1.586078
     38          1           0       -2.534400    1.189807    0.577599
     39          1           0       -1.668871   -0.179048    1.256723
     40          1           0       -2.496775   -1.651914   -0.584543
     41          1           0       -3.337087   -0.271413   -1.308502
     42          1           0       -4.552402   -0.164106    0.885530
     43          1           0       -5.116363   -1.742035   -0.994075
     44          1           0       -4.981756   -3.474116    0.983617
     45          1           0        0.941487   -0.196423   -1.534692
     46          1           0       -0.326016   -1.337414   -1.213714
     47          1           0        0.943946   -2.100470    0.494471
     48          1           0        0.414359   -0.715229    1.391106
 ---------------------------------------------------------------------

 SCF Done:  E(RB3LYP) =  -811.464374842     A.U. after    1 cycles

 The electronic state is 1-A.
 Alpha  occ. eigenvalues --  -19.14713 -19.13606 -14.38352 -14.33570 -10.22631
 Alpha  occ. eigenvalues --  -10.22294 -10.20229 -10.18438 -10.18082 -10.17820
 Alpha  occ. eigenvalues --  -10.17787 -10.17622 -10.17457 -10.17361 -10.17269
 Alpha  occ. eigenvalues --  -10.17262 -10.17126 -10.17054  -1.05421  -1.02655
 Alpha  occ. eigenvalues --   -0.92102  -0.82839  -0.80183  -0.77945  -0.76004
 Alpha  occ. eigenvalues --   -0.75340  -0.70655  -0.69860  -0.66855  -0.66513
 Alpha  occ. eigenvalues --   -0.63529  -0.61647  -0.58534  -0.57714  -0.55921
 Alpha  occ. eigenvalues --   -0.52401  -0.50921  -0.49811  -0.48836  -0.47365
 Alpha  occ. eigenvalues --   -0.47188  -0.45962  -0.45377  -0.44933  -0.43918
 Alpha  occ. eigenvalues --   -0.43296  -0.42600  -0.42157  -0.41555  -0.40246
 Alpha  occ. eigenvalues --   -0.40081  -0.39623  -0.38105  -0.37194  -0.36776
 Alpha  occ. eigenvalues --   -0.36091  -0.34799  -0.34279  -0.33649  -0.33591
 Alpha  occ. eigenvalues --   -0.33169  -0.32663  -0.32638  -0.31466  -0.30630
 Alpha  occ. eigenvalues --   -0.29623  -0.29595  -0.29161  -0.28777  -0.24953
 Alpha  occ. eigenvalues --   -0.23754  -0.23047
 Alpha virt. eigenvalues --    0.07162   0.07907   0.08884   0.09227   0.09644
 Alpha virt. eigenvalues --    0.09955   0.10388   0.11141   0.11614   0.12382
 Alpha virt. eigenvalues --    0.13227   0.13640   0.14009   0.14501   0.15096

 Mulliken charges:
               1
     1  C   -0.380960
     2  C   -0.174225
     3  C   -0.161731
     4  C    0.013516
     5  C   -0.185483
     6  C   -0.222073
     7  C   -0.217771
     8  C    0.115341
     9  O   -0.247582
    10  C   -0.244424
    11  C   -0.018708
    12  C   -0.203885
    13  C   -0.143510
    14  N   -0.233385
    15  N   -0.212033
    16  O   -0.396043
    17  C   -0.226631
    18  C   -0.211992
    19  H    0.109698
    20  H    0.112703
    21  H    0.113251
    22  H    0.098894
    23  H    0.092695
    24  H    0.087035
    25  H    0.089776
    26  H    0.063134
    27  H    0.091796
    28  H    0.093496
    29  H    0.095849
    30  H    0.092749
    31  H    0.107423
    32  H    0.099647
    33  H    0.057611
    34  H    0.124885
    35  H    0.105369
    36  H    0.103293
    37  H    0.066356
    38  H    0.106616
    39  H    0.111969
    40  H    0.124375
    41  H    0.070579
    42  H    0.228980
    43  H    0.231915
    44  H    0.294216
    45  H    0.093438
    46  H    0.100599
    47  H    0.089355
    48  H    0.093876
 Sum of Mulliken charges =  -0.00000

 Dipole moment (field-independent basis, Debye):
    X=              0.9724    Y=              1.0782    Z=             -0.8450  Tot=              1.6799
 Quadrupole moment (field-independent basis, Debye-Ang):
   XX=           -117.0843   YY=           -117.7803   ZZ=           -110.8170
   XY=             -4.2935   XZ=              1.6635   YZ=             -5.2759

  Exact polarizability: 202.028  -3.938 181.188   3.315  -0.588 147.339
 Approx polarizability: 242.093   0.189 249.730   0.874  -2.279 238.914

                      1                      2                      3
                      A                      A                      A
 Frequencies --     21.5364                35.8420                41.8843
 Red. masses --      4.4822                 3.6321                 3.6210
 Frc consts  --      0.0012                 0.0027                 0.0037
 IR Inten    --      0.3361                 0.4844                 0.2066

                      4                      5                      6
                      A                      A                      A
 Frequencies --     51.6698                61.2437                73.5630
 Red. masses --      2.7261                 1.6352                 2.5317
 Frc consts  --      0.0043                 0.0036                 0.0081
 IR Inten    --      0.4443                 0.2370                 1.2453

                      7                      8                      9
                      A                      A                      A
 Frequencies --     86.3919               107.2124               112.5274
 Red. masses --      3.4896                 2.7527                 2.4392
 Frc consts  --      0.0153                 0.0186                 0.0182
 IR Inten    --      0.0939                 0.0632                 1.1165

                     10                     11                     12
                      A                      A                      A
 Frequencies --    131.9687               162.0802               176.4818
 Red. masses --      2.9129                 2.3935                 2.4165
 Frc consts  --      0.0299                 0.0370                 0.0443
 IR Inten    --      0.6498                 0.6506                 0.2894

                     13                     14                     15
                      A                      A                      A
 Frequencies --    188.3881               208.2436               216.4863
 Red. masses --      3.4190                 1.7936                 2.3578
 Frc consts  --      0.0715                 0.0458                 0.0651
 IR Inten    --      0.0672                 1.7798                 0.9544

                     16                     17                     18
                      A                      A                      A
 Frequencies --    226.7392               247.3000               256.6499
 Red. masses --      2.5053                 1.1197                 2.2260
 Frc consts  --      0.0759                 0.0403                 0.0864
 IR Inten    --      3.4540                 0.0160                 1.5816

                     19                     20                     21
                      A                      A                      A
 Frequencies --    274.8763               282.6054               308.6993
 Red. masses --      2.1606                 2.6093                 1.5623
 Frc consts  --      0.0962                 0.1228                 0.0877
 IR Inten    --     14.6990                 1.5990                96.1827

                     22                     23                     24
                      A                      A                      A
 Frequencies --    329.3089               348.0514               383.7572
 Red. masses --      2.5809                 3.1609                 2.2990
 Frc consts  --      0.1649                 0.2256                 0.1995
 IR Inten    --      7.3941                 7.4299                 0.9089

                     25                     26                     27
                      A                      A                      A
 Frequencies --    409.0140               432.0483               438.7649
 Red. masses --      2.3908                 2.9790                 2.5318
 Frc consts  --      0.2356                 0.3276                 0.2872
 IR Inten    --      2.6411                 2.0479                 1.0483

                     28                     29                     30
                      A                      A                      A
 Frequencies --    468.0159               532.3220               545.7321
 Red. masses --      2.9446                 2.5350                 2.1649
 Frc consts  --      0.3800                 0.4232                 0.3799
 IR Inten    --      1.7531                 0.9445                 1.0090

                     31                     32                     33
                      A                      A                      A
 Frequencies --    557.2276               586.8631               641.1117
 Red. masses --      2.8345                 3.3999                 2.2266
 Frc consts  --      0.5185                 0.6899                 0.5392
 IR Inten    --      1.0075                 4.8187                11.5108

                     34                     35                     36
                      A                      A                      A
 Frequencies --    696.8761               730.2878               752.7488
 Red. masses --      2.0444                 1.4409                 1.6104
 Frc consts  --      0.5850                 0.4528                 0.5376
 IR Inten    --     67.0956                 1.0220                 1.2094

                     37                     38                     39
                      A                      A                      A
 Frequencies --    773.0342               794.8819               831.0253
 Red. masses --      1.5157                 1.7787                 1.7268
 Frc consts  --      0.5337                 0.6622                 0.7026
 IR Inten    --      2.2379                 2.6543                 3.5552

                     40                     41                     42
                      A                      A                      A
 Frequencies --    854.3129               867.4616               877.4416
 Red. masses --      2.3678                 1.4884                 2.3096
 Frc consts  --      1.0182                 0.6599                 1.0477
 IR Inten    --      7.7055                 0.9830                 3.5644

                     43                     44                     45
                      A                      A                      A
 Frequencies --    885.1026               891.6843               928.4864
 Red. masses --      3.0858                 2.6806                 1.9105
 Frc consts  --      1.4243                 1.2558                 0.9704
 IR Inten    --     41.7190                 6.4545                 7.2741

                     46                     47                     48
                      A                      A                      A
 Frequencies --    941.8170               958.1366               973.5247
 Red. masses --      2.4933                 1.8020                 2.2824
 Frc consts  --      1.3030                 0.9747                 1.2745
 IR Inten    --     10.1319                 2.1685                11.3517

                     49                     50                     51
                      A                      A                      A
 Frequencies --   1010.4363              1024.6415              1036.6378
 Red. masses --      2.2768                 2.0771                 2.0731
 Frc consts  --      1.3696                 1.2848                 1.3126
 IR Inten    --      1.3891                 8.8573                 5.9343

                     52                     53                     54
                      A                      A                      A
 Frequencies --   1046.4208              1057.7638              1067.6165
 Red. masses --      2.2595                 2.2554                 2.4446
 Frc consts  --      1.4577                 1.4868                 1.6417
 IR Inten    --     11.3443                 6.9355                 5.5836

                     55                     56                     57
                      A                      A                      A
 Frequencies --   1072.0128              1093.6077              1104.6302
 Red. masses --      1.9419                 2.4783                 2.5978
 Frc consts  --      1.3149                 1.7463                 1.8677
 IR Inten    --     12.6306                10.0423                24.6355

                     58                     59                     60
                      A                      A                      A
 Frequencies --   1110.0931              1120.4548              1123.4190
 Red. masses --      2.3474                 1.8222                 2.4879
 Frc consts  --      1.7043                 1.3479                 1.8500
 IR Inten    --      7.3927                 6.5439                17.5020

                     61                     62                     63
                      A                      A                      A
 Frequencies --   1136.8448              1140.3250              1159.0969
 Red. masses --      4.3452                 1.8876                 1.7207
 Frc consts  --      3.3088                 1.4462                 1.3621
 IR Inten    --    133.3983                13.7161                42.8548

                     64                     65                     66
                      A                      A                      A
 Frequencies --   1166.9986              1181.3450              1203.6394
 Red. masses --      1.8759                 1.3110                 1.2563
 Frc consts  --      1.5052                 1.0780                 1.0724
 IR Inten    --     16.1177                 4.4473                 1.5816

                     67                     68                     69
                      A                      A                      A
 Frequencies --   1214.8505              1224.1246              1228.1167
 Red. masses --      1.5322                 1.3896                 1.4814
 Frc consts  --      1.3323                 1.2269                 1.3165
 IR Inten    --      2.0829                10.3159                11.0970

                     70                     71                     72
                      A                      A                      A
 Frequencies --   1251.9220              1268.9903              1275.8885
 Red. masses --      1.3055                 1.2613                 1.2091
 Frc consts  --      1.2055                 1.1967                 1.1597
 IR Inten    --      0.6986                 6.8361                 5.7443

                     73                     74                     75
                      A                      A                      A
 Frequencies --   1292.2721              1298.6594              1308.9543
 Red. masses --      1.2911                 1.2150                 1.1982
 Frc consts  --      1.2704                 1.2073                 1.2095
 IR Inten    --     23.1370                 1.9707                 6.6069

                     76                     77                     78
                      A                      A                      A
 Frequencies --   1316.0920              1321.6095              1334.7471
 Red. masses --      1.2180                 1.2356                 1.1964
 Frc consts  --      1.2430                 1.2716                 1.2558
 IR Inten    --      1.6632                 0.8824                 2.6318

                     79                     80                     81
                      A                      A                      A
 Frequencies --   1341.7747              1357.0923              1358.0451
 Red. masses --      1.2523                 1.3081                 1.3127
 Frc consts  --      1.3283                 1.4195                 1.4264
 IR Inten    --      2.2244                 1.5496                 2.3869

                     82                     83                     84
                      A                      A                      A
 Frequencies --   1366.3306              1371.7125              1373.9620
 Red. masses --      1.2558                 1.2819                 1.2936
 Frc consts  --      1.3813                 1.4211                 1.4388
 IR Inten    --      7.7982                 5.1718                16.2802

                     85                     86                     87
                      A                      A                      A
 Frequencies --   1388.3369              1389.8861              1400.5226
 Red. masses --      1.3611                 1.3978                 1.4063
 Frc consts  --      1.5457                 1.5909                 1.6252
 IR Inten    --      3.7024                 5.8237                 2.5750

                     88                     89                     90
                      A                      A                      A
 Frequencies --   1408.1143              1410.9789              1411.8342
 Red. masses --      1.3560                 1.2971                 1.4108
 Frc consts  --      1.5841                 1.5215                 1.6568
 IR Inten    --      5.8114                 0.0669                25.6362

                     91                     92                     93
                      A                      A                      A
 Frequencies --   1415.0308              1422.4835              1475.1475
 Red. masses --      1.3460                 1.4286                 1.1067
 Frc consts  --      1.5879                 1.7031                 1.4189
 IR Inten    --      1.5962                 6.6086                 3.4630

                     94                     95                     96
                      A                      A                      A
 Frequencies --   1477.4860              1481.2410              1483.3257
 Red. masses --      1.0994                 1.1049                 1.0865
 Frc consts  --      1.4140                 1.4284                 1.4085
 IR Inten    --      1.7746                 2.1192                 1.3363

                     97                     98                     99
                      A                      A                      A
 Frequencies --   1486.4838              1490.5267              1492.7154
 Red. masses --      1.1154                 1.0916                 1.0843
 Frc consts  --      1.4522                 1.4289                 1.4235
 IR Inten    --      1.0754                 7.5957                 0.5317

                    100                    101                    102
                      A                      A                      A
 Frequencies --   1493.2391              1496.3644              1499.7926
 Red. masses --      1.0637                 1.0784                 1.0409
 Frc consts  --      1.3974                 1.4226                 1.3795
 IR Inten    --      0.3526                 8.7983                 5.8328

                    103                    104                    105
                      A                      A                      A
 Frequencies --   1503.7482              1510.7382              1511.3856
 Red. masses --      1.0810                 1.0784                 1.0644
 Frc consts  --      1.4402                 1.4501                 1.4326
 IR Inten    --      8.9076                 2.5198                 5.6554

                    106                    107                    108
                      A                      A                      A
 Frequencies --   1514.3887              1517.8771              1545.0227
 Red. masses --      1.0883                 1.0823                 1.0806
 Frc consts  --      1.4705                 1.4691                 1.5198
 IR Inten    --      8.0603                10.0628                 3.9593

                    109                    110                    111
                      A                      A                      A
 Frequencies --   2905.6037              2957.0350              2973.0879
 Red. masses --      1.0724                 1.0808                 1.0400
 Frc consts  --      5.3345                 5.5679                 5.4162
 IR Inten    --     61.0527                37.9136                44.6063

                    112                    113                    114
                      A                      A                      A
 Frequencies --   2982.1145              2997.8491              2999.0256
 Red. masses --      1.0811                 1.0784                 1.0624
 Frc consts  --      5.6645                 5.7104                 5.6298
 IR Inten    --     12.0434                42.5544                13.2468

                    115                    116                    117
                      A                      A                      A
 Frequencies --   3011.5191              3016.3199              3021.8386
 Red. masses --      1.0608                 1.0657                 1.0869
 Frc consts  --      5.6685                 5.7128                 5.8476
 IR Inten    --     39.1867                25.9231                29.1486

                    118                    119                    120
                      A                      A                      A
 Frequencies --   3022.3325              3027.5484              3028.5432
 Red. masses --      1.0806                 1.0363                 1.0851
 Frc consts  --      5.8157                 5.5963                 5.8637
 IR Inten    --     30.5856                37.2488                 0.2922

                    121                    122                    123
                      A                      A                      A
 Frequencies --   3035.0070              3036.5372              3040.9450
 Red. masses --      1.0786                 1.0614                 1.0738
 Frc consts  --      5.8535                 5.7659                 5.8506
 IR Inten    --     36.3987                14.5569                19.4519

                    124                    125                    126
                      A                      A                      A
 Frequencies --   3046.8822              3057.9338              3062.6645
 Red. masses --      1.0920                 1.0991                 1.0847
 Frc consts  --      5.9728                 6.0552                 5.9947
 IR Inten    --     21.3918                59.0792                15.2883

                    127                    128                    129
                      A                      A                      A
 Frequencies --   3065.1753              3067.6875              3070.4193
 Red. masses --      1.0742                 1.0901                 1.0933
 Frc consts  --      5.9463                 6.0441                 6.0729
 IR Inten    --     33.0827                52.6370                18.6932

                    130                    131                    132
                      A                      A                      A
 Frequencies --   3085.2617              3089.1076              3094.8983
 Red. masses --      1.0993                 1.0944                 1.1021
 Frc consts  --      6.1651                 6.1533                 6.2196
 IR Inten    --     44.8031                33.0032                56.0597

                    133                    134                    135
                      A                      A                      A
 Frequencies --   3099.8257              3104.2195              3110.8687
 Red. masses --      1.1009                 1.0960                 1.0945
 Frc consts  --      6.2326                 6.2224                 6.2406
 IR Inten    --     42.5539                33.3597                40.4447

                    136                    137                    138
                      A                      A                      A
 Frequencies --   3376.8346              3528.3058              3798.1162
 Red. masses --      1.0738                 1.0749                 1.0678
 Frc consts  --      7.2146                 7.8839                 9.0757
 IR Inten    --     12.1319                 1.1216                34.8680

 - Thermochemistry -
 -------------------
 Temperature   298.150 Kelvin.  Pressure   1.00000 Atm.
 Atom     1 has atomic number  6 and mass  12.00000

 Molecular mass:   258.23073 amu.
 Principal axes and moments of inertia in atomic units:
                           1         2         3
     Eigenvalues --  3931.082389487.02709**********
           X            0.99969  -0.02501   0.00052
           Y            0.02501   0.99969  -0.00131
           Z           -0.00048   0.00133   1.00000
 This molecule is an asymmetric top.
 Rotational symmetry number  1.
 Warning -- assumption of classical behavior for rotation
           may cause significant error
 Rotational temperatures (Kelvin)      0.02203     0.00913     0.00703
 Rotational constants (GHZ):           0.45910     0.19023     0.14642
 Zero-point vibrational energy    1154412.7 (Joules/Mol)
                                  275.91126 (Kcal/Mol)
 Warning -- explicit consideration of  32 degrees of freedom as
           vibrations may cause significant error
 Vibrational temperatures:     30.99    51.57    60.26    74.34    88.12
          (Kelvin)            105.84   124.30   154.25   161.90   189.87
                              233.20   253.92   271.05   299.62   311.48
                              326.23   355.81   369.26   395.49   406.61
                              444.15   473.80   500.77   552.14   588.48
                              621.62   631.28   673.37   765.89   785.19
                              801.73   844.37   922.42  1002.65  1050.72
                             1083.04  1112.22  1143.66  1195.66  1229.17
                             1248.08  1262.44  1273.47  1282.93  1335.88
                             1355.06  1378.54  1400.68  1453.79  1474.23
                             1491.49  1505.57  1521.89  1536.06  1542.39
                             1573.46  1589.32  1597.18  1612.08  1616.35
                             1635.67  1640.67  1667.68  1679.05  1699.69
                             1731.77  1747.90  1761.24  1766.99  1801.24
                             1825.79  1835.72  1859.29  1868.48  1883.29
                             1893.56  1901.50  1920.40  1930.51  1952.55
                             1953.92  1965.85  1973.59  1976.82  1997.51
                             1999.74  2015.04  2025.96  2030.08  2031.31
                             2035.91  2046.64  2122.41  2125.77  2131.18
                             2134.17  2138.72  2144.54  2147.68  2148.44
                             2152.93  2157.87  2163.56  2173.62  2174.55
                             2178.87  2183.89  2222.94  4180.52  4254.51
                             4277.61  4290.60  4313.24  4314.93  4332.90
                             4339.81  4347.75  4348.46  4355.97  4357.40
                             4366.70  4368.90  4375.24  4383.78  4399.68
                             4406.49  4410.10  4413.72  4417.65  4439.00
                             4444.54  4452.87  4459.96  4466.28  4475.85
                             4858.51  5076.45  5464.64

 Zero-point correction=                           0.439693 (Hartree/Particle)
 Thermal correction to Energy=                    0.460983
 Thermal correction to Enthalpy=                  0.461927
 Thermal correction to Gibbs Free Energy=         0.388024
 Sum of electronic and zero-point Energies=           -811.024682
 Sum of electronic and thermal Energies=              -811.003392
 Sum of electronic and thermal Enthalpies=            -811.002447
 Sum of electronic and thermal Free Energies=         -811.076351

                     E (Thermal)             CV                S
                      KCal/Mol        Cal/Mol-Kelvin    Cal/Mol-Kelvin
 Total                  289.271             79.417            155.543
 Electronic               0.000              0.000              0.000
 Translational            0.889              2.981             42.546
 Rotational               0.889              2.981             34.485
 Vibrational            287.494             73.456             78.512
 Vibration     1          0.593              1.985              6.487
 Vibration     2          0.594              1.982              5.477
 Vibration     3          0.595              1.980              5.168
 Vibration     4          0.596              1.977              4.752
 Vibration     5          0.597              1.973              4.417
 Vibration     6          0.599              1.966              4.056
 Vibration     7          0.601              1.959              3.740
 Vibration     8          0.606              1.943              3.319
 Vibration     9          0.607              1.939              3.225
 Vibration    10          0.612              1.921              2.917
 Vibration    11          0.622              1.889              2.525
 Vibration    12          0.628              1.871              2.365
 Vibration    13          0.633              1.856              2.244
 Vibration    14          0.642              1.828              2.059
 Vibration    15          0.645              1.816              1.988
 Vibration    16          0.650              1.800              1.905
 Vibration    17          0.661              1.767              1.750
 Vibration    18          0.666              1.752              1.684
 Vibration    19          0.677              1.720              1.565
 Vibration    20          0.682              1.706              1.518
 Vibration    21          0.698              1.657              1.369
 Vibration    22          0.712              1.617              1.263
 Vibration    23          0.726              1.579              1.175
 Vibration    24          0.753              1.505              1.024
 Vibration    25          0.773              1.451              0.930
 Vibration    26          0.793              1.400              0.852
 Vibration    27          0.799              1.386              0.830
 Vibration    28          0.825              1.321              0.743
 Vibration    29          0.887              1.179              0.582
 Vibration    30          0.901              1.149              0.553
 Vibration    31          0.913              1.124              0.529
 Vibration    32          0.944              1.060              0.473

                           ! Non-Optimized Parameters !
 Normal termination of Gaussian 16 at Wed May 24 10:19:45 2023.
