 Gaussian 16, Revision A.03,
 Gaussian 16:  ES64L-G16RevA.03 25-Dec-2016

 -----------------------------
 # opt freq b3lyp/6-31g(2df,p)
 -----------------------------

 -------------------
 Title Card Required
 -------------------
 Symbolic Z-matrix:
 Charge =  0 Multiplicity = 1

 SCF Done:  E(RB3LYP) =  -589.718126424     A.U. after   12 cycles
 SCF Done:  E(RB3LYP) =  -589.725337329     A.U. after   10 cycles
 SCF Done:  E(RB3LYP) =  -589.726414508     A.U. after    9 cycles
 SCF Done:  E(RB3LYP) =  -589.726639488     A.U. after    9 cycles
 SCF Done:  E(RB3LYP) =  -589.726721104     A.U. after    9 cycles
 SCF Done:  E(RB3LYP) =  -589.726750835     A.U. after    8 cycles
 SCF Done:  E(RB3LYP) =  -589.726764268     A.U. after    8 cycles
 SCF Done:  E(RB3LYP) =  -589.726767715     A.U. after    7 cycles
 SCF Done:  E(RB3LYP) =  -589.726768554     A.U. after    6 cycles
 SCF Done:  E(RB3LYP) =  -589.726768859     A.U. after    6 cycles
 SCF Done:  E(RB3LYP) =  -589.726768928     A.U. after    5 cycles
 Optimization completed.
    -- Stationary point found.
 Normal termination of Gaussian 16 at Mon May 22 17:41:31 2023.

 ----------------------------------------------------------------------
 #N Geom=AllCheck Guess=TCheck SCRF=Check GenChk RB3LYP/6-31G(2df,p) Fr
 eq
 ----------------------------------------------------------------------

 Structure from the checkpoint file:  "CCCCCC1CCCCCqCCrCC1.chk"
 -------------------
 Title Card Required
 -------------------
 Charge =  0 Multiplicity = 1

                         Standard orientation:
 ---------------------------------------------------------------------
 Center     Atomic      Atomic             Coordinates (Angstroms)
 Number     Number       Type             X           Y           Z
 ---------------------------------------------------------------------
      1          6           0       -6.567304   -0.763485    0.366841
      2          6           0       -5.365935    0.116004    0.009662
      3          6           0       -4.027677   -0.625959    0.093653
      4          6           0       -2.819146    0.246012   -0.267124
      5          6           0       -1.487631   -0.510791   -0.175158
      6          6           0       -0.241657    0.253126   -0.678307
      7          6           0        0.031156    1.498436    0.184776
      8          6           0        1.135490    2.465929   -0.271490
      9          6           0        2.595284    1.963671   -0.291037
     10          6           0        3.037186    1.129157    0.935172
     11          6           0        3.061842   -0.411436    0.779503
     12          6           0        4.143409   -0.852340   -0.231161
     13          6           0        4.462952   -2.351380   -0.214852
     14          6           0        1.685368   -1.073407    0.527491
     15          6           0        0.962935   -0.715622   -0.796555
     16          1           0       -7.507144   -0.206585    0.297668
     17          1           0       -6.484499   -1.150829    1.388596
     18          1           0       -6.640933   -1.625228   -0.306090
     19          1           0       -5.338755    0.987900    0.676848
     20          1           0       -5.493841    0.516793   -1.004798
     21          1           0       -4.056494   -1.501254   -0.570628
     22          1           0       -3.898089   -1.024850    1.109784
     23          1           0       -2.808883    1.122885    0.391873
     24          1           0       -2.945434    0.634406   -1.287936
     25          1           0       -1.579529   -1.434936   -0.761800
     26          1           0       -1.327030   -0.832038    0.864015
     27          1           0       -0.469458    0.599061   -1.698286
     28          1           0        0.228508    1.182002    1.216842
     29          1           0       -0.892976    2.084178    0.239381
     30          1           0        1.089411    3.332526    0.401516
     31          1           0        0.885918    2.853544   -1.268384
     32          1           0        3.233833    2.852071   -0.359661
     33          1           0        2.791826    1.407042   -1.211272
     34          1           0        2.411288    1.390806    1.797855
     35          1           0        4.054051    1.431211    1.214055
     36          1           0        3.392823   -0.793558    1.757233
     37          1           0        5.062166   -0.295200   -0.006454
     38          1           0        3.863217   -0.558982   -1.250035
     39          1           0        4.736634   -2.687482    0.791978
     40          1           0        5.303384   -2.577434   -0.878945
     41          1           0        3.614937   -2.958293   -0.546651
     42          1           0        1.033735   -0.847363    1.379518
     43          1           0        1.831160   -2.157699    0.568616
     44          1           0        0.590982   -1.637416   -1.259105
     45          1           0        1.681564   -0.312761   -1.514212
 ---------------------------------------------------------------------

 SCF Done:  E(RB3LYP) =  -589.726768928     A.U. after    1 cycles

 The electronic state is 1-A.
 Alpha  occ. eigenvalues --  -10.17739 -10.17643 -10.17401 -10.17180 -10.17178
 Alpha  occ. eigenvalues --  -10.17163 -10.17100 -10.17015 -10.16994 -10.16913
 Alpha  occ. eigenvalues --  -10.16913 -10.16843 -10.16823 -10.16809 -10.16790
 Alpha  occ. eigenvalues --   -0.82413  -0.80117  -0.78312  -0.76656  -0.73719
 Alpha  occ. eigenvalues --   -0.72684  -0.68351  -0.67051  -0.64321  -0.61385
 Alpha  occ. eigenvalues --   -0.59326  -0.57119  -0.56635  -0.55236  -0.51031
 Alpha  occ. eigenvalues --   -0.47089  -0.47063  -0.46278  -0.44664  -0.43460
 Alpha  occ. eigenvalues --   -0.42652  -0.41924  -0.41584  -0.40966  -0.40359
 Alpha  occ. eigenvalues --   -0.39313  -0.38719  -0.37902  -0.36658  -0.36459
 Alpha  occ. eigenvalues --   -0.35558  -0.34604  -0.34263  -0.33319  -0.33033
 Alpha  occ. eigenvalues --   -0.32760  -0.32394  -0.31845  -0.31545  -0.31420
 Alpha  occ. eigenvalues --   -0.30750  -0.30087  -0.28756  -0.28401  -0.27815
 Alpha virt. eigenvalues --    0.07598   0.08532   0.09402   0.10478   0.10827
 Alpha virt. eigenvalues --    0.11533   0.12255   0.12326   0.12923   0.14322
 Alpha virt. eigenvalues --    0.14555   0.14896   0.15531   0.16191   0.16508

 Mulliken charges:
               1
     1  C   -0.378871
     2  C   -0.163914
     3  C   -0.158905
     4  C   -0.189271
     5  C   -0.182519
     6  C    0.012982
     7  C   -0.181356
     8  C   -0.205463
     9  C   -0.183453
    10  C   -0.214686
    11  C    0.030055
    12  C   -0.159895
    13  C   -0.390647
    14  C   -0.207722
    15  C   -0.207911
    16  H    0.109219
    17  H    0.112201
    18  H    0.112272
    19  H    0.092579
    20  H    0.092635
    21  H    0.089429
    22  H    0.089788
    23  H    0.096141
    24  H    0.088930
    25  H    0.085092
    26  H    0.090507
    27  H    0.060188
    28  H    0.091567
    29  H    0.091521
    30  H    0.090632
    31  H    0.088188
    32  H    0.087192
    33  H    0.096666
    34  H    0.087733
    35  H    0.087148
    36  H    0.063439
    37  H    0.088304
    38  H    0.096367
    39  H    0.111228
    40  H    0.109036
    41  H    0.118157
    42  H    0.091061
    43  H    0.091988
    44  H    0.083006
    45  H    0.089362
 Sum of Mulliken charges =  -0.00000

 Dipole moment (field-independent basis, Debye):
    X=              0.0568    Y=              0.0766    Z=              0.0054  Tot=              0.0955
 Quadrupole moment (field-independent basis, Debye-Ang):
   XX=           -100.4093   YY=           -100.1546   ZZ=            -98.5804
   XY=             -0.0891   XZ=              0.3307   YZ=              0.3604

  Exact polarizability: 197.896  -1.839 156.270   0.808   0.227 134.506
 Approx polarizability: 226.410  -0.370 222.093   0.451   0.535 221.275

                      1                      2                      3
                      A                      A                      A
 Frequencies --     33.6289                39.8793                50.3207
 Red. masses --      3.1308                 1.6332                 3.1360
 Frc consts  --      0.0021                 0.0015                 0.0047
 IR Inten    --      0.0002                 0.0045                 0.0032

                      4                      5                      6
                      A                      A                      A
 Frequencies --     63.7759                90.4990               118.9658
 Red. masses --      2.5300                 2.6022                 2.5004
 Frc consts  --      0.0061                 0.0126                 0.0208
 IR Inten    --      0.0041                 0.0091                 0.0070

                      7                      8                      9
                      A                      A                      A
 Frequencies --    130.0213               139.1504               145.2900
 Red. masses --      1.8121                 2.2689                 1.9582
 Frc consts  --      0.0180                 0.0259                 0.0244
 IR Inten    --      0.0087                 0.0398                 0.0037

                     10                     11                     12
                      A                      A                      A
 Frequencies --    179.1750               211.7319               235.0151
 Red. masses --      3.5619                 2.2769                 2.3395
 Frc consts  --      0.0674                 0.0601                 0.0761
 IR Inten    --      0.0107                 0.0303                 0.0174

                     13                     14                     15
                      A                      A                      A
 Frequencies --    243.6807               247.3587               258.4098
 Red. masses --      1.5278                 1.1212                 2.2163
 Frc consts  --      0.0535                 0.0404                 0.0872
 IR Inten    --      0.0533                 0.0015                 0.2347

                     16                     17                     18
                      A                      A                      A
 Frequencies --    288.6707               307.7145               331.3412
 Red. masses --      2.6424                 2.3272                 2.6883
 Frc consts  --      0.1297                 0.1298                 0.1739
 IR Inten    --      0.0421                 0.1119                 0.0768

                     19                     20                     21
                      A                      A                      A
 Frequencies --    370.1520               389.5203               422.8228
 Red. masses --      2.5920                 1.7889                 2.1822
 Frc consts  --      0.2092                 0.1599                 0.2299
 IR Inten    --      0.0056                 0.1254                 0.4302

                     22                     23                     24
                      A                      A                      A
 Frequencies --    442.2363               466.1640               540.7069
 Red. masses --      2.2313                 2.4267                 2.1511
 Frc consts  --      0.2571                 0.3107                 0.3705
 IR Inten    --      0.0410                 0.1842                 0.1156

                     25                     26                     27
                      A                      A                      A
 Frequencies --    553.1315               616.4390               705.3435
 Red. masses --      2.3305                 2.1368                 2.3183
 Frc consts  --      0.4201                 0.4784                 0.6795
 IR Inten    --      2.3110                 1.5990                 0.9900

                     28                     29                     30
                      A                      A                      A
 Frequencies --    729.5462               741.5530               766.4240
 Red. masses --      1.1688                 1.3635                 1.3091
 Frc consts  --      0.3665                 0.4418                 0.4531
 IR Inten    --      2.5665                 1.0324                 0.4035

                     31                     32                     33
                      A                      A                      A
 Frequencies --    789.1345               798.7670               829.9174
 Red. masses --      1.5255                 2.1440                 1.8680
 Frc consts  --      0.5597                 0.8059                 0.7581
 IR Inten    --      3.3565                 1.3181                 0.9465

                     34                     35                     36
                      A                      A                      A
 Frequencies --    836.9185               851.1501               885.0707
 Red. masses --      1.6950                 1.4566                 2.0700
 Frc consts  --      0.6995                 0.6217                 0.9554
 IR Inten    --      0.4501                 2.9545                 1.9336

                     37                     38                     39
                      A                      A                      A
 Frequencies --    897.1438               914.0200               938.4500
 Red. masses --      1.9603                 1.7492                 1.5944
 Frc consts  --      0.9296                 0.8610                 0.8273
 IR Inten    --      0.6698                 0.6764                 0.8376

                     40                     41                     42
                      A                      A                      A
 Frequencies --    955.3994               975.5413               984.8666
 Red. masses --      1.7682                 2.0187                 1.5279
 Frc consts  --      0.9509                 1.1319                 0.8732
 IR Inten    --      0.5600                 0.6848                 1.5979

                     43                     44                     45
                      A                      A                      A
 Frequencies --   1012.2489              1018.7448              1033.2644
 Red. masses --      3.3001                 2.6816                 1.4614
 Frc consts  --      1.9923                 1.6397                 0.9193
 IR Inten    --      0.5300                 2.0477                 0.6732

                     46                     47                     48
                      A                      A                      A
 Frequencies --   1045.8208              1056.2212              1063.1910
 Red. masses --      1.8562                 2.4237                 2.3773
 Frc consts  --      1.1962                 1.5931                 1.5833
 IR Inten    --      0.7039                 3.0685                 0.5357

                     49                     50                     51
                      A                      A                      A
 Frequencies --   1069.5783              1094.3879              1097.0624
 Red. masses --      2.3137                 1.5928                 1.9173
 Frc consts  --      1.5595                 1.1240                 1.3596
 IR Inten    --      0.3166                 1.1803                 2.2662

                     52                     53                     54
                      A                      A                      A
 Frequencies --   1101.2319              1119.3671              1123.3509
 Red. masses --      1.9558                 1.9739                 1.6832
 Frc consts  --      1.3974                 1.4572                 1.2515
 IR Inten    --      2.4452                 0.1106                 0.3421

                     55                     56                     57
                      A                      A                      A
 Frequencies --   1141.6017              1174.8194              1200.8524
 Red. masses --      2.2104                 2.2310                 1.2579
 Frc consts  --      1.6972                 1.8142                 1.0687
 IR Inten    --      1.5536                 0.2748                 0.5437

                     58                     59                     60
                      A                      A                      A
 Frequencies --   1212.8268              1229.9269              1249.9804
 Red. masses --      1.3846                 1.4760                 1.2695
 Frc consts  --      1.1999                 1.3155                 1.1687
 IR Inten    --      0.6766                 0.8671                 0.2985

                     61                     62                     63
                      A                      A                      A
 Frequencies --   1257.1295              1268.1139              1278.3058
 Red. masses --      1.2109                 1.2792                 1.1616
 Frc consts  --      1.1275                 1.2120                 1.1183
 IR Inten    --      0.3791                 4.2036                 1.7398

                     64                     65                     66
                      A                      A                      A
 Frequencies --   1293.8414              1296.1649              1307.5165
 Red. masses --      1.2969                 1.2435                 1.2878
 Frc consts  --      1.2792                 1.2309                 1.2972
 IR Inten    --      0.6399                 0.7415                 1.8655

                     67                     68                     69
                      A                      A                      A
 Frequencies --   1318.8952              1329.1815              1332.4247
 Red. masses --      1.2574                 1.1017                 1.1587
 Frc consts  --      1.2887                 1.1468                 1.2120
 IR Inten    --      1.6602                 0.4471                 1.0367

                     70                     71                     72
                      A                      A                      A
 Frequencies --   1334.5485              1349.8000              1357.3186
 Red. masses --      1.1566                 1.3204                 1.3122
 Frc consts  --      1.2137                 1.4174                 1.4243
 IR Inten    --      0.8748                 1.9962                 2.2890

                     73                     74                     75
                      A                      A                      A
 Frequencies --   1361.9097              1369.1506              1382.3285
 Red. masses --      1.3202                 1.3530                 1.3599
 Frc consts  --      1.4428                 1.4944                 1.5311
 IR Inten    --      3.9565                 9.0022                 0.5732

                     76                     77                     78
                      A                      A                      A
 Frequencies --   1385.9717              1389.6013              1395.2687
 Red. masses --      1.4098                 1.3882                 1.4601
 Frc consts  --      1.5956                 1.5794                 1.6747
 IR Inten    --      1.0075                 4.5920                 3.0995

                     79                     80                     81
                      A                      A                      A
 Frequencies --   1399.0773              1404.0441              1408.4104
 Red. masses --      1.5247                 1.3869                 1.3751
 Frc consts  --      1.7585                 1.6108                 1.6071
 IR Inten    --      1.4186                 0.6359                 2.4636

                     82                     83                     84
                      A                      A                      A
 Frequencies --   1411.9864              1413.2029              1415.3086
 Red. masses --      1.3693                 1.2561                 1.3106
 Frc consts  --      1.6085                 1.4780                 1.5468
 IR Inten    --      1.1921                 0.9582                 0.7997

                     85                     86                     87
                      A                      A                      A
 Frequencies --   1477.2719              1482.0458              1482.9660
 Red. masses --      1.0787                 1.0799                 1.0812
 Frc consts  --      1.3870                 1.3975                 1.4009
 IR Inten    --      0.9203                 1.2024                 0.3746

                     88                     89                     90
                      A                      A                      A
 Frequencies --   1483.7894              1485.3501              1489.6180
 Red. masses --      1.0714                 1.0759                 1.0695
 Frc consts  --      1.3898                 1.3986                 1.3982
 IR Inten    --      1.6724                 0.8305                 1.3103

                     91                     92                     93
                      A                      A                      A
 Frequencies --   1490.9493              1491.5019              1499.7822
 Red. masses --      1.0823                 1.0777                 1.0403
 Frc consts  --      1.4175                 1.4125                 1.3787
 IR Inten    --      1.1208                 5.2810                 4.6376

                     94                     95                     96
                      A                      A                      A
 Frequencies --   1500.6700              1503.3320              1505.1878
 Red. masses --      1.0569                 1.0753                 1.0742
 Frc consts  --      1.4024                 1.4319                 1.4339
 IR Inten    --      8.2390                 0.5656                 7.7110

                     97                     98                     99
                      A                      A                      A
 Frequencies --   1513.7690              1515.2584              1517.6071
 Red. masses --      1.0866                 1.0740                 1.0809
 Frc consts  --      1.4671                 1.4529                 1.4667
 IR Inten    --      1.4966                 1.5245                11.7544

                    100                    101                    102
                      A                      A                      A
 Frequencies --   2978.2923              2979.9606              2997.7846
 Red. masses --      1.0812                 1.0813                 1.0586
 Frc consts  --      5.6504                 5.6576                 5.6053
 IR Inten    --     18.3234                20.2156                 1.6268

                    103                    104                    105
                      A                      A                      A
 Frequencies --   2999.6830              3004.9682              3007.3757
 Red. masses --      1.0593                 1.0614                 1.0624
 Frc consts  --      5.6157                 5.6468                 5.6613
 IR Inten    --      4.0690                29.4983                10.7761

                    106                    107                    108
                      A                      A                      A
 Frequencies --   3015.2651              3015.8396              3020.1678
 Red. masses --      1.0632                 1.0638                 1.0619
 Frc consts  --      5.6955                 5.7009                 5.7068
 IR Inten    --     72.9768                25.7111                20.5786

                    109                    110                    111
                      A                      A                      A
 Frequencies --   3022.9295              3024.2753              3025.9380
 Red. masses --      1.0805                 1.0848                 1.0780
 Frc consts  --      5.8172                 5.8460                 5.8153
 IR Inten    --     11.3817                 0.5812                10.6078

                    112                    113                    114
                      A                      A                      A
 Frequencies --   3027.6079              3029.7508              3032.4490
 Red. masses --      1.0358                 1.0431                 1.0859
 Frc consts  --      5.5941                 5.6416                 5.8832
 IR Inten    --     42.6328                20.1045                26.8196

                    115                    116                    117
                      A                      A                      A
 Frequencies --   3034.4035              3038.8648              3043.8849
 Red. masses --      1.0745                 1.0862                 1.0767
 Frc consts  --      5.8293                 5.9098                 5.8775
 IR Inten    --     37.9662                 8.6347                22.3409

                    118                    119                    120
                      A                      A                      A
 Frequencies --   3046.7030              3050.6930              3053.6816
 Red. masses --      1.0956                 1.0949                 1.0974
 Frc consts  --      5.9920                 6.0039                 6.0290
 IR Inten    --      2.7006                32.8975                71.5612

                    121                    122                    123
                      A                      A                      A
 Frequencies --   3061.3478              3067.5332              3069.1051
 Red. masses --      1.1004                 1.0985                 1.0982
 Frc consts  --      6.0760                 6.0901                 6.0945
 IR Inten    --    101.7246               106.5557                 1.8033

                    124                    125                    126
                      A                      A                      A
 Frequencies --   3076.9774              3093.7388              3093.7799
 Red. masses --      1.0943                 1.1020                 1.0964
 Frc consts  --      6.1043                 6.2143                 6.1827
 IR Inten    --     51.0092                59.7105                 2.9707

                    127                    128                    129
                      A                      A                      A
 Frequencies --   3097.0585              3098.9345              3103.5936
 Red. masses --      1.0926                 1.1009                 1.1006
 Frc consts  --      6.1746                 6.2293                 6.2459
 IR Inten    --     89.7953                40.0555                45.5110

 - Thermochemistry -
 -------------------
 Temperature   298.150 Kelvin.  Pressure   1.00000 Atm.
 Atom     1 has atomic number  6 and mass  12.00000

 Molecular mass:   210.23475 amu.
 Principal axes and moments of inertia in atomic units:
                           1         2         3
     Eigenvalues --  1550.098828884.936799905.18198
           X            1.00000  -0.00145  -0.00182
           Y            0.00145   1.00000   0.00019
           Z            0.00182  -0.00019   1.00000
 This molecule is an asymmetric top.
 Rotational symmetry number  1.
 Warning -- assumption of classical behavior for rotation
           may cause significant error
 Rotational temperatures (Kelvin)      0.05588     0.00975     0.00874
 Rotational constants (GHZ):           1.16427     0.20312     0.18220
 Zero-point vibrational energy    1116538.8 (Joules/Mol)
                                  266.85918 (Kcal/Mol)
 Warning -- explicit consideration of  26 degrees of freedom as
           vibrations may cause significant error
 Vibrational temperatures:     48.38    57.38    72.40    91.76   130.21
          (Kelvin)            171.17   187.07   200.21   209.04   257.79
                              304.63   338.13   350.60   355.89   371.79
                              415.33   442.73   476.73   532.57   560.43
                              608.35   636.28   670.71   777.96   795.83
                              886.92  1014.83  1049.65  1066.93  1102.71
                             1135.39  1149.25  1194.07  1204.14  1224.62
                             1273.42  1290.79  1315.07  1350.22  1374.61
                             1403.59  1417.00  1456.40  1465.75  1486.64
                             1504.70  1519.67  1529.69  1538.88  1574.58
                             1578.43  1584.43  1610.52  1616.25  1642.51
                             1690.30  1727.76  1744.99  1769.59  1798.44
                             1808.73  1824.53  1839.20  1861.55  1864.89
                             1881.22  1897.60  1912.40  1917.06  1920.12
                             1942.06  1952.88  1959.48  1969.90  1988.86
                             1994.10  1999.33  2007.48  2012.96  2020.11
                             2026.39  2031.53  2033.28  2036.31  2125.46
                             2132.33  2133.66  2134.84  2137.09  2143.23
                             2145.14  2145.94  2157.85  2159.13  2162.96
                             2165.63  2177.98  2180.12  2183.50  4285.10
                             4287.50  4313.14  4315.87  4323.48  4326.94
                             4338.29  4339.12  4345.35  4349.32  4351.26
                             4353.65  4356.05  4359.14  4363.02  4365.83
                             4372.25  4379.47  4383.53  4389.27  4393.57
                             4404.60  4413.50  4415.76  4427.08  4451.20
                             4451.26  4455.98  4458.68  4465.38

 Zero-point correction=                           0.425267 (Hartree/Particle)
 Thermal correction to Energy=                    0.443078
 Thermal correction to Enthalpy=                  0.444022
 Thermal correction to Gibbs Free Energy=         0.379045
 Sum of electronic and zero-point Energies=           -589.301502
 Sum of electronic and thermal Energies=              -589.283691
 Sum of electronic and thermal Enthalpies=            -589.282747
 Sum of electronic and thermal Free Energies=         -589.347724

                     E (Thermal)             CV                S
                      KCal/Mol        Cal/Mol-Kelvin    Cal/Mol-Kelvin
 Total                  278.035             68.104            136.756
 Electronic               0.000              0.000              0.000
 Translational            0.889              2.981             41.933
 Rotational               0.889              2.981             33.278
 Vibrational            276.258             62.142             61.545
 Vibration     1          0.594              1.983              5.603
 Vibration     2          0.594              1.981              5.265
 Vibration     3          0.595              1.977              4.805
 Vibration     4          0.597              1.972              4.337
 Vibration     5          0.602              1.956              3.649
 Vibration     6          0.609              1.934              3.117
 Vibration     7          0.612              1.923              2.946
 Vibration     8          0.615              1.914              2.816
 Vibration     9          0.617              1.908              2.733
 Vibration    10          0.629              1.868              2.337
 Vibration    11          0.643              1.823              2.029
 Vibration    12          0.655              1.787              1.840
 Vibration    13          0.659              1.773              1.776
 Vibration    14          0.661              1.767              1.749
 Vibration    15          0.667              1.749              1.672
 Vibration    16          0.685              1.695              1.482
 Vibration    17          0.698              1.659              1.375
 Vibration    18          0.714              1.613              1.254
 Vibration    19          0.742              1.534              1.079
 Vibration    20          0.757              1.493              1.002
 Vibration    21          0.785              1.421              0.882
 Vibration    22          0.802              1.378              0.820
 Vibration    23          0.824              1.325              0.748
 Vibration    24          0.896              1.160              0.564
 Vibration    25          0.909              1.133              0.538
 Vibration    26          0.976              0.997              0.422

 Optimization completed.
    -- Stationary point found.
 Normal termination of Gaussian 16 at Mon May 22 21:28:35 2023.
