 Gaussian 16, Revision A.03,
 Gaussian 16:  ES64L-G16RevA.03 25-Dec-2016

 -----------------------------
 # opt freq b3lyp/6-31g(2df,p)
 -----------------------------

 -------------------
 Title Card Required
 -------------------
 Symbolic Z-matrix:
 Charge =  0 Multiplicity = 1

 SCF Done:  E(RB3LYP) =  -313.174473594     A.U. after   12 cycles
 SCF Done:  E(RB3LYP) =  -313.199358044     A.U. after   11 cycles
 SCF Done:  E(RB3LYP) =  -313.214638082     A.U. after   11 cycles
 SCF Done:  E(RB3LYP) =  -313.218001291     A.U. after   10 cycles
 SCF Done:  E(RB3LYP) =  -313.218712627     A.U. after   10 cycles
 SCF Done:  E(RB3LYP) =  -313.218927220     A.U. after    9 cycles
 SCF Done:  E(RB3LYP) =  -313.219005753     A.U. after    9 cycles
 SCF Done:  E(RB3LYP) =  -313.219036161     A.U. after    9 cycles
 SCF Done:  E(RB3LYP) =  -313.219046568     A.U. after    8 cycles
 SCF Done:  E(RB3LYP) =  -313.219047987     A.U. after    6 cycles
 Optimization completed.
    -- Stationary point found.
 Normal termination of Gaussian 16 at Sun May 28 04:25:08 2023.

 ----------------------------------------------------------------------
 #N Geom=AllCheck Guess=TCheck SCRF=Check GenChk RB3LYP/6-31G(2df,p) Fr
 eq
 ----------------------------------------------------------------------

 Structure from the checkpoint file:  "CCCC1C2CC1C2.chk"
 -------------------
 Title Card Required
 -------------------
 Charge =  0 Multiplicity = 1

                         Standard orientation:
 ---------------------------------------------------------------------
 Center     Atomic      Atomic             Coordinates (Angstroms)
 Number     Number       Type             X           Y           Z
 ---------------------------------------------------------------------
      1          6           0        3.370801    0.121654    0.000015
      2          6           0        1.870604    0.437107    0.000023
      3          6           0        1.025655   -0.844588   -0.000026
      4          6           0       -0.507323   -0.815597    0.000064
      5          6           0       -1.410309    0.052582    0.940863
      6          6           0       -2.592206   -0.328122    0.000041
      7          6           0       -1.410322    0.052514   -0.940843
      8          6           0       -1.180796    1.272812   -0.000108
      9          1           0        3.970817    1.037018    0.002146
     10          1           0        3.653200   -0.460274   -0.884559
     11          1           0        3.652332   -0.463831    0.882547
     12          1           0        1.634384    1.047867   -0.879201
     13          1           0        1.634378    1.047898    0.879192
     14          1           0        1.327260   -1.444663    0.871344
     15          1           0        1.326987   -1.444372   -0.871680
     16          1           0       -0.825358   -1.866631    0.000103
     17          1           0       -1.417730    0.053320    2.032771
     18          1           0       -3.447970    0.352319    0.000077
     19          1           0       -2.909149   -1.374831    0.000110
     20          1           0       -1.417734    0.052722   -2.032746
     21          1           0       -1.974460    2.026273   -0.000119
     22          1           0       -0.203578    1.747009   -0.000168
 ---------------------------------------------------------------------

 SCF Done:  E(RB3LYP) =  -313.219047987     A.U. after    1 cycles

 The electronic state is 1-A.
 Alpha  occ. eigenvalues --  -10.19257 -10.19254 -10.18579 -10.17961 -10.17679
 Alpha  occ. eigenvalues --  -10.17637 -10.17553 -10.17026  -0.90168  -0.78209
 Alpha  occ. eigenvalues --   -0.70581  -0.65841  -0.62416  -0.61581  -0.58039
 Alpha  occ. eigenvalues --   -0.51522  -0.48796  -0.45688  -0.44352  -0.43803
 Alpha  occ. eigenvalues --   -0.39626  -0.38665  -0.36838  -0.35037  -0.33508
 Alpha  occ. eigenvalues --   -0.32516  -0.31645  -0.30452  -0.29734  -0.29166
 Alpha  occ. eigenvalues --   -0.28644
 Alpha virt. eigenvalues --    0.09271   0.11536   0.12102   0.12533   0.13941
 Alpha virt. eigenvalues --    0.14034   0.15094   0.15668   0.15878   0.17296
 Alpha virt. eigenvalues --    0.18051   0.18272   0.19027   0.19714   0.20733

 Mulliken charges:
               1
     1  C   -0.384800
     2  C   -0.171646
     3  C   -0.225570
     4  C    0.061479
     5  C   -0.058169
     6  C   -0.210438
     7  C   -0.058151
     8  C   -0.212984
     9  H    0.109404
    10  H    0.113176
    11  H    0.113155
    12  H    0.102727
    13  H    0.102729
    14  H    0.094909
    15  H    0.094913
    16  H    0.058781
    17  H    0.062371
    18  H    0.085308
    19  H    0.084739
    20  H    0.062367
    21  H    0.081234
    22  H    0.094464
 Sum of Mulliken charges =  -0.00000

 Dipole moment (field-independent basis, Debye):
    X=              0.2124    Y=             -0.0559    Z=             -0.0001  Tot=              0.2196
 Quadrupole moment (field-independent basis, Debye-Ang):
   XX=            -52.1914   YY=            -51.4369   ZZ=            -51.2095
   XY=              0.0584   XZ=             -0.0004   YZ=              0.0005

  Exact polarizability:  98.404  -0.736  78.524  -0.000   0.001  72.375
 Approx polarizability: 119.807  -1.196 117.877  -0.000   0.000 114.363

                      1                      2                      3
                      A                      A                      A
 Frequencies --     58.4697               131.5077               180.8887
 Red. masses --      2.4986                 1.6603                 3.1005
 Frc consts  --      0.0050                 0.0169                 0.0598
 IR Inten    --      0.0010                 0.0019                 0.0224

                      4                      5                      6
                      A                      A                      A
 Frequencies --    248.8617               291.8703               306.9618
 Red. masses --      1.1213                 2.2532                 3.0353
 Frc consts  --      0.0409                 0.1131                 0.1685
 IR Inten    --      0.0014                 0.1780                 0.2490

                      7                      8                      9
                      A                      A                      A
 Frequencies --    345.0727               562.9319               682.8832
 Red. masses --      3.0813                 1.9083                 2.9434
 Frc consts  --      0.2162                 0.3563                 0.8087
 IR Inten    --      0.5827                 0.9607                 0.8698

                     10                     11                     12
                      A                      A                      A
 Frequencies --    728.5252               765.4215               796.2327
 Red. masses --      1.4536                 2.1493                 2.9062
 Frc consts  --      0.4546                 0.7419                 1.0856
 IR Inten    --      1.5472                 0.4163                 0.9710

                     13                     14                     15
                      A                      A                      A
 Frequencies --    803.7554               846.3799               896.0741
 Red. masses --      2.1372                 1.8154                 2.2529
 Frc consts  --      0.8135                 0.7662                 1.0658
 IR Inten    --      0.0836                 1.7498                 0.0692

                     16                     17                     18
                      A                      A                      A
 Frequencies --    902.1724               903.5201               920.7271
 Red. masses --      1.4288                 2.5013                 1.7665
 Frc consts  --      0.6852                 1.2031                 0.8823
 IR Inten    --      0.3159                 0.2976                 1.1077

                     19                     20                     21
                      A                      A                      A
 Frequencies --   1009.0089              1022.1734              1029.5180
 Red. masses --      1.0136                 2.3971                 1.6603
 Frc consts  --      0.6080                 1.4756                 1.0368
 IR Inten    --      0.0690                 0.8019                 0.4100

                     22                     23                     24
                      A                      A                      A
 Frequencies --   1030.6586              1061.5951              1070.9826
 Red. masses --      1.0214                 1.1845                 1.9593
 Frc consts  --      0.6392                 0.7865                 1.3241
 IR Inten    --      0.3857                 0.8690                 0.8679

                     25                     26                     27
                      A                      A                      A
 Frequencies --   1114.7505              1126.3925              1130.8817
 Red. masses --      2.3388                 2.2296                 1.4055
 Frc consts  --      1.7124                 1.6667                 1.0591
 IR Inten    --      0.9924                 1.3334                 0.2153

                     28                     29                     30
                      A                      A                      A
 Frequencies --   1158.3251              1178.7389              1189.4501
 Red. masses --      1.4773                 2.4183                 1.4098
 Frc consts  --      1.1678                 1.9797                 1.1751
 IR Inten    --      1.3642                 2.0994                 0.0134

                     31                     32                     33
                      A                      A                      A
 Frequencies --   1220.7700              1242.9750              1245.3564
 Red. masses --      1.4284                 1.6645                 1.5705
 Frc consts  --      1.2542                 1.5151                 1.4351
 IR Inten    --      1.0081                 0.4009                11.6797

                     34                     35                     36
                      A                      A                      A
 Frequencies --   1280.6692              1295.5811              1319.4553
 Red. masses --      1.9749                 1.2986                 1.3743
 Frc consts  --      1.9084                 1.2843                 1.4097
 IR Inten    --      1.3501                 1.0152                 2.2407

                     37                     38                     39
                      A                      A                      A
 Frequencies --   1346.0031              1387.0676              1410.1220
 Red. masses --      1.1049                 1.5431                 1.2348
 Frc consts  --      1.1795                 1.7492                 1.4467
 IR Inten    --      0.6705                 1.6501                 0.3599

                     40                     41                     42
                      A                      A                      A
 Frequencies --   1447.2089              1476.1950              1492.5452
 Red. masses --      1.2550                 1.0814                 1.0576
 Frc consts  --      1.5487                 1.3884                 1.3881
 IR Inten    --     12.8021                 0.6254                 3.8056

                     43                     44                     45
                      A                      A                      A
 Frequencies --   1499.2961              1504.1720              1511.5946
 Red. masses --      1.0405                 1.0886                 1.0900
 Frc consts  --      1.3781                 1.4512                 1.4674
 IR Inten    --      5.1673                 1.5327                 1.5273

                     46                     47                     48
                      A                      A                      A
 Frequencies --   1547.4971              2987.6959              3011.8241
 Red. masses --      1.1385                 1.0627                 1.0795
 Frc consts  --      1.6064                 5.5892                 5.7692
 IR Inten    --      5.7631                10.3420                63.4118

                     49                     50                     51
                      A                      A                      A
 Frequencies --   3017.1405              3026.1588              3028.2534
 Red. masses --      1.0996                 1.0491                 1.0455
 Frc consts  --      5.8977                 5.6605                 5.6487
 IR Inten    --     15.8135                 6.9421                67.9666

                     52                     53                     54
                      A                      A                      A
 Frequencies --   3045.7273              3057.8258              3063.9072
 Red. masses --      1.0541                 1.0671                 1.1027
 Frc consts  --      5.7610                 5.8785                 6.0988
 IR Inten    --     54.8178                47.5591                 7.1126

                     55                     56                     57
                      A                      A                      A
 Frequencies --   3085.1746              3092.4212              3096.3725
 Red. masses --      1.0894                 1.0934                 1.1028
 Frc consts  --      6.1095                 6.1605                 6.2293
 IR Inten    --    117.8456                 9.7754                66.4695

                     58                     59                     60
                      A                      A                      A
 Frequencies --   3100.5961              3112.0978              3178.5014
 Red. masses --      1.1009                 1.1106                 1.0947
 Frc consts  --      6.2356                 6.3376                 6.5159
 IR Inten    --     33.5563                50.2749                26.4917

 - Thermochemistry -
 -------------------
 Temperature   298.150 Kelvin.  Pressure   1.00000 Atm.
 Atom     1 has atomic number  6 and mass  12.00000

 Molecular mass:   110.10955 amu.
 Principal axes and moments of inertia in atomic units:
                           1         2         3
     Eigenvalues --   338.327801621.629691715.43702
           X            1.00000   0.00046  -0.00000
           Y           -0.00046   1.00000   0.00002
           Z            0.00000  -0.00002   1.00000
 This molecule is an asymmetric top.
 Rotational symmetry number  1.
 Rotational temperatures (Kelvin)      0.25601     0.05341     0.05049
 Rotational constants (GHZ):           5.33430     1.11292     1.05206
 Zero-point vibrational energy     530094.8 (Joules/Mol)
                                  126.69571 (Kcal/Mol)
 Warning -- explicit consideration of   8 degrees of freedom as
           vibrations may cause significant error
 Vibrational temperatures:     84.12   189.21   260.26   358.06   419.94
          (Kelvin)            441.65   496.48   809.93   982.52  1048.19
                             1101.27  1145.60  1156.42  1217.75  1289.25
                             1298.02  1299.96  1324.72  1451.74  1470.68
                             1481.25  1482.89  1527.40  1540.91  1603.88
                             1620.63  1627.09  1666.57  1695.94  1711.35
                             1756.42  1788.36  1791.79  1842.60  1864.05
                             1898.40  1936.60  1995.68  2028.85  2082.21
                             2123.92  2147.44  2157.15  2164.17  2174.85
                             2226.50  4298.63  4333.34  4340.99  4353.97
                             4356.98  4382.12  4399.53  4408.28  4438.88
                             4449.30  4454.99  4461.07  4477.61  4573.15

 Zero-point correction=                           0.201902 (Hartree/Particle)
 Thermal correction to Energy=                    0.209895
 Thermal correction to Enthalpy=                  0.210839
 Thermal correction to Gibbs Free Energy=         0.169278
 Sum of electronic and zero-point Energies=           -313.017146
 Sum of electronic and thermal Energies=              -313.009153
 Sum of electronic and thermal Enthalpies=            -313.008209
 Sum of electronic and thermal Free Energies=         -313.049770

                     E (Thermal)             CV                S
                      KCal/Mol        Cal/Mol-Kelvin    Cal/Mol-Kelvin
 Total                  131.711             31.076             87.473
 Electronic               0.000              0.000              0.000
 Translational            0.889              2.981             40.005
 Rotational               0.889              2.981             28.333
 Vibrational            129.934             25.114             19.134
 Vibration     1          0.596              1.974              4.508
 Vibration     2          0.612              1.922              2.924
 Vibration     3          0.630              1.866              2.319
 Vibration     4          0.662              1.765              1.739
 Vibration     5          0.687              1.689              1.463
 Vibration     6          0.697              1.660              1.379
 Vibration     7          0.723              1.585              1.189
 Vibration     8          0.919              1.111              0.518

                           ! Non-Optimized Parameters !
 Normal termination of Gaussian 16 at Sun May 28 04:54:18 2023.
