 Gaussian 16, Revision A.03,
 Gaussian 16:  ES64L-G16RevA.03 25-Dec-2016

 -----------------------------
 # opt freq b3lyp/6-31g(2df,p)
 -----------------------------

 -------------------
 Title Card Required
 -------------------
 Symbolic Z-matrix:
 Charge =  0 Multiplicity = 1

 SCF Done:  E(RB3LYP) =  -566.458283545     A.U. after   12 cycles
 SCF Done:  E(RB3LYP) =  -566.462066294     A.U. after   10 cycles
 SCF Done:  E(RB3LYP) =  -566.462555600     A.U. after    9 cycles
 SCF Done:  E(RB3LYP) =  -566.462613207     A.U. after    9 cycles
 SCF Done:  E(RB3LYP) =  -566.462620127     A.U. after    8 cycles
 SCF Done:  E(RB3LYP) =  -566.462622318     A.U. after    8 cycles
 SCF Done:  E(RB3LYP) =  -566.462622835     A.U. after    7 cycles
 SCF Done:  E(RB3LYP) =  -566.462622954     A.U. after    6 cycles
 Optimization completed.
    -- Stationary point found.
 Normal termination of Gaussian 16 at Mon May 22 07:21:32 2023.

 ----------------------------------------------------------------------
 #N Geom=AllCheck Guess=TCheck SCRF=Check GenChk RB3LYP/6-31G(2df,p) Fr
 eq
 ----------------------------------------------------------------------

 Structure from the checkpoint file:  "CCCCCNCC1CCCCqCrC1.chk"
 -------------------
 Title Card Required
 -------------------
 Charge =  0 Multiplicity = 1

                         Standard orientation:
 ---------------------------------------------------------------------
 Center     Atomic      Atomic             Coordinates (Angstroms)
 Number     Number       Type             X           Y           Z
 ---------------------------------------------------------------------
      1          6           0       -6.990607    0.298855    0.085464
      2          6           0       -5.584355    0.746116   -0.322367
      3          6           0       -4.483925   -0.202312    0.165885
      4          6           0       -3.074984    0.238793   -0.241854
      5          6           0       -1.979465   -0.704541    0.254804
      6          7           0       -0.660600   -0.267352   -0.189960
      7          6           0        0.426472   -1.110251    0.295848
      8          6           0        1.796469   -0.688266   -0.250981
      9          6           0        2.871947   -1.719955    0.130147
     10          6           0        4.261805   -1.324109   -0.384481
     11          6           0        4.657753    0.078210    0.094224
     12          6           0        3.606991    1.131525   -0.291615
     13          6           0        3.993923    2.527984    0.204346
     14          6           0        2.216496    0.715504    0.220937
     15          1           0       -7.753597    0.995082   -0.276789
     16          1           0       -7.086306    0.237964    1.175425
     17          1           0       -7.224361   -0.691659   -0.320790
     18          1           0       -5.392223    1.754144    0.068806
     19          1           0       -5.528762    0.831193   -1.415678
     20          1           0       -4.676957   -1.211246   -0.225026
     21          1           0       -4.539583   -0.287695    1.260232
     22          1           0       -2.885033    1.249350    0.148982
     23          1           0       -3.003898    0.314480   -1.333814
     24          1           0       -2.153544   -1.711629   -0.148723
     25          1           0       -2.049148   -0.801131    1.356748
     26          1           0       -0.513462    0.686183    0.126129
     27          1           0        0.217131   -2.136352   -0.035107
     28          1           0        0.474641   -1.150521    1.403312
     29          1           0        1.712131   -0.665220   -1.346945
     30          1           0        2.592820   -2.707625   -0.256511
     31          1           0        2.905820   -1.814546    1.225548
     32          1           0        4.260335   -1.344539   -1.483094
     33          1           0        5.007297   -2.060162   -0.062243
     34          1           0        5.635915    0.358608   -0.315073
     35          1           0        4.770267    0.071812    1.188566
     36          1           0        3.557549    1.163114   -1.390859
     37          1           0        4.057242    2.552074    1.298969
     38          1           0        3.257468    3.279069   -0.101583
     39          1           0        4.968628    2.834563   -0.190366
     40          1           0        1.482481    1.463006   -0.104690
     41          1           0        2.220228    0.737832    1.322152
 ---------------------------------------------------------------------

 SCF Done:  E(RB3LYP) =  -566.462622954     A.U. after    1 cycles

 The electronic state is 1-A.
 Alpha  occ. eigenvalues --  -14.30228 -10.19546 -10.19347 -10.17941 -10.17550
 Alpha  occ. eigenvalues --  -10.17546 -10.17408 -10.17262 -10.17257 -10.17164
 Alpha  occ. eigenvalues --  -10.17147 -10.17104 -10.16936 -10.16787  -0.89497
 Alpha  occ. eigenvalues --   -0.82932  -0.79383  -0.76501  -0.74715  -0.72892
 Alpha  occ. eigenvalues --   -0.67219  -0.66806  -0.63499  -0.59359  -0.58515
 Alpha  occ. eigenvalues --   -0.57399  -0.56328  -0.54626  -0.48337  -0.46705
 Alpha  occ. eigenvalues --   -0.46329  -0.44673  -0.44194  -0.43207  -0.42971
 Alpha  occ. eigenvalues --   -0.41632  -0.40665  -0.40005  -0.39509  -0.37955
 Alpha  occ. eigenvalues --   -0.37780  -0.37113  -0.36085  -0.35273  -0.34893
 Alpha  occ. eigenvalues --   -0.33423  -0.33377  -0.32843  -0.32514  -0.32088
 Alpha  occ. eigenvalues --   -0.31714  -0.31423  -0.30839  -0.28952  -0.28519
 Alpha  occ. eigenvalues --   -0.21368
 Alpha virt. eigenvalues --    0.08300   0.09161   0.09767   0.10396   0.10663
 Alpha virt. eigenvalues --    0.11623   0.12114   0.12885   0.13446   0.14510
 Alpha virt. eigenvalues --    0.15766   0.16390   0.16460   0.16757   0.17108

 Mulliken charges:
               1
     1  C   -0.379469
     2  C   -0.162826
     3  C   -0.156490
     4  C   -0.196890
     5  C   -0.119522
     6  N   -0.309708
     7  C   -0.144504
     8  C    0.010118
     9  C   -0.188482
    10  C   -0.219386
    11  C   -0.175173
    12  C    0.038421
    13  C   -0.403862
    14  C   -0.189341
    15  H    0.109988
    16  H    0.112289
    17  H    0.112892
    18  H    0.092684
    19  H    0.094759
    20  H    0.092104
    21  H    0.090867
    22  H    0.085381
    23  H    0.104305
    24  H    0.097183
    25  H    0.069793
    26  H    0.210711
    27  H    0.092197
    28  H    0.067537
    29  H    0.075100
    30  H    0.087044
    31  H    0.088225
    32  H    0.091518
    33  H    0.087581
    34  H    0.085270
    35  H    0.086372
    36  H    0.068417
    37  H    0.109816
    38  H    0.107182
    39  H    0.108052
    40  H    0.086242
    41  H    0.083603
 Sum of Mulliken charges =  -0.00000

 Dipole moment (field-independent basis, Debye):
    X=              0.0688    Y=              0.1892    Z=              0.5524  Tot=              0.5879
 Quadrupole moment (field-independent basis, Debye-Ang):
   XX=            -91.3972   YY=            -91.3777   ZZ=            -92.4207
   XY=             -0.5923   XZ=             -0.4364   YZ=              0.4462

  Exact polarizability: 187.310   0.036 142.241  -0.770  -0.431 123.303
 Approx polarizability: 206.234   0.178 202.251   0.224  -0.365 200.989

                      1                      2                      3
                      A                      A                      A
 Frequencies --     28.7699                35.5396                44.8896
 Red. masses --      3.4834                 1.6714                 3.4084
 Frc consts  --      0.0017                 0.0012                 0.0040
 IR Inten    --      0.0327                 0.2337                 0.0488

                      4                      5                      6
                      A                      A                      A
 Frequencies --     76.3624               101.6651               112.1354
 Red. masses --      2.8979                 1.8346                 3.1117
 Frc consts  --      0.0100                 0.0112                 0.0231
 IR Inten    --      0.2950                 1.4577                 0.0205

                      7                      8                      9
                      A                      A                      A
 Frequencies --    131.5511               150.2206               161.0217
 Red. masses --      2.5162                 2.2292                 2.1617
 Frc consts  --      0.0257                 0.0296                 0.0330
 IR Inten    --      0.3496                 0.1361                 1.0859

                     10                     11                     12
                      A                      A                      A
 Frequencies --    181.1156               210.3750               231.0265
 Red. masses --      2.1667                 4.0099                 2.0211
 Frc consts  --      0.0419                 0.1046                 0.0636
 IR Inten    --      1.2143                 0.1025                 0.3346

                     13                     14                     15
                      A                      A                      A
 Frequencies --    235.8404               246.9814               274.0581
 Red. masses --      1.2538                 1.1183                 1.9031
 Frc consts  --      0.0411                 0.0402                 0.0842
 IR Inten    --      0.1875                 0.0132                 0.0188

                     16                     17                     18
                      A                      A                      A
 Frequencies --    318.4084               384.0145               389.5920
 Red. masses --      2.3774                 2.8493                 3.7375
 Frc consts  --      0.1420                 0.2476                 0.3342
 IR Inten    --      0.0314                 1.1841                 0.1611

                     19                     20                     21
                      A                      A                      A
 Frequencies --    413.7512               434.4533               445.4105
 Red. masses --      3.2972                 1.7470                 2.2341
 Frc consts  --      0.3326                 0.1943                 0.2611
 IR Inten    --      0.0402                 0.0816                 0.0961

                     22                     23                     24
                      A                      A                      A
 Frequencies --    490.6759               517.6574               571.2449
 Red. masses --      2.5832                 3.2152                 2.2266
 Frc consts  --      0.3664                 0.5076                 0.4281
 IR Inten    --      0.2068                 0.4887                 1.4295

                     25                     26                     27
                      A                      A                      A
 Frequencies --    735.3841               769.4271               780.1204
 Red. masses --      1.0684                 1.1121                 1.5328
 Frc consts  --      0.3404                 0.3879                 0.5496
 IR Inten    --      2.8147                 0.2971                24.9508

                     28                     29                     30
                      A                      A                      A
 Frequencies --    785.1700               845.4494               853.9726
 Red. masses --      1.5565                 1.9268                 1.4155
 Frc consts  --      0.5654                 0.8115                 0.6082
 IR Inten    --     32.3021                 1.3166                 0.6566

                     31                     32                     33
                      A                      A                      A
 Frequencies --    858.8504               868.3454               893.8426
 Red. masses --      1.3605                 1.5578                 2.1231
 Frc consts  --      0.5913                 0.6921                 0.9994
 IR Inten    --      1.0473                 0.7475                 1.3435

                     34                     35                     36
                      A                      A                      A
 Frequencies --    900.6655               946.2614               955.9566
 Red. masses --      1.8856                 1.6750                 1.6515
 Frc consts  --      0.9012                 0.8836                 0.8892
 IR Inten    --      2.5886                 2.6286                 5.3494

                     37                     38                     39
                      A                      A                      A
 Frequencies --    984.4560               987.4845               997.6628
 Red. masses --      1.3614                 1.6062                 1.4101
 Frc consts  --      0.7774                 0.9228                 0.8269
 IR Inten    --      0.7480                 1.1161                 3.0721

                     40                     41                     42
                      A                      A                      A
 Frequencies --   1007.5328              1032.9106              1051.6654
 Red. masses --      3.4169                 2.4269                 2.5554
 Frc consts  --      2.0436                 1.5255                 1.6652
 IR Inten    --      1.0141                 1.0985                 0.4901

                     43                     44                     45
                      A                      A                      A
 Frequencies --   1064.8713              1072.5334              1075.5305
 Red. masses --      2.5004                 2.1117                 1.7141
 Frc consts  --      1.6705                 1.4312                 1.1682
 IR Inten    --      0.6553                 1.8222                 0.4132

                     46                     47                     48
                      A                      A                      A
 Frequencies --   1094.0774              1108.0544              1124.9925
 Red. masses --      1.0744                 2.1789                 2.9756
 Frc consts  --      0.7577                 1.5762                 2.2188
 IR Inten    --      0.2225                 5.3631                 5.3665

                     49                     50                     51
                      A                      A                      A
 Frequencies --   1145.0648              1147.9487              1157.0949
 Red. masses --      2.3770                 1.6384                 3.2368
 Frc consts  --      1.8363                 1.2721                 2.5533
 IR Inten    --      1.8103                26.4084                43.2019

                     52                     53                     54
                      A                      A                      A
 Frequencies --   1181.4943              1203.8151              1227.8198
 Red. masses --      2.3157                 2.0454                 1.5095
 Frc consts  --      1.9046                 1.7465                 1.3408
 IR Inten    --      1.8533                 3.8469                 5.7147

                     55                     56                     57
                      A                      A                      A
 Frequencies --   1235.9508              1259.6700              1273.9745
 Red. masses --      1.3806                 1.3289                 1.3713
 Frc consts  --      1.2426                 1.2424                 1.3113
 IR Inten    --      0.4689                 3.0688                14.0641

                     58                     59                     60
                      A                      A                      A
 Frequencies --   1290.4423              1296.1769              1300.2421
 Red. masses --      1.3223                 1.2726                 1.2029
 Frc consts  --      1.2973                 1.2597                 1.1982
 IR Inten    --      2.6987                 1.4846                 0.5307

                     61                     62                     63
                      A                      A                      A
 Frequencies --   1314.5908              1319.0588              1323.3410
 Red. masses --      1.2391                 1.2274                 1.0750
 Frc consts  --      1.2616                 1.2582                 1.1092
 IR Inten    --      3.7750                 0.6395                 1.5682

                     64                     65                     66
                      A                      A                      A
 Frequencies --   1333.7647              1339.1941              1345.7447
 Red. masses --      1.1060                 1.2664                 1.3162
 Frc consts  --      1.1592                 1.3381                 1.4044
 IR Inten    --      0.3682                 2.0882                 1.7078

                     67                     68                     69
                      A                      A                      A
 Frequencies --   1374.5470              1377.8787              1381.1640
 Red. masses --      1.3543                 1.4054                 1.3980
 Frc consts  --      1.5075                 1.5721                 1.5713
 IR Inten    --      0.0671                 5.9700                10.0472

                     70                     71                     72
                      A                      A                      A
 Frequencies --   1386.1139              1389.2223              1398.5477
 Red. masses --      1.4564                 1.5307                 1.5582
 Frc consts  --      1.6486                 1.7406                 1.7957
 IR Inten    --     12.4868                 1.3867                 1.7192

                     73                     74                     75
                      A                      A                      A
 Frequencies --   1400.3578              1412.0890              1413.0749
 Red. masses --      1.6058                 1.2502                 1.2460
 Frc consts  --      1.8553                 1.4688                 1.4659
 IR Inten    --      0.3081                 0.8808                 1.0766

                     76                     77                     78
                      A                      A                      A
 Frequencies --   1427.7751              1478.7386              1483.4940
 Red. masses --      1.5154                 1.0914                 1.0960
 Frc consts  --      1.8201                 1.4061                 1.4211
 IR Inten    --      1.6365                 0.4595                 0.3305

                     79                     80                     81
                      A                      A                      A
 Frequencies --   1484.3521              1487.3818              1488.7715
 Red. masses --      1.0687                 1.0782                 1.0906
 Frc consts  --      1.3873                 1.4053                 1.4242
 IR Inten    --      0.8029                 1.0391                 6.2587

                     82                     83                     84
                      A                      A                      A
 Frequencies --   1493.8746              1497.2838              1498.8229
 Red. masses --      1.1921                 1.0546                 1.0745
 Frc consts  --      1.5674                 1.3929                 1.4222
 IR Inten    --     31.6049                 7.5460                16.7576

                     85                     86                     87
                      A                      A                      A
 Frequencies --   1499.8550              1500.6024              1501.6124
 Red. masses --      1.0405                 1.0646                 1.0901
 Frc consts  --      1.3791                 1.4124                 1.4482
 IR Inten    --      4.9509                 2.6657                 3.7597

                     88                     89                     90
                      A                      A                      A
 Frequencies --   1507.1446              1512.8124              1524.7682
 Red. masses --      1.0844                 1.0890                 1.0932
 Frc consts  --      1.4513                 1.4684                 1.4975
 IR Inten    --     10.8885                 2.5623                 0.9581

                     91                     92                     93
                      A                      A                      A
 Frequencies --   2890.9032              2901.6522              2981.0432
 Red. masses --      1.0724                 1.0730                 1.0751
 Frc consts  --      5.2807                 5.3228                 5.6288
 IR Inten    --     37.6889               102.7657                 2.7556

                     94                     95                     96
                      A                      A                      A
 Frequencies --   2988.2885              2997.8849              2998.3184
 Red. masses --      1.0697                 1.0691                 1.0643
 Frc consts  --      5.6282                 5.6612                 5.6374
 IR Inten    --     18.1063                 6.6231                 2.0537

                     97                     98                     99
                      A                      A                      A
 Frequencies --   3001.8926              3002.5925              3008.5216
 Red. masses --      1.0666                 1.0611                 1.0730
 Frc consts  --      5.6630                 5.6363                 5.7220
 IR Inten    --     22.7343                11.4541                18.9200

                    100                    101                    102
                      A                      A                      A
 Frequencies --   3012.5683              3014.8887              3021.5222
 Red. masses --      1.0641                 1.0628                 1.0833
 Frc consts  --      5.6900                 5.6918                 5.8268
 IR Inten    --     52.1300                29.9100                28.5988

                    103                    104                    105
                      A                      A                      A
 Frequencies --   3021.8868              3025.9852              3026.8365
 Red. masses --      1.0365                 1.0918                 1.0819
 Frc consts  --      5.5769                 5.8904                 5.8402
 IR Inten    --     39.2464                 5.2573                36.1015

                    106                    107                    108
                      A                      A                      A
 Frequencies --   3028.0270              3043.7848              3046.8716
 Red. masses --      1.0404                 1.0964                 1.1005
 Frc consts  --      5.6205                 5.9849                 6.0194
 IR Inten    --     55.8942                53.6219                 3.9370

                    109                    110                    111
                      A                      A                      A
 Frequencies --   3049.3524              3053.6827              3060.6124
 Red. masses --      1.0977                 1.0925                 1.1030
 Frc consts  --      6.0141                 6.0022                 6.0877
 IR Inten    --     48.3370                54.4715                68.4186

                    112                    113                    114
                      A                      A                      A
 Frequencies --   3065.2759              3087.3599              3093.2627
 Red. masses --      1.1017                 1.1005                 1.1014
 Frc consts  --      6.0990                 6.1802                 6.2089
 IR Inten    --     71.6000                47.6035                36.1731

                    115                    116                    117
                      A                      A                      A
 Frequencies --   3094.0635              3099.6030              3510.9953
 Red. masses --      1.1021                 1.1009                 1.0727
 Frc consts  --      6.2160                 6.2319                 7.7913
 IR Inten    --     60.7519                39.1536                 0.5086

 - Thermochemistry -
 -------------------
 Temperature   298.150 Kelvin.  Pressure   1.00000 Atm.
 Atom     1 has atomic number  6 and mass  12.00000

 Molecular mass:   197.21435 amu.
 Principal axes and moments of inertia in atomic units:
                           1         2         3
     Eigenvalues --  1035.17769********************
           X            1.00000   0.00145   0.00009
           Y           -0.00145   1.00000  -0.00140
           Z           -0.00009   0.00140   1.00000
 This molecule is an asymmetric top.
 Rotational symmetry number  1.
 Warning -- assumption of classical behavior for rotation
           may cause significant error
 Rotational temperatures (Kelvin)      0.08367     0.00834     0.00774
 Rotational constants (GHZ):           1.74341     0.17375     0.16135
 Zero-point vibrational energy    1009201.6 (Joules/Mol)
                                  241.20496 (Kcal/Mol)
 Warning -- explicit consideration of  24 degrees of freedom as
           vibrations may cause significant error
 Vibrational temperatures:     41.39    51.13    64.59   109.87   146.27
          (Kelvin)            161.34   189.27   216.13   231.67   260.58
                              302.68   332.40   339.32   355.35   394.31
                              458.12   552.51   560.54   595.30   625.08
                              640.85   705.97   744.79   821.89  1058.05
                             1107.03  1122.42  1129.68  1216.41  1228.68
                             1235.69  1249.36  1286.04  1295.86  1361.46
                             1375.41  1416.41  1420.77  1435.41  1449.62
                             1486.13  1513.11  1532.11  1543.14  1547.45
                             1574.13  1594.24  1618.61  1647.49  1651.64
                             1664.80  1699.91  1732.02  1766.56  1778.26
                             1812.38  1832.97  1856.66  1864.91  1870.76
                             1891.40  1897.83  1903.99  1918.99  1926.80
                             1936.23  1977.67  1982.46  1987.19  1994.31
                             1998.78  2012.20  2014.80  2031.68  2033.10
                             2054.25  2127.57  2134.42  2135.65  2140.01
                             2142.01  2149.35  2154.26  2156.47  2157.96
                             2159.03  2160.49  2168.44  2176.60  2193.80
                             4159.36  4174.83  4289.06  4299.48  4313.29
                             4313.91  4319.05  4320.06  4328.59  4334.41
                             4337.75  4347.30  4347.82  4353.72  4354.94
                             4356.66  4379.33  4383.77  4387.34  4393.57
                             4403.54  4410.25  4442.02  4450.52  4451.67
                             4459.64  5051.54

 Zero-point correction=                           0.384385 (Hartree/Particle)
 Thermal correction to Energy=                    0.401145
 Thermal correction to Enthalpy=                  0.402089
 Thermal correction to Gibbs Free Energy=         0.338804
 Sum of electronic and zero-point Energies=           -566.078238
 Sum of electronic and thermal Energies=              -566.061478
 Sum of electronic and thermal Enthalpies=            -566.060534
 Sum of electronic and thermal Free Energies=         -566.123819

                     E (Thermal)             CV                S
                      KCal/Mol        Cal/Mol-Kelvin    Cal/Mol-Kelvin
 Total                  251.722             62.770            133.195
 Electronic               0.000              0.000              0.000
 Translational            0.889              2.981             41.742
 Rotational               0.889              2.981             33.153
 Vibrational            249.945             56.808             58.300
 Vibration     1          0.593              1.984              5.912
 Vibration     2          0.594              1.982              5.493
 Vibration     3          0.595              1.979              5.031
 Vibration     4          0.599              1.965              3.982
 Vibration     5          0.604              1.948              3.422
 Vibration     6          0.607              1.939              3.232
 Vibration     7          0.612              1.922              2.923
 Vibration     8          0.618              1.902              2.669
 Vibration     9          0.622              1.890              2.538
 Vibration    10          0.630              1.865              2.317
 Vibration    11          0.643              1.825              2.040
 Vibration    12          0.653              1.794              1.871
 Vibration    13          0.655              1.786              1.834
 Vibration    14          0.661              1.768              1.752
 Vibration    15          0.676              1.721              1.570
 Vibration    16          0.705              1.638              1.318
 Vibration    17          0.753              1.504              1.023
 Vibration    18          0.758              1.492              1.002
 Vibration    19          0.777              1.440              0.913
 Vibration    20          0.795              1.395              0.844
 Vibration    21          0.805              1.371              0.810
 Vibration    22          0.846              1.271              0.682
 Vibration    23          0.873              1.211              0.615
 Vibration    24          0.927              1.093              0.502

 Optimization completed.
    -- Stationary point found.
 Normal termination of Gaussian 16 at Mon May 22 10:03:16 2023.
