 Gaussian 16, Revision A.03,
 Gaussian 16:  ES64L-G16RevA.03 25-Dec-2016

 -----------------------------
 # opt freq b3lyp/6-31g(2df,p)
 -----------------------------

 -------------------
 Title Card Required
 -------------------
 Symbolic Z-matrix:
 Charge =  0 Multiplicity = 1

 SCF Done:  E(RB3LYP) =  -621.675115090     A.U. after   12 cycles
 SCF Done:  E(RB3LYP) =  -621.707221985     A.U. after   11 cycles
 SCF Done:  E(RB3LYP) =  -621.732406943     A.U. after   10 cycles
 SCF Done:  E(RB3LYP) =  -621.738429564     A.U. after   11 cycles
 SCF Done:  E(RB3LYP) =  -621.747691002     A.U. after   11 cycles
 SCF Done:  E(RB3LYP) =  -621.749452475     A.U. after   11 cycles
 SCF Done:  E(RB3LYP) =  -621.755555504     A.U. after   11 cycles
 SCF Done:  E(RB3LYP) =  -621.759422496     A.U. after   11 cycles
 SCF Done:  E(RB3LYP) =  -621.762279412     A.U. after   11 cycles
 SCF Done:  E(RB3LYP) =  -621.762949282     A.U. after   10 cycles
 SCF Done:  E(RB3LYP) =  -621.767416163     A.U. after   10 cycles
 SCF Done:  E(RB3LYP) =  -621.767465316     A.U. after   10 cycles
 SCF Done:  E(RB3LYP) =  -621.767448599     A.U. after    9 cycles
 SCF Done:  E(RB3LYP) =  -621.767473859     A.U. after    9 cycles
 SCF Done:  E(RB3LYP) =  -621.767478290     A.U. after    8 cycles
 SCF Done:  E(RB3LYP) =  -621.767478441     A.U. after    8 cycles
 SCF Done:  E(RB3LYP) =  -621.767480820     A.U. after    8 cycles
 SCF Done:  E(RB3LYP) =  -621.767481042     A.U. after    6 cycles
 SCF Done:  E(RB3LYP) =  -621.767481111     A.U. after    6 cycles
 Optimization completed.
    -- Stationary point found.
 Normal termination of Gaussian 16 at Mon May 22 11:51:40 2023.

 ----------------------------------------------------------------------
 #N Geom=AllCheck Guess=TCheck SCRF=Check GenChk RB3LYP/6-31G(2df,p) Fr
 eq
 ----------------------------------------------------------------------

 Structure from the checkpoint file:  "CCCCCqCC1NCC1CCrNCC.chk"
 -------------------
 Title Card Required
 -------------------
 Charge =  0 Multiplicity = 1

                         Standard orientation:
 ---------------------------------------------------------------------
 Center     Atomic      Atomic             Coordinates (Angstroms)
 Number     Number       Type             X           Y           Z
 ---------------------------------------------------------------------
      1          6           0        4.898601    1.006232    0.131797
      2          6           0        4.064193   -0.271385    0.008671
      3          6           0        2.553410   -0.006930    0.009104
      4          6           0        1.727817   -1.290462   -0.119411
      5          6           0        0.200073   -1.128653   -0.038050
      6          6           0       -0.369180   -0.211570   -1.149739
      7          6           0       -0.623809    1.240759   -0.736545
      8          7           0       -1.188891    2.100315   -1.812019
      9          6           0       -2.544716    2.011917   -1.220621
     10          6           0       -1.920339    1.486994    0.099642
     11          6           0       -1.808732    2.532038    1.208113
     12          6           0       -1.057700    2.037455    2.447664
     13          7           0       -0.398209   -2.467559   -0.140695
     14          6           0       -1.739229   -2.591235    0.421337
     15          6           0       -2.238978   -4.030540    0.326646
     16          1           0        5.970675    0.785719    0.129312
     17          1           0        4.670702    1.539951    1.061275
     18          1           0        4.697756    1.692081   -0.698750
     19          1           0        4.312410   -0.953173    0.833024
     20          1           0        4.337271   -0.801136   -0.913629
     21          1           0        2.314068    0.680489   -0.811669
     22          1           0        2.280450    0.516869    0.935842
     23          1           0        2.039533   -1.982150    0.677119
     24          1           0        1.965387   -1.789980   -1.068453
     25          1           0       -0.040229   -0.671817    0.942388
     26          1           0       -1.308415   -0.640102   -1.516695
     27          1           0        0.317147   -0.222187   -2.007979
     28          1           0        0.284521    1.674040   -0.299715
     29          1           0       -1.101678    1.714523   -2.746808
     30          1           0       -3.215295    1.287707   -1.702642
     31          1           0       -3.066763    2.974797   -1.160019
     32          1           0       -2.380473    0.574820    0.492293
     33          1           0       -2.820307    2.845710    1.498634
     34          1           0       -1.315947    3.425718    0.804524
     35          1           0       -1.555016    1.167029    2.890681
     36          1           0       -1.002606    2.815644    3.215485
     37          1           0       -0.031573    1.741917    2.203422
     38          1           0        0.206357   -3.131077    0.334901
     39          1           0       -2.415931   -1.936856   -0.142057
     40          1           0       -1.789024   -2.247997    1.473113
     41          1           0       -2.238257   -4.370846   -0.712805
     42          1           0       -3.254814   -4.117924    0.723486
     43          1           0       -1.598722   -4.708798    0.903070
 ---------------------------------------------------------------------

 SCF Done:  E(RB3LYP) =  -621.767481111     A.U. after    1 cycles

 The electronic state is 1-A.
 Alpha  occ. eigenvalues --  -14.30498 -14.29895 -10.20521 -10.20145 -10.19903
 Alpha  occ. eigenvalues --  -10.19571 -10.17852 -10.17782 -10.17700 -10.17677
 Alpha  occ. eigenvalues --  -10.17479 -10.17319 -10.17116 -10.17061 -10.17025
 Alpha  occ. eigenvalues --   -0.91597  -0.89912  -0.79993  -0.77253  -0.76606
 Alpha  occ. eigenvalues --   -0.72447  -0.71653  -0.69168  -0.65495  -0.62753
 Alpha  occ. eigenvalues --   -0.60197  -0.60005  -0.57733  -0.56560  -0.53542
 Alpha  occ. eigenvalues --   -0.50035  -0.47674  -0.46638  -0.45750  -0.45450
 Alpha  occ. eigenvalues --   -0.44012  -0.43228  -0.42322  -0.41647  -0.40946
 Alpha  occ. eigenvalues --   -0.40099  -0.38898  -0.38281  -0.37509  -0.36883
 Alpha  occ. eigenvalues --   -0.36017  -0.35607  -0.35142  -0.34915  -0.34866
 Alpha  occ. eigenvalues --   -0.33678  -0.33039  -0.32543  -0.32359  -0.31828
 Alpha  occ. eigenvalues --   -0.30728  -0.30197  -0.28528  -0.22121  -0.20919
 Alpha virt. eigenvalues --    0.07532   0.07833   0.08811   0.09175   0.10820
 Alpha virt. eigenvalues --    0.11430   0.11723   0.11851   0.12053   0.13956
 Alpha virt. eigenvalues --    0.14011   0.14245   0.15230   0.15704   0.16202

 Mulliken charges:
               1
     1  C   -0.381624
     2  C   -0.166056
     3  C   -0.174438
     4  C   -0.212640
     5  C    0.042888
     6  C   -0.221647
     7  C    0.036927
     8  N   -0.325216
     9  C   -0.192447
    10  C    0.018455
    11  C   -0.186626
    12  C   -0.388843
    13  N   -0.304421
    14  C   -0.105811
    15  C   -0.390303
    16  H    0.110671
    17  H    0.113366
    18  H    0.115257
    19  H    0.093072
    20  H    0.095249
    21  H    0.104499
    22  H    0.096126
    23  H    0.082813
    24  H    0.103530
    25  H    0.056297
    26  H    0.096818
    27  H    0.089089
    28  H    0.068107
    29  H    0.207610
    30  H    0.084949
    31  H    0.092725
    32  H    0.066466
    33  H    0.090554
    34  H    0.108393
    35  H    0.111430
    36  H    0.110768
    37  H    0.122040
    38  H    0.205736
    39  H    0.103477
    40  H    0.072985
    41  H    0.126111
    42  H    0.113353
    43  H    0.110312
 Sum of Mulliken charges =  -0.00000

 Dipole moment (field-independent basis, Debye):
    X=             -0.0510    Y=             -1.1590    Z=              0.7980  Tot=              1.4081
 Quadrupole moment (field-independent basis, Debye-Ang):
   XX=            -94.7315   YY=           -102.3797   ZZ=            -96.8084
   XY=             -0.3979   XZ=              0.1612   YZ=             -0.2274

  Exact polarizability: 169.138   0.696 159.984   0.656  -0.083 140.570
 Approx polarizability: 217.109  -2.890 213.058  -0.949  -0.696 211.827

                      1                      2                      3
                      A                      A                      A
 Frequencies --     25.2912                44.3746                48.4933
 Red. masses --      3.4500                 3.1797                 3.1025
 Frc consts  --      0.0013                 0.0037                 0.0043
 IR Inten    --      0.0669                 0.1664                 0.0501

                      4                      5                      6
                      A                      A                      A
 Frequencies --     59.2578                74.0768                84.4688
 Red. masses --      2.7427                 2.1178                 1.8364
 Frc consts  --      0.0057                 0.0068                 0.0077
 IR Inten    --      0.1004                 0.0736                 0.3741

                      7                      8                      9
                      A                      A                      A
 Frequencies --     87.1703               111.9353               129.9959
 Red. masses --      2.3777                 2.0501                 2.3157
 Frc consts  --      0.0106                 0.0151                 0.0231
 IR Inten    --      0.4102                 0.3072                 0.6407

                     10                     11                     12
                      A                      A                      A
 Frequencies --    149.1648               178.1025               195.1878
 Red. masses --      2.3509                 2.1983                 1.8889
 Frc consts  --      0.0308                 0.0411                 0.0424
 IR Inten    --      0.6521                 1.9021                 0.3600

                     13                     14                     15
                      A                      A                      A
 Frequencies --    200.2258               238.6508               247.7964
 Red. masses --      2.5924                 2.0955                 1.1976
 Frc consts  --      0.0612                 0.0703                 0.0433
 IR Inten    --      0.8003                 1.2001                 0.1019

                     16                     17                     18
                      A                      A                      A
 Frequencies --    254.0049               263.0058               285.0398
 Red. masses --      1.1892                 1.7055                 3.2061
 Frc consts  --      0.0452                 0.0695                 0.1535
 IR Inten    --      0.4614                 1.9042                 0.2248

                     19                     20                     21
                      A                      A                      A
 Frequencies --    316.1724               323.2006               387.8017
 Red. masses --      2.3242                 2.9089                 2.5841
 Frc consts  --      0.1369                 0.1790                 0.2290
 IR Inten    --      1.1633                 0.9428                 0.6437

                     22                     23                     24
                      A                      A                      A
 Frequencies --    401.1508               419.9426               496.0800
 Red. masses --      2.5884                 2.7774                 2.6648
 Frc consts  --      0.2454                 0.2886                 0.3864
 IR Inten    --      1.7546                 0.6253                 1.9764

                     25                     26                     27
                      A                      A                      A
 Frequencies --    527.6758               565.1662               675.8279
 Red. masses --      2.2619                 2.8719                 2.3255
 Frc consts  --      0.3711                 0.5405                 0.6258
 IR Inten    --      0.7461                 8.2339                76.9529

                     28                     29                     30
                      A                      A                      A
 Frequencies --    740.9954               754.0832               764.9995
 Red. masses --      1.0862                 1.4456                 1.3792
 Frc consts  --      0.3514                 0.4843                 0.4756
 IR Inten    --      2.7492                 2.1269                57.7945

                     31                     32                     33
                      A                      A                      A
 Frequencies --    793.4287               820.2112               821.8820
 Red. masses --      1.1987                 1.3529                 1.3057
 Frc consts  --      0.4446                 0.5363                 0.5197
 IR Inten    --      1.3853                 2.8324                 2.4149

                     34                     35                     36
                      A                      A                      A
 Frequencies --    826.8583               892.0506               893.9856
 Red. masses --      1.7611                 1.8895                 2.0038
 Frc consts  --      0.7094                 0.8859                 0.9435
 IR Inten    --     11.4881                 2.9067                16.5994

                     37                     38                     39
                      A                      A                      A
 Frequencies --    914.2758               920.0489               955.9511
 Red. masses --      1.6524                 1.7348                 1.7119
 Frc consts  --      0.8138                 0.8652                 0.9217
 IR Inten    --      3.1561                 1.3667                 3.1770

                     40                     41                     42
                      A                      A                      A
 Frequencies --    970.5799               982.7191               995.3239
 Red. masses --      1.5209                 2.4427                 1.7564
 Frc consts  --      0.8442                 1.3899                 1.0252
 IR Inten    --      3.7159                 0.0951                 4.9173

                     43                     44                     45
                      A                      A                      A
 Frequencies --   1018.0116              1029.9533              1043.9623
 Red. masses --      2.8311                 2.1223                 2.2834
 Frc consts  --      1.7286                 1.3265                 1.4662
 IR Inten    --      3.3997                 8.0772                 3.5743

                     46                     47                     48
                      A                      A                      A
 Frequencies --   1055.1270              1061.0865              1069.1810
 Red. masses --      2.7453                 2.6384                 2.4272
 Frc consts  --      1.8008                 1.7502                 1.6348
 IR Inten    --      2.0886                 5.0016                 3.2402

                     49                     50                     51
                      A                      A                      A
 Frequencies --   1076.2973              1098.1150              1099.6289
 Red. masses --      1.9822                 2.3831                 1.5684
 Frc consts  --      1.3529                 1.6931                 1.1174
 IR Inten    --      3.7516                 2.2890                 1.2886

                     52                     53                     54
                      A                      A                      A
 Frequencies --   1110.8012              1135.8969              1145.4598
 Red. masses --      2.0501                 1.6009                 2.8679
 Frc consts  --      1.4904                 1.2170                 2.2170
 IR Inten    --      4.5067                 2.7313                36.8630

                     55                     56                     57
                      A                      A                      A
 Frequencies --   1152.3083              1170.5133              1196.4360
 Red. masses --      1.7803                 1.7691                 1.7326
 Frc consts  --      1.3928                 1.4281                 1.4613
 IR Inten    --      7.0543                18.0854                 0.4277

                     58                     59                     60
                      A                      A                      A
 Frequencies --   1204.4918              1226.4300              1234.9239
 Red. masses --      2.1504                 1.5704                 1.3726
 Frc consts  --      1.8382                 1.3917                 1.2334
 IR Inten    --      7.9730                 0.6703                 1.1156

                     61                     62                     63
                      A                      A                      A
 Frequencies --   1255.3105              1271.2650              1280.9760
 Red. masses --      1.4071                 1.2524                 1.2632
 Frc consts  --      1.3064                 1.1925                 1.2212
 IR Inten    --      2.8058                 2.6502                 0.8587

                     64                     65                     66
                      A                      A                      A
 Frequencies --   1287.6589              1295.1918              1298.3413
 Red. masses --      1.2349                 1.1977                 1.2822
 Frc consts  --      1.2064                 1.1838                 1.2735
 IR Inten    --     11.9188                 7.8102                 3.0805

                     67                     68                     69
                      A                      A                      A
 Frequencies --   1319.4548              1329.0269              1333.1988
 Red. masses --      1.2369                 1.2538                 1.0773
 Frc consts  --      1.2687                 1.3049                 1.1282
 IR Inten    --      1.9787                 5.5781                 1.5787

                     70                     71                     72
                      A                      A                      A
 Frequencies --   1337.5695              1352.8739              1362.8297
 Red. masses --      1.2403                 1.2854                 1.3979
 Frc consts  --      1.3074                 1.3861                 1.5297
 IR Inten    --      5.6019                 6.0050                 1.2694

                     73                     74                     75
                      A                      A                      A
 Frequencies --   1373.3518              1385.4381              1391.7939
 Red. masses --      1.3544                 1.5039                 1.4174
 Frc consts  --      1.5051                 1.7008                 1.6176
 IR Inten    --     11.5978                 5.9986                 8.2814

                     76                     77                     78
                      A                      A                      A
 Frequencies --   1394.3005              1403.9346              1409.5528
 Red. masses --      1.4336                 1.4239                 1.3091
 Frc consts  --      1.6421                 1.6536                 1.5324
 IR Inten    --      3.4948                 7.1893                 5.2436

                     79                     80                     81
                      A                      A                      A
 Frequencies --   1410.9780              1413.0524              1416.7826
 Red. masses --      1.3296                 1.2737                 1.3925
 Frc consts  --      1.5596                 1.4984                 1.6469
 IR Inten    --     13.3546                 2.0126                 3.6947

                     82                     83                     84
                      A                      A                      A
 Frequencies --   1479.4005              1484.8351              1486.4934
 Red. masses --      1.0789                 1.0830                 1.0676
 Frc consts  --      1.3912                 1.4069                 1.3900
 IR Inten    --      0.4597                 5.9210                 1.8549

                     85                     86                     87
                      A                      A                      A
 Frequencies --   1487.1574              1491.2340              1498.5168
 Red. masses --      1.0622                 1.0796                 1.0396
 Frc consts  --      1.3841                 1.4146                 1.3754
 IR Inten    --      1.5467                 3.9113                 1.1151

                     88                     89                     90
                      A                      A                      A
 Frequencies --   1498.5933              1499.9341              1500.3024
 Red. masses --      1.0412                 1.0409                 1.0717
 Frc consts  --      1.3777                 1.3798                 1.4213
 IR Inten    --      7.7304                 5.5823                 0.6371

                     91                     92                     93
                      A                      A                      A
 Frequencies --   1504.5729              1508.6327              1513.0794
 Red. masses --      1.0731                 1.1861                 1.0912
 Frc consts  --      1.4312                 1.5905                 1.4720
 IR Inten    --      5.3735                24.3996                 2.8791

                     94                     95                     96
                      A                      A                      A
 Frequencies --   1520.0292              1525.9113              2895.4456
 Red. masses --      1.0980                 1.0923                 1.0800
 Frc consts  --      1.4947                 1.4985                 5.3347
 IR Inten    --      1.8232                 6.3904                33.9486

                     97                     98                     99
                      A                      A                      A
 Frequencies --   2909.1647              2993.9212              2997.1983
 Red. masses --      1.0739                 1.0617                 1.0594
 Frc consts  --      5.3550                 5.6072                 5.6070
 IR Inten    --     88.5840                22.9077                81.1379

                    100                    101                    102
                      A                      A                      A
 Frequencies --   3006.1062              3010.5607              3013.8583
 Red. masses --      1.0622                 1.0667                 1.0634
 Frc consts  --      5.6554                 5.6961                 5.6909
 IR Inten    --      8.2508                28.0610                72.1649

                    103                    104                    105
                      A                      A                      A
 Frequencies --   3015.0328              3020.2040              3027.8911
 Red. masses --      1.0632                 1.0809                 1.0368
 Frc consts  --      5.6946                 5.8091                 5.6007
 IR Inten    --     10.8491                15.3860                24.3229

                    106                    107                    108
                      A                      A                      A
 Frequencies --   3028.6986              3030.5563              3034.5176
 Red. masses --      1.0374                 1.0450                 1.0876
 Frc consts  --      5.6068                 5.6550                 5.9009
 IR Inten    --     29.9424                13.2890                26.1599

                    109                    110                    111
                      A                      A                      A
 Frequencies --   3037.6444              3039.1295              3039.5835
 Red. masses --      1.0773                 1.0978                 1.1001
 Frc consts  --      5.8569                 5.9738                 5.9883
 IR Inten    --     31.0606                41.6578                 6.5301

                    112                    113                    114
                      A                      A                      A
 Frequencies --   3044.5189              3060.2544              3064.0278
 Red. masses --      1.0986                 1.0938                 1.0987
 Frc consts  --      5.9997                 6.0351                 6.0772
 IR Inten    --     24.6622                25.8155                44.2021

                    115                    116                    117
                      A                      A                      A
 Frequencies --   3066.7546              3094.3973              3095.4374
 Red. masses --      1.0980                 1.1013                 1.1021
 Frc consts  --      6.0843                 6.2132                 6.2216
 IR Inten    --     58.0974                50.9366                52.4154

                    118                    119                    120
                      A                      A                      A
 Frequencies --   3097.5481              3099.5386              3100.6383
 Red. masses --      1.0985                 1.1008                 1.1010
 Frc consts  --      6.2097                 6.2310                 6.2365
 IR Inten    --     39.2673                50.3295                35.9268

                    121                    122                    123
                      A                      A                      A
 Frequencies --   3117.9768              3499.4217              3513.2807
 Red. masses --      1.1022                 1.0734                 1.0754
 Frc consts  --      6.3134                 7.7450                 7.8209
 IR Inten    --     25.2197                 1.8347                 1.6437

 - Thermochemistry -
 -------------------
 Temperature   298.150 Kelvin.  Pressure   1.00000 Atm.
 Atom     1 has atomic number  6 and mass  12.00000

 Molecular mass:   212.22525 amu.
 Principal axes and moments of inertia in atomic units:
                           1         2         3
     Eigenvalues --  3821.939554796.039806930.28161
           X            0.99874   0.05001  -0.00403
           Y           -0.04997   0.99870   0.01027
           Z            0.00454  -0.01005   0.99994
 This molecule is an asymmetric top.
 Rotational symmetry number  1.
 Warning -- assumption of classical behavior for rotation
           may cause significant error
 Rotational temperatures (Kelvin)      0.02266     0.01806     0.01250
 Rotational constants (GHZ):           0.47221     0.37630     0.26041
 Zero-point vibrational energy    1048168.9 (Joules/Mol)
                                  250.51839 (Kcal/Mol)
 Warning -- explicit consideration of  26 degrees of freedom as
           vibrations may cause significant error
 Vibrational temperatures:     36.39    63.85    69.77    85.26   106.58
          (Kelvin)            121.53   125.42   161.05   187.04   214.61
                              256.25   280.83   288.08   343.37   356.52
                              365.46   378.41   410.11   454.90   465.01
                              557.96   577.17   604.20   713.75   759.21
                              813.15   972.37  1066.13  1084.96  1100.66
                             1141.57  1180.10  1182.50  1189.66  1283.46
                             1286.25  1315.44  1323.75  1375.40  1396.45
                             1413.91  1432.05  1464.69  1481.87  1502.03
                             1518.09  1526.67  1538.31  1548.55  1579.94
                             1582.12  1598.20  1634.30  1648.06  1657.91
                             1684.11  1721.40  1733.00  1764.56  1776.78
                             1806.11  1829.07  1843.04  1852.65  1863.49
                             1868.02  1898.40  1912.17  1918.18  1924.46
                             1946.48  1960.81  1975.95  1993.34  2002.48
                             2006.09  2019.95  2028.03  2030.08  2033.07
                             2038.43  2128.53  2136.35  2138.73  2139.69
                             2145.55  2156.03  2156.14  2158.07  2158.60
                             2164.74  2170.59  2176.98  2186.98  2195.45
                             4165.90  4185.64  4307.58  4312.30  4325.12
                             4331.53  4336.27  4337.96  4345.40  4356.46
                             4357.62  4360.29  4365.99  4370.49  4372.63
                             4373.28  4380.38  4403.02  4408.45  4412.38
                             4452.15  4453.64  4456.68  4459.54  4461.13
                             4486.07  5034.89  5054.83

 Zero-point correction=                           0.399226 (Hartree/Particle)
 Thermal correction to Energy=                    0.417991
 Thermal correction to Enthalpy=                  0.418935
 Thermal correction to Gibbs Free Energy=         0.350977
 Sum of electronic and zero-point Energies=           -621.368255
 Sum of electronic and thermal Energies=              -621.349490
 Sum of electronic and thermal Enthalpies=            -621.348546
 Sum of electronic and thermal Free Energies=         -621.416504

                     E (Thermal)             CV                S
                      KCal/Mol        Cal/Mol-Kelvin    Cal/Mol-Kelvin
 Total                  262.293             68.792            143.030
 Electronic               0.000              0.000              0.000
 Translational            0.889              2.981             41.961
 Rotational               0.889              2.981             33.207
 Vibrational            260.516             62.830             67.862
 Vibration     1          0.593              1.985              6.168
 Vibration     2          0.595              1.980              5.054
 Vibration     3          0.595              1.978              4.878
 Vibration     4          0.597              1.974              4.482
 Vibration     5          0.599              1.966              4.042
 Vibration     6          0.601              1.960              3.784
 Vibration     7          0.601              1.958              3.723
 Vibration     8          0.607              1.940              3.235
 Vibration     9          0.612              1.923              2.946
 Vibration    10          0.618              1.904              2.683
 Vibration    11          0.629              1.869              2.348
 Vibration    12          0.636              1.847              2.178
 Vibration    13          0.638              1.840              2.131
 Vibration    14          0.657              1.781              1.813
 Vibration    15          0.661              1.766              1.746
 Vibration    16          0.665              1.756              1.703
 Vibration    17          0.670              1.741              1.642
 Vibration    18          0.683              1.701              1.503
 Vibration    19          0.703              1.643              1.330
 Vibration    20          0.708              1.629              1.294
 Vibration    21          0.756              1.496              1.009
 Vibration    22          0.767              1.468              0.958
 Vibration    23          0.783              1.427              0.892
 Vibration    24          0.852              1.259              0.668
 Vibration    25          0.883              1.189              0.592
 Vibration    26          0.921              1.107              0.514

                           ! Non-Optimized Parameters !
 Normal termination of Gaussian 16 at Mon May 22 15:33:09 2023.
