 Gaussian 16, Revision A.03,
 Gaussian 16:  ES64L-G16RevA.03 25-Dec-2016

 -----------------------------
 # opt freq b3lyp/6-31g(2df,p)
 -----------------------------

 -------------------
 Title Card Required
 -------------------
 Symbolic Z-matrix:
 Charge =  0 Multiplicity = 1

 SCF Done:  E(RB3LYP) =  -511.052464257     A.U. after   12 cycles
 SCF Done:  E(RB3LYP) =  -511.061311894     A.U. after   10 cycles
 SCF Done:  E(RB3LYP) =  -511.065234332     A.U. after   10 cycles
 SCF Done:  E(RB3LYP) =  -511.066265921     A.U. after   10 cycles
 SCF Done:  E(RB3LYP) =  -511.066693215     A.U. after   10 cycles
 SCF Done:  E(RB3LYP) =  -511.066828948     A.U. after    9 cycles
 SCF Done:  E(RB3LYP) =  -511.067043265     A.U. after    9 cycles
 SCF Done:  E(RB3LYP) =  -511.067094796     A.U. after    8 cycles
 SCF Done:  E(RB3LYP) =  -511.067117789     A.U. after    8 cycles
 SCF Done:  E(RB3LYP) =  -511.067145820     A.U. after    9 cycles
 SCF Done:  E(RB3LYP) =  -511.072457719     A.U. after    9 cycles
 SCF Done:  E(RB3LYP) =  -511.072470783     A.U. after    8 cycles
 SCF Done:  E(RB3LYP) =  -511.072479994     A.U. after    8 cycles
 SCF Done:  E(RB3LYP) =  -511.072482791     A.U. after    7 cycles
 SCF Done:  E(RB3LYP) =  -511.072483737     A.U. after    6 cycles
 SCF Done:  E(RB3LYP) =  -511.072484389     A.U. after    6 cycles
 SCF Done:  E(RB3LYP) =  -511.072484611     A.U. after    6 cycles
 SCF Done:  E(RB3LYP) =  -511.072484646     A.U. after    5 cycles
 SCF Done:  E(RB3LYP) =  -511.072484653     A.U. after    5 cycles
 Optimization completed.
    -- Stationary point found.
 Normal termination of Gaussian 16 at Wed May 24 14:37:17 2023.

 ----------------------------------------------------------------------
 #N Geom=AllCheck Guess=TCheck SCRF=Check GenChk RB3LYP/6-31G(2df,p) Fr
 eq
 ----------------------------------------------------------------------

 Structure from the checkpoint file:  "CCCCqCrqCrC1CCqCCrC1C.chk"
 -------------------
 Title Card Required
 -------------------
 Charge =  0 Multiplicity = 1

                         Standard orientation:
 ---------------------------------------------------------------------
 Center     Atomic      Atomic             Coordinates (Angstroms)
 Number     Number       Type             X           Y           Z
 ---------------------------------------------------------------------
      1          6           0       -3.735087   -2.183761    0.202304
      2          6           0       -2.721177   -1.132136    0.665652
      3          6           0       -2.291712   -0.201109   -0.476803
      4          6           0       -1.303162    0.948277   -0.139631
      5          6           0       -1.937960    1.913912    0.886048
      6          6           0       -1.062449    1.750773   -1.434531
      7          6           0       -0.008969    0.387453    0.495012
      8          6           0        1.230440    1.279324    0.775490
      9          6           0        2.101874   -0.000793    0.701256
     10          6           0        3.529508    0.093297    0.174974
     11          6           0        4.288127   -1.238127    0.223148
     12          6           0        0.957525   -0.683373   -0.133419
     13          6           0        1.179959   -0.669087   -1.646119
     14          1           0       -4.030507   -2.843908    1.023987
     15          1           0       -3.320093   -2.810352   -0.595286
     16          1           0       -4.643429   -1.712492   -0.189707
     17          1           0       -1.846336   -1.641498    1.086540
     18          1           0       -3.159776   -0.548864    1.483962
     19          1           0       -3.194632    0.250939   -0.911922
     20          1           0       -1.855595   -0.814789   -1.276060
     21          1           0       -2.897349    2.296303    0.519559
     22          1           0       -1.285488    2.775059    1.065066
     23          1           0       -2.115601    1.431295    1.851910
     24          1           0       -1.999362    2.214075   -1.764032
     25          1           0       -0.704626    1.123954   -2.253632
     26          1           0       -0.338872    2.557696   -1.282517
     27          1           0       -0.306221   -0.032111    1.463718
     28          1           0        1.249677    1.859552    1.702198
     29          1           0        1.455297    1.953161   -0.057829
     30          1           0        2.125953   -0.467484    1.694280
     31          1           0        4.069607    0.838139    0.775185
     32          1           0        3.527750    0.482115   -0.850607
     33          1           0        4.351493   -1.617289    1.249378
     34          1           0        5.309649   -1.130152   -0.155057
     35          1           0        3.791022   -2.006370   -0.378741
     36          1           0        0.728605   -1.711414    0.167416
     37          1           0        1.429753    0.324062   -2.029634
     38          1           0        0.293376   -1.018550   -2.183807
     39          1           0        2.004196   -1.338968   -1.914653
 ---------------------------------------------------------------------

 SCF Done:  E(RB3LYP) =  -511.072484653     A.U. after    1 cycles

 The electronic state is 1-A.
 Alpha  occ. eigenvalues --  -10.18635 -10.17875 -10.17609 -10.17460 -10.17364
 Alpha  occ. eigenvalues --  -10.17281 -10.16958 -10.16922 -10.16914 -10.16892
 Alpha  occ. eigenvalues --  -10.16832 -10.16426 -10.16277  -0.84959  -0.80588
 Alpha  occ. eigenvalues --   -0.76127  -0.74947  -0.71656  -0.67531  -0.66941
 Alpha  occ. eigenvalues --   -0.65176  -0.61664  -0.59774  -0.58343  -0.53074
 Alpha  occ. eigenvalues --   -0.50515  -0.48416  -0.46372  -0.44930  -0.44287
 Alpha  occ. eigenvalues --   -0.43706  -0.41412  -0.40853  -0.39639  -0.39045
 Alpha  occ. eigenvalues --   -0.38437  -0.38143  -0.37855  -0.37008  -0.36336
 Alpha  occ. eigenvalues --   -0.35993  -0.35364  -0.34693  -0.34003  -0.33242
 Alpha  occ. eigenvalues --   -0.32430  -0.31599  -0.30686  -0.29305  -0.29133
 Alpha  occ. eigenvalues --   -0.27801  -0.26822
 Alpha virt. eigenvalues --    0.06750   0.09055   0.09383   0.10441   0.11888
 Alpha virt. eigenvalues --    0.12028   0.13136   0.13298   0.13971   0.14656
 Alpha virt. eigenvalues --    0.15136   0.16290   0.16933   0.16974   0.17376

 Mulliken charges:
               1
     1  C   -0.378008
     2  C   -0.188636
     3  C   -0.172013
     4  C    0.195549
     5  C   -0.407335
     6  C   -0.423257
     7  C    0.061678
     8  C   -0.300337
     9  C    0.056461
    10  C   -0.204194
    11  C   -0.380926
    12  C   -0.051381
    13  C   -0.407905
    14  H    0.108432
    15  H    0.112079
    16  H    0.112459
    17  H    0.099234
    18  H    0.096491
    19  H    0.082862
    20  H    0.091367
    21  H    0.103394
    22  H    0.112014
    23  H    0.108880
    24  H    0.103899
    25  H    0.111298
    26  H    0.107655
    27  H    0.070321
    28  H    0.089201
    29  H    0.095824
    30  H    0.063718
    31  H    0.091529
    32  H    0.092237
    33  H    0.112212
    34  H    0.109681
    35  H    0.117691
    36  H    0.059959
    37  H    0.119263
    38  H    0.115931
    39  H    0.112671
 Sum of Mulliken charges =  -0.00000

 Dipole moment (field-independent basis, Debye):
    X=              0.0790    Y=             -0.0938    Z=              0.0939  Tot=              0.1544
 Quadrupole moment (field-independent basis, Debye-Ang):
   XX=            -86.7746   YY=            -87.0111   ZZ=            -86.1354
   XY=             -0.0097   XZ=             -0.0786   YZ=             -0.1717

  Exact polarizability: 160.786  -1.221 134.023   0.151   1.098 124.434
 Approx polarizability: 198.404  -0.624 193.821   0.409   0.418 192.120

                      1                      2                      3
                      A                      A                      A
 Frequencies --     41.8005                62.1722                64.4139
 Red. masses --      2.9903                 2.9004                 1.6374
 Frc consts  --      0.0031                 0.0066                 0.0040
 IR Inten    --      0.0089                 0.0012                 0.0095

                      4                      5                      6
                      A                      A                      A
 Frequencies --     92.6150               114.1701               161.9410
 Red. masses --      2.6084                 2.7275                 2.2161
 Frc consts  --      0.0132                 0.0209                 0.0342
 IR Inten    --      0.0110                 0.0073                 0.0025

                      7                      8                      9
                      A                      A                      A
 Frequencies --    169.8557               200.9719               222.0339
 Red. masses --      1.7827                 1.7956                 1.2297
 Frc consts  --      0.0303                 0.0427                 0.0357
 IR Inten    --      0.0445                 0.0099                 0.2036

                     10                     11                     12
                      A                      A                      A
 Frequencies --    229.3958               242.9402               250.2404
 Red. masses --      1.7046                 1.2243                 1.6662
 Frc consts  --      0.0528                 0.0426                 0.0615
 IR Inten    --      0.0289                 0.0093                 0.0793

                     13                     14                     15
                      A                      A                      A
 Frequencies --    271.3122               277.6180               289.8691
 Red. masses --      1.7368                 1.4319                 1.9587
 Frc consts  --      0.0753                 0.0650                 0.0970
 IR Inten    --      0.0581                 0.0182                 0.0362

                     16                     17                     18
                      A                      A                      A
 Frequencies --    295.8411               313.5932               327.9633
 Red. masses --      2.4671                 1.1780                 2.5593
 Frc consts  --      0.1272                 0.0683                 0.1622
 IR Inten    --      0.1300                 0.0279                 0.0143

                     19                     20                     21
                      A                      A                      A
 Frequencies --    366.3905               402.6342               427.3611
 Red. masses --      2.3743                 2.6702                 2.8409
 Frc consts  --      0.1878                 0.2550                 0.3057
 IR Inten    --      0.1260                 0.6422                 0.0217

                     22                     23                     24
                      A                      A                      A
 Frequencies --    500.0331               525.4811               565.7626
 Red. masses --      2.4341                 2.4146                 2.5005
 Frc consts  --      0.3586                 0.3928                 0.4716
 IR Inten    --      0.1093                 0.6638                 0.0573

                     25                     26                     27
                      A                      A                      A
 Frequencies --    630.3216               702.0804               741.4600
 Red. masses --      1.9687                 2.5819                 1.1437
 Frc consts  --      0.4608                 0.7498                 0.3705
 IR Inten    --      2.2721                 0.4922                 3.2271

                     28                     29                     30
                      A                      A                      A
 Frequencies --    764.8731               809.0123               825.6053
 Red. masses --      1.8490                 1.5334                 2.1428
 Frc consts  --      0.6373                 0.5913                 0.8605
 IR Inten    --      0.4977                 2.5692                 0.0160

                     31                     32                     33
                      A                      A                      A
 Frequencies --    870.6102               892.0797               914.6194
 Red. masses --      1.3677                 2.0297                 2.0684
 Frc consts  --      0.6108                 0.9517                 1.0195
 IR Inten    --      0.1006                 0.9895                 2.2703

                     34                     35                     36
                      A                      A                      A
 Frequencies --    929.1527               937.0630               954.3506
 Red. masses --      1.4129                 1.5977                 2.0664
 Frc consts  --      0.7187                 0.8266                 1.1089
 IR Inten    --      0.1747                 1.3258                 0.5523

                     37                     38                     39
                      A                      A                      A
 Frequencies --    958.6174               991.3271              1012.0926
 Red. masses --      1.7808                 1.9404                 1.3224
 Frc consts  --      0.9642                 1.1235                 0.7981
 IR Inten    --      5.2486                 3.1314                 0.2106

                     40                     41                     42
                      A                      A                      A
 Frequencies --   1017.1984              1029.8336              1036.7915
 Red. masses --      1.3610                 1.7136                 1.7738
 Frc consts  --      0.8297                 1.0708                 1.1234
 IR Inten    --      4.8129                 0.9962                 0.4622

                     43                     44                     45
                      A                      A                      A
 Frequencies --   1050.3159              1058.7583              1071.1716
 Red. masses --      2.4258                 1.5490                 1.6508
 Frc consts  --      1.5767                 1.0230                 1.1160
 IR Inten    --      0.0938                 1.1548                 0.0844

                     46                     47                     48
                      A                      A                      A
 Frequencies --   1107.3034              1123.9490              1131.4412
 Red. masses --      1.9687                 1.6988                 2.3745
 Frc consts  --      1.4222                 1.2644                 1.7910
 IR Inten    --      0.2362                 0.5743                 0.3128

                     49                     50                     51
                      A                      A                      A
 Frequencies --   1164.0549              1179.5889              1201.1854
 Red. masses --      2.3733                 2.0126                 2.4329
 Frc consts  --      1.8947                 1.6500                 2.0682
 IR Inten    --      0.4196                 1.3390                 4.7414

                     52                     53                     54
                      A                      A                      A
 Frequencies --   1227.2614              1238.9708              1248.8512
 Red. masses --      2.0601                 1.5194                 2.3494
 Frc consts  --      1.8282                 1.3741                 2.1589
 IR Inten    --      2.3344                 2.0678                 3.2491

                     55                     56                     57
                      A                      A                      A
 Frequencies --   1256.9588              1281.1852              1289.0883
 Red. masses --      1.3508                 1.4489                 1.3810
 Frc consts  --      1.2574                 1.4013                 1.3521
 IR Inten    --      0.2593                 0.4968                 2.6700

                     58                     59                     60
                      A                      A                      A
 Frequencies --   1294.9349              1307.0395              1328.1193
 Red. masses --      1.2496                 1.3135                 1.4354
 Frc consts  --      1.2345                 1.3221                 1.4918
 IR Inten    --      0.7495                 1.9805                 2.0825

                     61                     62                     63
                      A                      A                      A
 Frequencies --   1342.5572              1343.2662              1374.0674
 Red. masses --      1.3330                 1.1521                 1.3941
 Frc consts  --      1.4156                 1.2248                 1.5508
 IR Inten    --     10.4219                 0.8721                 2.8695

                     64                     65                     66
                      A                      A                      A
 Frequencies --   1379.3130              1394.5037              1396.8173
 Red. masses --      1.3393                 1.4959                 1.2459
 Frc consts  --      1.5013                 1.7139                 1.4322
 IR Inten    --      0.7906                 0.6216                 2.3055

                     67                     68                     69
                      A                      A                      A
 Frequencies --   1403.9015              1411.5438              1412.6341
 Red. masses --      1.3445                 1.2356                 1.2330
 Frc consts  --      1.5613                 1.4505                 1.4497
 IR Inten    --      5.5378                 2.7707                 3.3004

                     70                     71                     72
                      A                      A                      A
 Frequencies --   1416.8337              1427.1755              1474.1687
 Red. masses --      1.3006                 1.2986                 1.0725
 Frc consts  --      1.5383                 1.5585                 1.3732
 IR Inten    --      1.7571                 7.7496                 0.3470

                     73                     74                     75
                      A                      A                      A
 Frequencies --   1483.0576              1488.2012              1490.8795
 Red. masses --      1.0622                 1.0533                 1.0574
 Frc consts  --      1.3765                 1.3744                 1.3847
 IR Inten    --      3.0662                 1.9258                 0.6152

                     76                     77                     78
                      A                      A                      A
 Frequencies --   1492.1124              1495.8867              1498.2603
 Red. masses --      1.0559                 1.0829                 1.0681
 Frc consts  --      1.3851                 1.4276                 1.4126
 IR Inten    --      0.2942                 1.8692                 2.0862

                     79                     80                     81
                      A                      A                      A
 Frequencies --   1499.3656              1500.6895              1503.0061
 Red. masses --      1.0414                 1.0497                 1.0515
 Frc consts  --      1.3794                 1.3928                 1.3995
 IR Inten    --      7.1011                 3.7973                 4.2666

                     82                     83                     84
                      A                      A                      A
 Frequencies --   1506.7057              1510.5882              1512.1804
 Red. masses --      1.0696                 1.0753                 1.0581
 Frc consts  --      1.4306                 1.4457                 1.4256
 IR Inten    --      0.6234                 2.7757                 8.7868

                     85                     86                     87
                      A                      A                      A
 Frequencies --   1518.0607              3000.3967              3014.1529
 Red. masses --      1.0572                 1.0612                 1.0829
 Frc consts  --      1.4354                 5.6285                 5.7964
 IR Inten    --      4.7347                18.6635                 9.8000

                     88                     89                     90
                      A                      A                      A
 Frequencies --   3015.1951              3016.7940              3025.3119
 Red. masses --      1.0641                 1.0803                 1.0393
 Frc consts  --      5.7000                 5.7927                 5.6045
 IR Inten    --     23.8951                 6.3924                14.9943

                     91                     92                     93
                      A                      A                      A
 Frequencies --   3026.6679              3029.0531              3031.3312
 Red. masses --      1.0362                 1.0367                 1.0598
 Frc consts  --      5.5925                 5.6041                 5.7375
 IR Inten    --     32.0288                23.0230                30.2186

                     94                     95                     96
                      A                      A                      A
 Frequencies --   3032.9823              3035.9542              3036.7396
 Red. masses --      1.0560                 1.0506                 1.0742
 Frc consts  --      5.7234                 5.7052                 5.8365
 IR Inten    --     16.8655                29.0210                38.8114

                     97                     98                     99
                      A                      A                      A
 Frequencies --   3040.0451              3046.5679              3051.7430
 Red. masses --      1.0731                 1.0582                 1.0952
 Frc consts  --      5.8433                 5.7870                 6.0095
 IR Inten    --     35.4831                15.6703                27.8301

                    100                    101                    102
                      A                      A                      A
 Frequencies --   3064.8166              3088.1809              3091.8106
 Red. masses --      1.1018                 1.1015                 1.1005
 Frc consts  --      6.0975                 6.1891                 6.1981
 IR Inten    --     22.2375                 2.2118                54.1743

                    103                    104                    105
                      A                      A                      A
 Frequencies --   3094.5450              3095.4640              3096.0372
 Red. masses --      1.1012                 1.1025                 1.1008
 Frc consts  --      6.2129                 6.2241                 6.2170
 IR Inten    --     38.7088                80.5090                42.3589

                    106                    107                    108
                      A                      A                      A
 Frequencies --   3097.0278              3098.8723              3100.4510
 Red. masses --      1.1028                 1.1009                 1.1012
 Frc consts  --      6.2321                 6.2289                 6.2366
 IR Inten    --     48.9121                35.0267                26.9366

                    109                    110                    111
                      A                      A                      A
 Frequencies --   3101.7670              3111.1381              3129.6015
 Red. masses --      1.1003                 1.1005                 1.0978
 Frc consts  --      6.2368                 6.2761                 6.3349
 IR Inten    --     47.4263                42.6277                19.4831

 - Thermochemistry -
 -------------------
 Temperature   298.150 Kelvin.  Pressure   1.00000 Atm.
 Atom     1 has atomic number  6 and mass  12.00000

 Molecular mass:   182.20345 amu.
 Principal axes and moments of inertia in atomic units:
                           1         2         3
     Eigenvalues --  1525.363684313.273014849.66634
           X            1.00000  -0.00029  -0.00282
           Y            0.00028   1.00000  -0.00260
           Z            0.00282   0.00260   0.99999
 This molecule is an asymmetric top.
 Rotational symmetry number  1.
 Warning -- assumption of classical behavior for rotation
           may cause significant error
 Rotational temperatures (Kelvin)      0.05678     0.02008     0.01786
 Rotational constants (GHZ):           1.18315     0.41842     0.37214
 Zero-point vibrational energy     956068.1 (Joules/Mol)
                                  228.50575 (Kcal/Mol)
 Warning -- explicit consideration of  24 degrees of freedom as
           vibrations may cause significant error
 Vibrational temperatures:     60.14    89.45    92.68   133.25   164.27
          (Kelvin)            233.00   244.38   289.15   319.46   330.05
                              349.54   360.04   390.36   399.43   417.06
                              425.65   451.19   471.87   527.15   579.30
                              614.88   719.44   756.05   814.01   906.89
                             1010.14  1066.80  1100.48  1163.99  1187.86
                             1252.61  1283.50  1315.93  1336.84  1348.22
                             1373.10  1379.24  1426.30  1456.18  1463.52
                             1481.70  1491.71  1511.17  1523.32  1541.18
                             1593.16  1617.11  1627.89  1674.82  1697.17
                             1728.24  1765.76  1782.60  1796.82  1808.48
                             1843.34  1854.71  1863.12  1880.54  1910.87
                             1931.64  1932.66  1976.98  1984.52  2006.38
                             2009.71  2019.90  2030.90  2032.47  2038.51
                             2053.39  2121.00  2133.79  2141.19  2145.04
                             2146.82  2152.25  2155.66  2157.25  2159.16
                             2162.49  2167.81  2173.40  2175.69  2184.15
                             4316.90  4336.69  4338.19  4340.49  4352.75
                             4354.70  4358.13  4361.41  4363.78  4368.06
                             4369.19  4373.95  4383.33  4390.78  4409.59
                             4443.20  4448.43  4452.36  4453.68  4454.51
                             4455.93  4458.59  4460.86  4462.75  4476.23
                             4502.80

 Zero-point correction=                           0.364147 (Hartree/Particle)
 Thermal correction to Energy=                    0.380408
 Thermal correction to Enthalpy=                  0.381352
 Thermal correction to Gibbs Free Energy=         0.321537
 Sum of electronic and zero-point Energies=           -510.708338
 Sum of electronic and thermal Energies=              -510.692077
 Sum of electronic and thermal Enthalpies=            -510.691133
 Sum of electronic and thermal Free Energies=         -510.750948

                     E (Thermal)             CV                S
                      KCal/Mol        Cal/Mol-Kelvin    Cal/Mol-Kelvin
 Total                  238.709             62.277            125.891
 Electronic               0.000              0.000              0.000
 Translational            0.889              2.981             41.506
 Rotational               0.889              2.981             31.834
 Vibrational            236.932             56.316             52.551
 Vibration     1          0.594              1.980              5.172
 Vibration     2          0.597              1.972              4.387
 Vibration     3          0.597              1.971              4.317
 Vibration     4          0.602              1.954              3.604
 Vibration     5          0.607              1.938              3.197
 Vibration     6          0.622              1.889              2.527
 Vibration     7          0.625              1.880              2.437
 Vibration     8          0.638              1.839              2.124
 Vibration     9          0.648              1.808              1.942
 Vibration    10          0.652              1.796              1.884
 Vibration    11          0.659              1.774              1.781
 Vibration    12          0.663              1.762              1.729
 Vibration    13          0.675              1.726              1.588
 Vibration    14          0.679              1.715              1.548
 Vibration    15          0.686              1.693              1.475
 Vibration    16          0.690              1.681              1.440
 Vibration    17          0.701              1.648              1.343
 Vibration    18          0.711              1.620              1.270
 Vibration    19          0.739              1.541              1.095
 Vibration    20          0.768              1.464              0.953
 Vibration    21          0.789              1.411              0.867
 Vibration    22          0.855              1.250              0.658
 Vibration    23          0.880              1.194              0.597
 Vibration    24          0.922              1.105              0.512

 Optimization completed.
    -- Stationary point found.
 Normal termination of Gaussian 16 at Wed May 24 17:30:41 2023.
