 Gaussian 16, Revision A.03,
 Gaussian 16:  ES64L-G16RevA.03 25-Dec-2016

 -----------------------------
 # opt freq b3lyp/6-31g(2df,p)
 -----------------------------

 -------------------
 Title Card Required
 -------------------
 Symbolic Z-matrix:
 Charge =  0 Multiplicity = 1

 SCF Done:  E(RB3LYP) =  -577.813930575     A.U. after   13 cycles
 SCF Done:  E(RB3LYP) =  -577.826450101     A.U. after   12 cycles
 SCF Done:  E(RB3LYP) =  -577.829889726     A.U. after   11 cycles
 SCF Done:  E(RB3LYP) =  -577.833658537     A.U. after   11 cycles
 SCF Done:  E(RB3LYP) =  -577.840019989     A.U. after   12 cycles
 SCF Done:  E(RB3LYP) =  -577.843087563     A.U. after   10 cycles
 SCF Done:  E(RB3LYP) =  -577.846472466     A.U. after   12 cycles
 SCF Done:  E(RB3LYP) =  -577.847320885     A.U. after   11 cycles
 SCF Done:  E(RB3LYP) =  -577.848639295     A.U. after   11 cycles
 SCF Done:  E(RB3LYP) =  -577.850063772     A.U. after   11 cycles
 SCF Done:  E(RB3LYP) =  -577.850503108     A.U. after   10 cycles
 SCF Done:  E(RB3LYP) =  -577.850701553     A.U. after   10 cycles
 SCF Done:  E(RB3LYP) =  -577.850720325     A.U. after    9 cycles
 SCF Done:  E(RB3LYP) =  -577.850725189     A.U. after    9 cycles
 SCF Done:  E(RB3LYP) =  -577.850726043     A.U. after    8 cycles
 SCF Done:  E(RB3LYP) =  -577.850727389     A.U. after    7 cycles
 SCF Done:  E(RB3LYP) =  -577.850727530     A.U. after    6 cycles
 SCF Done:  E(RB3LYP) =  -577.850727587     A.U. after    6 cycles
 Optimization completed.
    -- Stationary point found.
 Normal termination of Gaussian 16 at Sat May 27 19:00:25 2023.

 ----------------------------------------------------------------------
 #N Geom=AllCheck Guess=TCheck SCRF=Check GenChk RB3LYP/6-31G(2df,p) Fr
 eq
 ----------------------------------------------------------------------

 Structure from the checkpoint file:  "CCCCN1CCdCqCNrOC1C.chk"
 -------------------
 Title Card Required
 -------------------
 Charge =  0 Multiplicity = 1

                         Standard orientation:
 ---------------------------------------------------------------------
 Center     Atomic      Atomic             Coordinates (Angstroms)
 Number     Number       Type             X           Y           Z
 ---------------------------------------------------------------------
      1          6           0       -5.238395   -0.583923   -0.065448
      2          6           0       -3.809513   -0.775069   -0.581135
      3          6           0       -2.795916    0.148914    0.102713
      4          6           0       -1.369720   -0.047149   -0.420358
      5          7           0       -0.407654    0.857619    0.222916
      6          6           0        0.061873    0.363350    1.528956
      7          6           0        1.234873   -0.568695    1.370557
      8          6           0        1.902973   -0.651035    0.215004
      9          6           0        3.034325   -1.593768   -0.078324
     10          7           0        4.241714   -0.842340   -0.452209
     11          8           0        1.610282    0.113763   -0.878748
     12          6           0        0.697910    1.226299   -0.615464
     13          6           0        1.502852    2.404795   -0.073693
     14          1           0       -5.939740   -1.254657   -0.571623
     15          1           0       -5.583402    0.443262   -0.227622
     16          1           0       -5.301325   -0.786054    1.009653
     17          1           0       -3.785850   -0.601675   -1.665454
     18          1           0       -3.504722   -1.820124   -0.436640
     19          1           0       -2.825341   -0.025216    1.186349
     20          1           0       -3.081016    1.197974   -0.044673
     21          1           0       -1.358778    0.162260   -1.495979
     22          1           0       -1.071049   -1.102972   -0.308972
     23          1           0       -0.772405   -0.145552    2.022212
     24          1           0        0.308818    1.216636    2.176946
     25          1           0        1.541607   -1.190567    2.203629
     26          1           0        2.695922   -2.298061   -0.859912
     27          1           0        3.242893   -2.182344    0.820473
     28          1           0        4.008968   -0.251067   -1.244825
     29          1           0        4.953557   -1.489438   -0.778281
     30          1           0        0.309222    1.471789   -1.606930
     31          1           0        2.020109    2.145228    0.852448
     32          1           0        0.837108    3.251010    0.114409
     33          1           0        2.257173    2.700190   -0.807008
 ---------------------------------------------------------------------

 SCF Done:  E(RB3LYP) =  -577.850727587     A.U. after    1 cycles

 The electronic state is 1-A.
 Alpha  occ. eigenvalues --  -19.15194 -14.31875 -14.29965 -10.25631 -10.22443
 Alpha  occ. eigenvalues --  -10.20574 -10.20348 -10.20080 -10.17850 -10.17371
 Alpha  occ. eigenvalues --  -10.17269 -10.17145 -10.15952  -1.05124  -0.91690
 Alpha  occ. eigenvalues --   -0.86990  -0.79045  -0.78210  -0.74085  -0.70657
 Alpha  occ. eigenvalues --   -0.68508  -0.63985  -0.62441  -0.60225  -0.57516
 Alpha  occ. eigenvalues --   -0.51826  -0.50154  -0.48327  -0.46998  -0.46108
 Alpha  occ. eigenvalues --   -0.44925  -0.44077  -0.43132  -0.42448  -0.41400
 Alpha  occ. eigenvalues --   -0.40825  -0.38938  -0.38705  -0.37915  -0.37560
 Alpha  occ. eigenvalues --   -0.36798  -0.34866  -0.34727  -0.33515  -0.33147
 Alpha  occ. eigenvalues --   -0.32618  -0.31994  -0.31232  -0.23186  -0.21821
 Alpha  occ. eigenvalues --   -0.20699
 Alpha virt. eigenvalues --    0.04234   0.08301   0.09642   0.10520   0.11158
 Alpha virt. eigenvalues --    0.12070   0.13162   0.13371   0.13937   0.14527
 Alpha virt. eigenvalues --    0.15471   0.16559   0.16915   0.17100   0.17315

 Mulliken charges:
               1
     1  C   -0.379592
     2  C   -0.162775
     3  C   -0.167055
     4  C   -0.152146
     5  N   -0.066251
     6  C   -0.253455
     7  C   -0.224855
     8  C    0.429068
     9  C   -0.246203
    10  N   -0.512053
    11  O   -0.306807
    12  C    0.109759
    13  C   -0.405677
    14  H    0.110574
    15  H    0.114298
    16  H    0.113474
    17  H    0.094106
    18  H    0.095690
    19  H    0.093828
    20  H    0.097736
    21  H    0.097177
    22  H    0.094894
    23  H    0.109698
    24  H    0.109074
    25  H    0.083307
    26  H    0.090402
    27  H    0.107739
    28  H    0.232856
    29  H    0.223329
    30  H    0.085689
    31  H    0.139171
    32  H    0.122817
    33  H    0.122183
 Sum of Mulliken charges =  -0.00000

 Dipole moment (field-independent basis, Debye):
    X=             -0.6970    Y=             -0.5220    Z=             -0.6080  Tot=              1.0621
 Quadrupole moment (field-independent basis, Debye-Ang):
   XX=            -83.2169   YY=            -78.4394   ZZ=            -78.6014
   XY=             -2.5642   XZ=             -3.3714   YZ=             -1.2128

  Exact polarizability: 149.021  -3.148 113.514  -6.544  -2.637 113.120
 Approx polarizability: 175.956  -5.988 163.770 -14.264  -4.697 187.737

                      1                      2                      3
                      A                      A                      A
 Frequencies --     37.6478                53.4640                65.6412
 Red. masses --      3.7178                 2.4136                 1.9246
 Frc consts  --      0.0031                 0.0041                 0.0049
 IR Inten    --      0.0401                 0.2235                 0.4387

                      4                      5                      6
                      A                      A                      A
 Frequencies --     89.8748               100.0857               134.1017
 Red. masses --      2.7720                 3.8754                 2.2668
 Frc consts  --      0.0132                 0.0229                 0.0240
 IR Inten    --      0.8860                 2.7771                 0.2593

                      7                      8                      9
                      A                      A                      A
 Frequencies --    160.9317               175.2448               213.9166
 Red. masses --      2.5026                 2.6160                 1.2666
 Frc consts  --      0.0382                 0.0473                 0.0341
 IR Inten    --      1.4685                 1.1397                 0.5818

                     10                     11                     12
                      A                      A                      A
 Frequencies --    236.4940               245.2667               271.7527
 Red. masses --      1.1642                 1.1382                 2.3759
 Frc consts  --      0.0384                 0.0403                 0.1034
 IR Inten    --     46.9554                 3.4679                 0.0146

                     13                     14                     15
                      A                      A                      A
 Frequencies --    284.0718               310.5493               344.1874
 Red. masses --      3.0709                 2.4686                 2.5782
 Frc consts  --      0.1460                 0.1403                 0.1799
 IR Inten    --      1.6626                11.5764                 1.2796

                     16                     17                     18
                      A                      A                      A
 Frequencies --    364.3244               410.1758               444.8675
 Red. masses --      3.2771                 3.2369                 2.2470
 Frc consts  --      0.2563                 0.3209                 0.2620
 IR Inten    --      1.5897                 4.9706                 3.0428

                     19                     20                     21
                      A                      A                      A
 Frequencies --    533.6236               547.6457               586.8906
 Red. masses --      3.7501                 3.7765                 4.6420
 Frc consts  --      0.6292                 0.6673                 0.9420
 IR Inten    --      1.0529                 7.8231                 5.1675

                     22                     23                     24
                      A                      A                      A
 Frequencies --    669.4224               737.2542               747.4531
 Red. masses --      4.3141                 1.0816                 3.0071
 Frc consts  --      1.1390                 0.3464                 0.9899
 IR Inten    --      7.1203                 2.6903                14.0573

                     25                     26                     27
                      A                      A                      A
 Frequencies --    773.2603               793.4766               801.1499
 Red. masses --      1.2782                 2.5352                 1.4029
 Frc consts  --      0.4503                 0.9405                 0.5305
 IR Inten    --     15.1408                 8.4541                 2.6629

                     28                     29                     30
                      A                      A                      A
 Frequencies --    838.1342               886.1013               907.9544
 Red. masses --      2.0629                 1.7505                 1.9841
 Frc consts  --      0.8538                 0.8098                 0.9637
 IR Inten    --    101.7308                61.8331                 4.5562

                     31                     32                     33
                      A                      A                      A
 Frequencies --    913.7451               946.7720               960.5869
 Red. masses --      1.8605                 1.4198                 2.2727
 Frc consts  --      0.9152                 0.7499                 1.2356
 IR Inten    --      8.4013                 2.9080                12.5579

                     34                     35                     36
                      A                      A                      A
 Frequencies --    982.9049              1019.5074              1026.4095
 Red. masses --      2.1172                 2.8892                 2.7875
 Frc consts  --      1.2051                 1.7693                 1.7302
 IR Inten    --     27.9834                 7.3285                21.2551

                     37                     38                     39
                      A                      A                      A
 Frequencies --   1043.7299              1060.5338              1072.0459
 Red. masses --      2.3811                 2.2819                 2.0344
 Frc consts  --      1.5283                 1.5122                 1.3775
 IR Inten    --     10.3640                24.0854                62.6113

                     40                     41                     42
                      A                      A                      A
 Frequencies --   1082.1004              1105.1448              1130.6468
 Red. masses --      1.7460                 2.4407                 2.3341
 Frc consts  --      1.2046                 1.7563                 1.7580
 IR Inten    --      7.2658                25.9700                10.7693

                     43                     44                     45
                      A                      A                      A
 Frequencies --   1140.2742              1162.6599              1175.3140
 Red. masses --      2.1416                 1.7302                 1.2803
 Frc consts  --      1.6406                 1.3780                 1.0420
 IR Inten    --     48.0170                32.6665                15.9408

                     46                     47                     48
                      A                      A                      A
 Frequencies --   1209.4841              1228.7243              1266.1515
 Red. masses --      2.2382                 2.0531                 1.5532
 Frc consts  --      1.9291                 1.8262                 1.4671
 IR Inten    --     15.8651                18.8679                 6.0896

                     49                     50                     51
                      A                      A                      A
 Frequencies --   1288.1781              1295.5723              1302.1934
 Red. masses --      1.2975                 1.2417                 1.3591
 Frc consts  --      1.2686                 1.2279                 1.3578
 IR Inten    --      3.4570                 6.0810                 6.7440

                     52                     53                     54
                      A                      A                      A
 Frequencies --   1325.1608              1325.9176              1349.7968
 Red. masses --      1.2744                 1.0854                 1.2993
 Frc consts  --      1.3186                 1.1243                 1.3948
 IR Inten    --     18.7282                 1.2302                13.1549

                     55                     56                     57
                      A                      A                      A
 Frequencies --   1361.8348              1382.8991              1392.4701
 Red. masses --      1.2782                 1.4984                 1.6069
 Frc consts  --      1.3967                 1.6883                 1.8357
 IR Inten    --     27.8918                 7.6334                28.2541

                     58                     59                     60
                      A                      A                      A
 Frequencies --   1400.3878              1404.9324              1413.2919
 Red. masses --      1.3319                 1.4641                 1.2542
 Frc consts  --      1.5389                 1.7027                 1.4760
 IR Inten    --     10.3395                37.9425                 6.6490

                     61                     62                     63
                      A                      A                      A
 Frequencies --   1431.3873              1435.0068              1480.6225
 Red. masses --      1.5222                 1.4045                 1.0764
 Frc consts  --      1.8376                 1.7040                 1.3903
 IR Inten    --     28.8903                 3.6366                 0.8448

                     64                     65                     66
                      A                      A                      A
 Frequencies --   1485.7585              1487.4404              1491.1817
 Red. masses --      1.0518                 1.0621                 1.0651
 Frc consts  --      1.3680                 1.3846                 1.3955
 IR Inten    --      3.4728                 1.2664                 2.3991

                     67                     68                     69
                      A                      A                      A
 Frequencies --   1496.4505              1499.8807              1501.7450
 Red. masses --      1.0925                 1.0405                 1.0690
 Frc consts  --      1.4414                 1.3792                 1.4204
 IR Inten    --      2.3632                 5.2649                 0.3198

                     70                     71                     72
                      A                      A                      A
 Frequencies --   1509.9622              1514.2483              1648.3846
 Red. masses --      1.0778                 1.0930                 1.0870
 Frc consts  --      1.4479                 1.4766                 1.7403
 IR Inten    --      1.7453                 3.1454                33.8630

                     73                     74                     75
                      A                      A                      A
 Frequencies --   1736.1667              2932.4892              2963.9317
 Red. masses --      7.4881                 1.0723                 1.0695
 Frc consts  --     13.2986                 5.4329                 5.5356
 IR Inten    --     46.5727                62.2662                36.5567

                     76                     77                     78
                      A                      A                      A
 Frequencies --   2993.5073              3010.3503              3020.3220
 Red. masses --      1.0735                 1.0588                 1.0608
 Frc consts  --      5.6678                 5.6533                 5.7013
 IR Inten    --     45.2767                 8.4119                34.8611

                     79                     80                     81
                      A                      A                      A
 Frequencies --   3029.1519              3035.7346              3048.9110
 Red. masses --      1.0374                 1.0970                 1.0911
 Frc consts  --      5.6084                 5.9565                 5.9758
 IR Inten    --     38.0262                 6.8798                 6.1936

                     82                     83                     84
                      A                      A                      A
 Frequencies --   3054.9366              3063.1926              3070.7278
 Red. masses --      1.0352                 1.0904                 1.0983
 Frc consts  --      5.6919                 6.0281                 6.1020
 IR Inten    --     13.3072                18.5044                26.9863

                     85                     86                     87
                      A                      A                      A
 Frequencies --   3073.8723              3077.7879              3095.6962
 Red. masses --      1.0877                 1.0887                 1.1020
 Frc consts  --      6.0551                 6.0761                 6.2225
 IR Inten    --     25.7018                46.4188                60.8186

                     88                     89                     90
                      A                      A                      A
 Frequencies --   3100.5507              3129.9316              3138.9276
 Red. masses --      1.1011                 1.1025                 1.1013
 Frc consts  --      6.2366                 6.3634                 6.3935
 IR Inten    --     38.3555                15.2280                19.4363

                     91                     92                     93
                      A                      A                      A
 Frequencies --   3190.5369              3491.1732              3570.5518
 Red. masses --      1.0905                 1.0491                 1.0918
 Frc consts  --      6.5403                 7.5340                 8.2009
 IR Inten    --     12.7854                 2.3179                 0.6748

 - Thermochemistry -
 -------------------
 Temperature   298.150 Kelvin.  Pressure   1.00000 Atm.
 Atom     1 has atomic number  6 and mass  12.00000

 Molecular mass:   184.15756 amu.
 Principal axes and moments of inertia in atomic units:
                           1         2         3
     Eigenvalues --  1132.483655151.295105514.93137
           X            0.99999   0.00511  -0.00015
           Y           -0.00510   0.99997   0.00657
           Z            0.00018  -0.00657   0.99998
 This molecule is an asymmetric top.
 Rotational symmetry number  1.
 Warning -- assumption of classical behavior for rotation
           may cause significant error
 Rotational temperatures (Kelvin)      0.07648     0.01681     0.01571
 Rotational constants (GHZ):           1.59361     0.35035     0.32725
 Zero-point vibrational energy     779635.4 (Joules/Mol)
                                  186.33732 (Kcal/Mol)
 Warning -- explicit consideration of  21 degrees of freedom as
           vibrations may cause significant error
 Vibrational temperatures:     54.17    76.92    94.44   129.31   144.00
          (Kelvin)            192.94   231.54   252.14   307.78   340.26
                              352.88   390.99   408.72   446.81   495.21
                              524.18   590.15   640.07   767.77   787.94
                              844.40   963.15  1060.74  1075.42  1112.55
                             1141.64  1152.68  1205.89  1274.90  1306.34
                             1314.68  1362.19  1382.07  1414.18  1466.84
                             1476.77  1501.69  1525.87  1542.43  1556.90
                             1590.06  1626.75  1640.60  1672.81  1691.01
                             1740.18  1767.86  1821.71  1853.40  1864.04
                             1873.57  1906.61  1907.70  1942.06  1959.38
                             1989.68  2003.45  2014.85  2021.38  2033.41
                             2059.45  2064.65  2130.29  2137.68  2140.09
                             2145.48  2153.06  2157.99  2160.68  2172.50
                             2178.67  2371.66  2497.96  4219.20  4264.44
                             4306.99  4331.22  4345.57  4358.27  4367.74
                             4386.70  4395.37  4407.25  4418.09  4422.62
                             4428.25  4454.02  4461.00  4503.27  4516.22
                             4590.47  5023.02  5137.23

 Zero-point correction=                           0.296947 (Hartree/Particle)
 Thermal correction to Energy=                    0.311763
 Thermal correction to Enthalpy=                  0.312707
 Thermal correction to Gibbs Free Energy=         0.254734
 Sum of electronic and zero-point Energies=           -577.553780
 Sum of electronic and thermal Energies=              -577.538965
 Sum of electronic and thermal Enthalpies=            -577.538021
 Sum of electronic and thermal Free Energies=         -577.595993

                     E (Thermal)             CV                S
                      KCal/Mol        Cal/Mol-Kelvin    Cal/Mol-Kelvin
 Total                  195.634             55.189            122.014
 Electronic               0.000              0.000              0.000
 Translational            0.889              2.981             41.538
 Rotational               0.889              2.981             31.842
 Vibrational            193.857             49.227             48.633
 Vibration     1          0.594              1.982              5.379
 Vibration     2          0.596              1.976              4.685
 Vibration     3          0.597              1.971              4.280
 Vibration     4          0.602              1.956              3.663
 Vibration     5          0.604              1.949              3.453
 Vibration     6          0.613              1.919              2.886
 Vibration     7          0.622              1.890              2.539
 Vibration     8          0.627              1.873              2.378
 Vibration     9          0.644              1.820              2.010
 Vibration    10          0.655              1.785              1.829
 Vibration    11          0.660              1.771              1.764
 Vibration    12          0.675              1.725              1.585
 Vibration    13          0.682              1.703              1.509
 Vibration    14          0.699              1.654              1.359
 Vibration    15          0.723              1.587              1.193
 Vibration    16          0.738              1.546              1.104
 Vibration    17          0.774              1.448              0.926
 Vibration    18          0.804              1.372              0.811
 Vibration    19          0.889              1.176              0.579
 Vibration    20          0.903              1.145              0.549
 Vibration    21          0.944              1.060              0.473

 Optimization completed.
    -- Stationary point found.
 Normal termination of Gaussian 16 at Sat May 27 20:45:52 2023.
