 Gaussian 16, Revision A.03,
 Gaussian 16:  ES64L-G16RevA.03 25-Dec-2016

 -----------------------------
 # opt freq b3lyp/6-31g(2df,p)
 -----------------------------

 -------------------
 Title Card Required
 -------------------
 Symbolic Z-matrix:
 Charge =  0 Multiplicity = 1

 SCF Done:  E(RB3LYP) =  -315.735125601     A.U. after   12 cycles
 SCF Done:  E(RB3LYP) =  -315.737505599     A.U. after   10 cycles
 SCF Done:  E(RB3LYP) =  -315.737882539     A.U. after    8 cycles
 SCF Done:  E(RB3LYP) =  -315.737914675     A.U. after    8 cycles
 SCF Done:  E(RB3LYP) =  -315.737921581     A.U. after    8 cycles
 SCF Done:  E(RB3LYP) =  -315.737922893     A.U. after    6 cycles
 SCF Done:  E(RB3LYP) =  -315.737922945     A.U. after    5 cycles
 Optimization completed.
    -- Stationary point found.
 Normal termination of Gaussian 16 at Sun May 28 03:32:51 2023.

 ----------------------------------------------------------------------
 #N Geom=AllCheck Guess=TCheck SCRF=Check GenChk RB3LYP/6-31G(2df,p) Fr
 eq
 ----------------------------------------------------------------------

 Structure from the checkpoint file:  "CCCCCqCrCC.chk"
 -------------------
 Title Card Required
 -------------------
 Charge =  0 Multiplicity = 1

                         Standard orientation:
 ---------------------------------------------------------------------
 Center     Atomic      Atomic             Coordinates (Angstroms)
 Number     Number       Type             X           Y           Z
 ---------------------------------------------------------------------
      1          6           0       -4.022527    0.109661   -0.278736
      2          6           0       -2.741265   -0.543357    0.246657
      3          6           0       -1.465799    0.176095   -0.207794
      4          6           0       -0.184779   -0.479765    0.321469
      5          6           0        1.133916    0.134161   -0.187490
      6          6           0        1.308566    1.586951    0.279636
      7          6           0        2.323948   -0.750312    0.233930
      8          6           0        3.671692   -0.365341   -0.385072
      9          1           0       -4.914432   -0.426124    0.061362
     10          1           0       -4.039753    0.122520   -1.374378
     11          1           0       -4.107288    1.147304    0.063311
     12          1           0       -2.702365   -1.590766   -0.081141
     13          1           0       -2.768109   -0.572115    1.344188
     14          1           0       -1.517511    1.223741    0.114422
     15          1           0       -1.435601    0.197877   -1.306655
     16          1           0       -0.201070   -1.543649    0.047350
     17          1           0       -0.190767   -0.453538    1.421197
     18          1           0        1.096732    0.134297   -1.288098
     19          1           0        1.346929    1.639866    1.374962
     20          1           0        0.483777    2.222414   -0.054707
     21          1           0        2.231796    2.028116   -0.106503
     22          1           0        2.096308   -1.789040   -0.038180
     23          1           0        2.406995   -0.737716    1.329916
     24          1           0        3.615079   -0.355587   -1.479691
     25          1           0        4.449810   -1.080999   -0.100900
     26          1           0        4.006956    0.624835   -0.062054
 ---------------------------------------------------------------------

 SCF Done:  E(RB3LYP) =  -315.737922945     A.U. after    1 cycles

 The electronic state is 1-A.
 Alpha  occ. eigenvalues --  -10.17900 -10.17436 -10.17264 -10.17152 -10.17018
 Alpha  occ. eigenvalues --  -10.16863 -10.16837 -10.16605  -0.81146  -0.77742
 Alpha  occ. eigenvalues --   -0.72892  -0.69649  -0.64852  -0.60520  -0.56987
 Alpha  occ. eigenvalues --   -0.54926  -0.46961  -0.45106  -0.44015  -0.42458
 Alpha  occ. eigenvalues --   -0.41079  -0.40169  -0.38606  -0.37336  -0.36365
 Alpha  occ. eigenvalues --   -0.35661  -0.34501  -0.33497  -0.32773  -0.31798
 Alpha  occ. eigenvalues --   -0.31232  -0.30647  -0.29449
 Alpha virt. eigenvalues --    0.08545   0.10025   0.11562   0.12064   0.12848
 Alpha virt. eigenvalues --    0.14169   0.14747   0.15775   0.16717   0.17094
 Alpha virt. eigenvalues --    0.17716   0.17898   0.19128   0.19182   0.19818

 Mulliken charges:
               1
     1  C   -0.379960
     2  C   -0.160525
     3  C   -0.172615
     4  C   -0.176677
     5  C    0.044034
     6  C   -0.389358
     7  C   -0.164302
     8  C   -0.391451
     9  H    0.109396
    10  H    0.112206
    11  H    0.112231
    12  H    0.092551
    13  H    0.093044
    14  H    0.094507
    15  H    0.088602
    16  H    0.085623
    17  H    0.087102
    18  H    0.064343
    19  H    0.108125
    20  H    0.113614
    21  H    0.112187
    22  H    0.088921
    23  H    0.089729
    24  H    0.111440
    25  H    0.110132
    26  H    0.117101
 Sum of Mulliken charges =  -0.00000

 Dipole moment (field-independent basis, Debye):
    X=             -0.0027    Y=             -0.0603    Z=             -0.0096  Tot=              0.0611
 Quadrupole moment (field-independent basis, Debye-Ang):
   XX=            -55.7577   YY=            -54.7803   ZZ=            -54.2243
   XY=              0.0270   XZ=             -0.0397   YZ=              0.3410

  Exact polarizability: 109.010  -0.645  82.655  -0.271  -0.237  77.816
 Approx polarizability: 121.809  -0.045 119.820  -0.043   0.465 120.272

                      1                      2                      3
                      A                      A                      A
 Frequencies --     51.5268                63.6067                95.1675
 Red. masses --      1.8726                 2.0752                 2.0383
 Frc consts  --      0.0029                 0.0049                 0.0109
 IR Inten    --      0.0016                 0.0045                 0.0080

                      4                      5                      6
                      A                      A                      A
 Frequencies --    112.7505               134.2831               210.6778
 Red. masses --      2.6175                 1.8974                 1.0530
 Frc consts  --      0.0196                 0.0202                 0.0275
 IR Inten    --      0.0045                 0.0078                 0.0487

                      7                      8                      9
                      A                      A                      A
 Frequencies --    242.5710               248.2118               262.3789
 Red. masses --      1.1895                 2.0361                 1.3244
 Frc consts  --      0.0412                 0.0739                 0.0537
 IR Inten    --      0.0034                 0.0054                 0.0022

                     10                     11                     12
                      A                      A                      A
 Frequencies --    293.7812               328.2170               410.9357
 Red. masses --      3.2139                 2.4372                 1.9816
 Frc consts  --      0.1634                 0.1547                 0.1972
 IR Inten    --      0.0209                 0.0513                 0.0552

                     13                     14                     15
                      A                      A                      A
 Frequencies --    454.8327               502.2675               734.3920
 Red. masses --      2.4314                 2.5112                 1.0816
 Frc consts  --      0.2964                 0.3733                 0.3437
 IR Inten    --      0.2932                 0.1563                 2.4230

                     16                     17                     18
                      A                      A                      A
 Frequencies --    772.2537               784.0980               828.1044
 Red. masses --      1.2722                 1.3389                 1.6873
 Frc consts  --      0.4470                 0.4850                 0.6817
 IR Inten    --      2.6540                 0.1523                 0.0834

                     19                     20                     21
                      A                      A                      A
 Frequencies --    904.1216               911.4493               914.8628
 Red. masses --      1.7844                 2.2052                 1.2320
 Frc consts  --      0.8594                 1.0794                 0.6075
 IR Inten    --      1.6810                 0.5723                 1.3570

                     22                     23                     24
                      A                      A                      A
 Frequencies --    972.2943              1002.4365              1016.3525
 Red. masses --      1.1927                 1.5990                 2.4983
 Frc consts  --      0.6643                 0.9467                 1.5205
 IR Inten    --      2.4979                 2.8295                 0.7257

                     25                     26                     27
                      A                      A                      A
 Frequencies --   1048.6123              1052.8801              1073.2926
 Red. masses --      1.7087                 1.9631                 2.4527
 Frc consts  --      1.1070                 1.2822                 1.6647
 IR Inten    --      0.0090                 0.3719                 0.0620

                     28                     29                     30
                      A                      A                      A
 Frequencies --   1097.1688              1166.4203              1177.0175
 Red. masses --      1.8527                 2.4717                 1.8376
 Frc consts  --      1.3140                 1.9814                 1.4999
 IR Inten    --      1.2934                 0.5021                 7.2362

                     31                     32                     33
                      A                      A                      A
 Frequencies --   1202.1070              1246.4390              1272.4452
 Red. masses --      1.9955                 1.4482                 1.2725
 Frc consts  --      1.6990                 1.3256                 1.2139
 IR Inten    --      0.0541                 2.6977                 3.0872

                     34                     35                     36
                      A                      A                      A
 Frequencies --   1298.6934              1316.5161              1325.1652
 Red. masses --      1.2314                 1.2317                 1.1878
 Frc consts  --      1.2236                 1.2578                 1.2290
 IR Inten    --      0.7688                 0.4341                 0.0379

                     37                     38                     39
                      A                      A                      A
 Frequencies --   1333.3128              1370.8617              1380.6013
 Red. masses --      1.0887                 1.3803                 1.3131
 Frc consts  --      1.1403                 1.5283                 1.4746
 IR Inten    --      0.3665                 3.7668                 1.9268

                     40                     41                     42
                      A                      A                      A
 Frequencies --   1385.1818              1398.5285              1410.8495
 Red. masses --      1.5171                 1.5332                 1.2750
 Frc consts  --      1.7150                 1.7669                 1.4953
 IR Inten    --      0.4263                 1.2093                 2.1926

                     43                     44                     45
                      A                      A                      A
 Frequencies --   1413.1926              1414.8955              1475.8273
 Red. masses --      1.2386                 1.2616                 1.0764
 Frc consts  --      1.4575                 1.4881                 1.3814
 IR Inten    --      0.3613                 5.0585                 0.1320

                     46                     47                     48
                      A                      A                      A
 Frequencies --   1485.2051              1487.2304              1496.3766
 Red. masses --      1.0663                 1.0684                 1.0452
 Frc consts  --      1.3858                 1.3923                 1.3789
 IR Inten    --      0.1984                 0.5230                 4.1175

                     49                     50                     51
                      A                      A                      A
 Frequencies --   1498.5129              1499.7461              1499.8374
 Red. masses --      1.0565                 1.0467                 1.0635
 Frc consts  --      1.3977                 1.3871                 1.4095
 IR Inten    --      1.1151                 5.7147                 0.4083

                     52                     53                     54
                      A                      A                      A
 Frequencies --   1507.7065              1512.5171              1514.6936
 Red. masses --      1.0670                 1.0776                 1.0545
 Frc consts  --      1.4290                 1.4525                 1.4254
 IR Inten    --      4.0599                 1.2152                 6.9172

                     55                     56                     57
                      A                      A                      A
 Frequencies --   2980.1073              2995.0439              3004.0900
 Red. masses --      1.0804                 1.0594                 1.0613
 Frc consts  --      5.6531                 5.5989                 5.6429
 IR Inten    --      8.1885                 3.4713                 1.4672

                     58                     59                     60
                      A                      A                      A
 Frequencies --   3008.6043              3015.1974              3025.4329
 Red. masses --      1.0603                 1.0621                 1.0863
 Frc consts  --      5.6546                 5.6892                 5.8583
 IR Inten    --     26.6823                77.4114                12.2766

                     61                     62                     63
                      A                      A                      A
 Frequencies --   3027.6522              3028.2536              3031.2265
 Red. masses --      1.0394                 1.0454                 1.0411
 Frc consts  --      5.6136                 5.6483                 5.6359
 IR Inten    --     38.5080                14.2616                24.0241

                     64                     65                     66
                      A                      A                      A
 Frequencies --   3035.8137              3043.4465              3061.3445
 Red. masses --      1.0965                 1.0995                 1.1031
 Frc consts  --      5.9539                 6.0005                 6.0908
 IR Inten    --      2.9941                21.4177                72.1632

                     67                     68                     69
                      A                      A                      A
 Frequencies --   3093.6728              3095.0680              3095.9282
 Red. masses --      1.1020                 1.1004                 1.0963
 Frc consts  --      6.2142                 6.2109                 6.1910
 IR Inten    --     56.4345                36.9888                35.4583

                     70                     71                     72
                      A                      A                      A
 Frequencies --   3098.9220              3104.2638              3112.1789
 Red. masses --      1.1009                 1.1001                 1.1000
 Frc consts  --      6.2292                 6.2461                 6.2773
 IR Inten    --     41.3280                55.0036                30.7083

 - Thermochemistry -
 -------------------
 Temperature   298.150 Kelvin.  Pressure   1.00000 Atm.
 Atom     1 has atomic number  6 and mass  12.00000

 Molecular mass:   114.14085 amu.
 Principal axes and moments of inertia in atomic units:
                           1         2         3
     Eigenvalues --   335.042122644.876982820.48029
           X            1.00000  -0.00021   0.00023
           Y            0.00021   0.99999  -0.00345
           Z           -0.00023   0.00345   0.99999
 This molecule is an asymmetric top.
 Rotational symmetry number  1.
 Rotational temperatures (Kelvin)      0.25852     0.03275     0.03071
 Rotational constants (GHZ):           5.38661     0.68235     0.63987
 Zero-point vibrational energy     642811.3 (Joules/Mol)
                                  153.63558 (Kcal/Mol)
 Warning -- explicit consideration of  14 degrees of freedom as
           vibrations may cause significant error
 Vibrational temperatures:     74.14    91.52   136.92   162.22   193.20
          (Kelvin)            303.12   349.01   357.12   377.50   422.69
                              472.23   591.24   654.40   722.65  1056.63
                             1111.10  1128.14  1191.46  1300.83  1311.37
                             1316.28  1398.91  1442.28  1462.30  1508.72
                             1514.86  1544.23  1578.58  1678.22  1693.47
                             1729.56  1793.35  1830.76  1868.53  1894.17
                             1906.62  1918.34  1972.36  1986.38  1992.97
                             2012.17  2029.90  2033.27  2035.72  2123.39
                             2136.88  2139.79  2152.95  2156.03  2157.80
                             2157.93  2169.25  2176.17  2179.31  4287.71
                             4309.20  4322.22  4328.71  4338.20  4352.92
                             4356.12  4356.98  4361.26  4367.86  4378.84
                             4404.59  4451.11  4453.11  4454.35  4458.66
                             4466.34  4477.73

 Zero-point correction=                           0.244834 (Hartree/Particle)
 Thermal correction to Energy=                    0.255971
 Thermal correction to Enthalpy=                  0.256915
 Thermal correction to Gibbs Free Energy=         0.208031
 Sum of electronic and zero-point Energies=           -315.493089
 Sum of electronic and thermal Energies=              -315.481952
 Sum of electronic and thermal Enthalpies=            -315.481008
 Sum of electronic and thermal Free Energies=         -315.529891

                     E (Thermal)             CV                S
                      KCal/Mol        Cal/Mol-Kelvin    Cal/Mol-Kelvin
 Total                  160.624             39.815            102.885
 Electronic               0.000              0.000              0.000
 Translational            0.889              2.981             40.112
 Rotational               0.889              2.981             29.304
 Vibrational            158.847             33.853             33.469
 Vibration     1          0.596              1.977              4.758
 Vibration     2          0.597              1.972              4.342
 Vibration     3          0.603              1.953              3.551
 Vibration     4          0.607              1.939              3.221
 Vibration     5          0.613              1.919              2.884
 Vibration     6          0.643              1.825              2.038
 Vibration     7          0.659              1.775              1.784
 Vibration     8          0.662              1.766              1.743
 Vibration     9          0.670              1.742              1.646
 Vibration    10          0.689              1.685              1.452
 Vibration    11          0.711              1.619              1.269
 Vibration    12          0.775              1.446              0.923
 Vibration    13          0.813              1.350              0.781
 Vibration    14          0.858              1.245              0.652

                           ! Non-Optimized Parameters !
 Normal termination of Gaussian 16 at Sun May 28 04:02:20 2023.
