 Gaussian 16, Revision A.03,
 Gaussian 16:  ES64L-G16RevA.03 25-Dec-2016

 -----------------------------
 # opt freq b3lyp/6-31g(2df,p)
 -----------------------------

 -------------------
 Title Card Required
 -------------------
 Symbolic Z-matrix:
 Charge =  0 Multiplicity = 1

 SCF Done:  E(RB3LYP) =  -548.187121752     A.U. after   12 cycles
 SCF Done:  E(RB3LYP) =  -548.202627112     A.U. after   11 cycles
 SCF Done:  E(RB3LYP) =  -548.210407845     A.U. after   10 cycles
 SCF Done:  E(RB3LYP) =  -548.213103903     A.U. after   10 cycles
 SCF Done:  E(RB3LYP) =  -548.213812170     A.U. after   10 cycles
 SCF Done:  E(RB3LYP) =  -548.214446627     A.U. after   10 cycles
 SCF Done:  E(RB3LYP) =  -548.214595737     A.U. after    9 cycles
 SCF Done:  E(RB3LYP) =  -548.214676615     A.U. after   10 cycles
 SCF Done:  E(RB3LYP) =  -548.214739782     A.U. after   10 cycles
 SCF Done:  E(RB3LYP) =  -548.214950688     A.U. after   10 cycles
 SCF Done:  E(RB3LYP) =  -548.216298777     A.U. after    8 cycles
 SCF Done:  E(RB3LYP) =  -548.217041444     A.U. after   10 cycles
 SCF Done:  E(RB3LYP) =  -548.217088572     A.U. after    9 cycles
 SCF Done:  E(RB3LYP) =  -548.217106930     A.U. after    8 cycles
 SCF Done:  E(RB3LYP) =  -548.217113783     A.U. after    8 cycles
 SCF Done:  E(RB3LYP) =  -548.217115855     A.U. after    7 cycles
 SCF Done:  E(RB3LYP) =  -548.217116196     A.U. after    6 cycles
 SCF Done:  E(RB3LYP) =  -548.217116275     A.U. after    6 cycles
 SCF Done:  E(RB3LYP) =  -548.217116288     A.U. after    5 cycles
 Optimization completed.
    -- Stationary point found.
 Normal termination of Gaussian 16 at Tue May 23 14:38:34 2023.

 ----------------------------------------------------------------------
 #N Geom=AllCheck Guess=TCheck SCRF=Check GenChk RB3LYP/6-31G(2df,p) Fr
 eq
 ----------------------------------------------------------------------

 Structure from the checkpoint file:  "CCCCCCqOCCrCqCrqCrC.chk"
 -------------------
 Title Card Required
 -------------------
 Charge =  0 Multiplicity = 1

                         Standard orientation:
 ---------------------------------------------------------------------
 Center     Atomic      Atomic             Coordinates (Angstroms)
 Number     Number       Type             X           Y           Z
 ---------------------------------------------------------------------
      1          6           0       -5.472369   -0.411355    0.181225
      2          6           0       -4.147330    0.219375   -0.255427
      3          6           0       -2.922093   -0.610349    0.143367
      4          6           0       -1.592497    0.017310   -0.288839
      5          6           0       -0.372108   -0.815110    0.120969
      6          6           0        0.965436   -0.197361   -0.311173
      7          8           0        1.099590    1.074928    0.331745
      8          6           0        1.149016    2.202830   -0.523192
      9          6           0        1.287065    3.446695    0.339598
     10          6           0        2.224602   -1.062387   -0.000367
     11          6           0        2.371942   -1.290096    1.515518
     12          6           0        2.135762   -2.416195   -0.729766
     13          6           0        3.470855   -0.314527   -0.513164
     14          1           0       -6.327270    0.203517   -0.117591
     15          1           0       -5.513549   -0.531975    1.269601
     16          1           0       -5.604373   -1.403727   -0.264498
     17          1           0       -4.058966    1.224448    0.178112
     18          1           0       -4.149757    0.360045   -1.344662
     19          1           0       -3.010089   -1.617043   -0.289575
     20          1           0       -2.919696   -0.751388    1.233430
     21          1           0       -1.504721    1.018459    0.149184
     22          1           0       -1.595783    0.153303   -1.379933
     23          1           0       -0.463942   -1.819698   -0.307164
     24          1           0       -0.370935   -0.933850    1.210735
     25          1           0        0.938322   -0.045613   -1.402156
     26          1           0        0.235002    2.262705   -1.134603
     27          1           0        1.999454    2.124934   -1.218375
     28          1           0        0.437466    3.536947    1.022696
     29          1           0        1.326893    4.343128   -0.286722
     30          1           0        2.201407    3.400181    0.938402
     31          1           0        1.568326   -1.916437    1.914740
     32          1           0        2.359278   -0.336412    2.049708
     33          1           0        3.319287   -1.794148    1.735264
     34          1           0        1.337018   -3.049823   -0.334226
     35          1           0        3.075232   -2.967868   -0.616377
     36          1           0        1.961016   -2.282286   -1.803926
     37          1           0        3.585265    0.649580   -0.011860
     38          1           0        3.413689   -0.136580   -1.593447
     39          1           0        4.375012   -0.902809   -0.323222
 ---------------------------------------------------------------------

 SCF Done:  E(RB3LYP) =  -548.217116288     A.U. after    1 cycles

 The electronic state is 1-A.
 Alpha  occ. eigenvalues --  -19.12825 -10.22279 -10.22155 -10.18756 -10.17432
 Alpha  occ. eigenvalues --  -10.17215 -10.17200 -10.17124 -10.16990 -10.16863
 Alpha  occ. eigenvalues --  -10.16824 -10.16372 -10.16103  -1.01987  -0.81719
 Alpha  occ. eigenvalues --   -0.79466  -0.75932  -0.74074  -0.69147  -0.67756
 Alpha  occ. eigenvalues --   -0.67472  -0.63546  -0.60162  -0.58213  -0.57031
 Alpha  occ. eigenvalues --   -0.52809  -0.49216  -0.47512  -0.46485  -0.45068
 Alpha  occ. eigenvalues --   -0.43451  -0.42773  -0.42269  -0.41423  -0.40777
 Alpha  occ. eigenvalues --   -0.39439  -0.38708  -0.37837  -0.37227  -0.36730
 Alpha  occ. eigenvalues --   -0.36258  -0.35715  -0.35358  -0.34756  -0.33074
 Alpha  occ. eigenvalues --   -0.32855  -0.32377  -0.32325  -0.31580  -0.30502
 Alpha  occ. eigenvalues --   -0.30231  -0.29793  -0.24008
 Alpha virt. eigenvalues --    0.07905   0.09341   0.09850   0.10790   0.11484
 Alpha virt. eigenvalues --    0.12622   0.13095   0.13504   0.14336   0.14825
 Alpha virt. eigenvalues --    0.14952   0.15225   0.16215   0.16867   0.17203

 Mulliken charges:
               1
     1  C   -0.379071
     2  C   -0.163488
     3  C   -0.162931
     4  C   -0.182992
     5  C   -0.205730
     6  C    0.099127
     7  O   -0.272898
     8  C   -0.036927
     9  C   -0.389072
    10  C    0.266068
    11  C   -0.409579
    12  C   -0.418215
    13  C   -0.414602
    14  H    0.109223
    15  H    0.112785
    16  H    0.112016
    17  H    0.093312
    18  H    0.091710
    19  H    0.088155
    20  H    0.091547
    21  H    0.105964
    22  H    0.083999
    23  H    0.092015
    24  H    0.102634
    25  H    0.058611
    26  H    0.087332
    27  H    0.086964
    28  H    0.124910
    29  H    0.112487
    30  H    0.124625
    31  H    0.107416
    32  H    0.127024
    33  H    0.101904
    34  H    0.114025
    35  H    0.108839
    36  H    0.105535
    37  H    0.122952
    38  H    0.100389
    39  H    0.103935
 Sum of Mulliken charges =  -0.00000

 Dipole moment (field-independent basis, Debye):
    X=             -0.0775    Y=              0.0880    Z=             -0.8590  Tot=              0.8670
 Quadrupole moment (field-independent basis, Debye-Ang):
   XX=            -86.9760   YY=            -84.1577   ZZ=            -86.0776
   XY=             -0.1224   XZ=             -0.8029   YZ=             -0.8879

  Exact polarizability: 156.535  -1.798 138.941  -0.410  -1.070 118.081
 Approx polarizability: 185.957  -0.770 189.030   0.406  -0.998 185.185

                      1                      2                      3
                      A                      A                      A
 Frequencies --     39.1038                42.9719                53.2380
 Red. masses --      2.9082                 1.8680                 2.3677
 Frc consts  --      0.0026                 0.0020                 0.0040
 IR Inten    --      0.0306                 0.1155                 0.1099

                      4                      5                      6
                      A                      A                      A
 Frequencies --     63.4021                73.0155                95.5628
 Red. masses --      2.5195                 2.6412                 2.1202
 Frc consts  --      0.0060                 0.0083                 0.0114
 IR Inten    --      0.0412                 0.0584                 2.3033

                      7                      8                      9
                      A                      A                      A
 Frequencies --    123.2669               140.0532               186.9418
 Red. masses --      2.3420                 1.7588                 2.2916
 Frc consts  --      0.0210                 0.0203                 0.0472
 IR Inten    --      0.2564                 0.1217                 0.6947

                     10                     11                     12
                      A                      A                      A
 Frequencies --    189.9542               219.7532               232.8240
 Red. masses --      2.2781                 2.8089                 1.3707
 Frc consts  --      0.0484                 0.0799                 0.0438
 IR Inten    --      0.3944                 0.7645                 0.3375

                     13                     14                     15
                      A                      A                      A
 Frequencies --    246.0840               247.6271               263.1898
 Red. masses --      1.1592                 1.1239                 1.1372
 Frc consts  --      0.0414                 0.0406                 0.0464
 IR Inten    --      0.1458                 0.0062                 0.6005

                     16                     17                     18
                      A                      A                      A
 Frequencies --    272.1050               293.0069               302.0828
 Red. masses --      1.3800                 2.4063                 2.2433
 Frc consts  --      0.0602                 0.1217                 0.1206
 IR Inten    --      0.5237                 1.5673                 1.0416

                     19                     20                     21
                      A                      A                      A
 Frequencies --    324.4393               367.6248               383.7175
 Red. masses --      2.1956                 2.9853                 2.2329
 Frc consts  --      0.1362                 0.2377                 0.1937
 IR Inten    --      1.6000                 1.8401                 0.4182

                     22                     23                     24
                      A                      A                      A
 Frequencies --    402.3284               437.6666               505.7481
 Red. masses --      2.5216                 2.8553                 2.5722
 Frc consts  --      0.2405                 0.3222                 0.3876
 IR Inten    --      0.3014                 1.6425                 1.0136

                     25                     26                     27
                      A                      A                      A
 Frequencies --    532.0921               557.1996               735.4282
 Red. masses --      2.9911                 2.6241                 1.0729
 Frc consts  --      0.4989                 0.4800                 0.3419
 IR Inten    --      3.6559                 1.5308                 2.7609

                     28                     29                     30
                      A                      A                      A
 Frequencies --    757.1804               773.7293               818.7278
 Red. masses --      1.2068                 3.2484                 1.0868
 Frc consts  --      0.4076                 1.1458                 0.4292
 IR Inten    --      0.4820                 0.3368                 0.3527

                     31                     32                     33
                      A                      A                      A
 Frequencies --    824.7942               890.0168               894.4850
 Red. masses --      1.4383                 1.6599                 1.9967
 Frc consts  --      0.5765                 0.7747                 0.9413
 IR Inten    --      0.5824                 3.8955                 2.7202

                     34                     35                     36
                      A                      A                      A
 Frequencies --    913.9985               936.7925               938.3748
 Red. masses --      2.2157                 1.7098                 1.7012
 Frc consts  --      1.0906                 0.8841                 0.8826
 IR Inten    --      2.3242                 1.2107                 1.3251

                     37                     38                     39
                      A                      A                      A
 Frequencies --    956.9248               960.6564               996.7650
 Red. masses --      1.2270                 1.5647                 1.8744
 Frc consts  --      0.6620                 0.8508                 1.0972
 IR Inten    --      0.5086                 6.4771                 5.1141

                     40                     41                     42
                      A                      A                      A
 Frequencies --   1019.9921              1021.3209              1045.0468
 Red. masses --      1.8585                 2.3775                 1.5787
 Frc consts  --      1.1392                 1.4611                 1.0158
 IR Inten    --      9.3538                 1.1201                 0.8668

                     43                     44                     45
                      A                      A                      A
 Frequencies --   1060.4886              1069.2558              1079.7657
 Red. masses --      2.1070                 2.2848                 2.1118
 Frc consts  --      1.3961                 1.5391                 1.4506
 IR Inten    --      0.1358                 0.2842                 5.5451

                     46                     47                     48
                      A                      A                      A
 Frequencies --   1110.7851              1130.3846              1140.0359
 Red. masses --      3.0978                 2.2074                 2.6639
 Frc consts  --      2.2520                 1.6618                 2.0399
 IR Inten    --     94.7238                 1.8051               113.9999

                     49                     50                     51
                      A                      A                      A
 Frequencies --   1168.5040              1185.9235              1217.2255
 Red. masses --      2.1729                 1.5273                 1.9182
 Frc consts  --      1.7480                 1.2656                 1.6745
 IR Inten    --     21.9542                 3.3242                 3.7814

                     52                     53                     54
                      A                      A                      A
 Frequencies --   1239.3003              1244.3366              1259.6947
 Red. masses --      1.5479                 2.6549                 1.6974
 Frc consts  --      1.4007                 2.4220                 1.5869
 IR Inten    --      0.8062                 9.6891                 0.7738

                     55                     56                     57
                      A                      A                      A
 Frequencies --   1276.6278              1295.5828              1301.1292
 Red. masses --      2.2388                 1.1078                 1.2849
 Frc consts  --      2.1498                 1.0955                 1.2816
 IR Inten    --      4.9250                 0.0345                 0.4189

                     58                     59                     60
                      A                      A                      A
 Frequencies --   1323.6757              1329.1802              1334.9563
 Red. masses --      1.3468                 1.0513                 1.1339
 Frc consts  --      1.3903                 1.0943                 1.1905
 IR Inten    --      3.3125                 1.2820                 1.7080

                     61                     62                     63
                      A                      A                      A
 Frequencies --   1360.6366              1370.8119              1390.0562
 Red. masses --      1.3729                 1.2110                 1.3099
 Frc consts  --      1.4975                 1.3408                 1.4912
 IR Inten    --      7.0507                32.7110                 2.9066

                     64                     65                     66
                      A                      A                      A
 Frequencies --   1394.6718              1397.4864              1398.9147
 Red. masses --      1.3219                 1.3649                 1.5559
 Frc consts  --      1.5149                 1.5705                 1.7940
 IR Inten    --      3.7465                 3.9156                 2.5135

                     67                     68                     69
                      A                      A                      A
 Frequencies --   1402.8246              1412.9132              1425.9763
 Red. masses --      1.2470                 1.2464                 1.2445
 Frc consts  --      1.4458                 1.4660                 1.4910
 IR Inten    --      3.4602                 0.9643                14.5778

                     70                     71                     72
                      A                      A                      A
 Frequencies --   1440.5589              1474.2115              1479.6321
 Red. masses --      1.3561                 1.0843                 1.0491
 Frc consts  --      1.6580                 1.3885                 1.3533
 IR Inten    --     10.0360                 0.4989                 0.2128

                     73                     74                     75
                      A                      A                      A
 Frequencies --   1482.4908              1483.9849              1488.8072
 Red. masses --      1.0415                 1.0677                 1.0478
 Frc consts  --      1.3486                 1.3853                 1.3684
 IR Inten    --      4.4568                 0.1319                 0.3128

                     76                     77                     78
                      A                      A                      A
 Frequencies --   1490.1461              1492.3188              1499.6859
 Red. masses --      1.0669                 1.0496                 1.0453
 Frc consts  --      1.3958                 1.3772                 1.3851
 IR Inten    --      0.4424                 0.6166                 1.1938

                     79                     80                     81
                      A                      A                      A
 Frequencies --   1499.8336              1503.6821              1505.2586
 Red. masses --      1.0405                 1.0752                 1.0558
 Frc consts  --      1.3790                 1.4324                 1.4094
 IR Inten    --      4.3388                 0.9630                 2.8550

                     82                     83                     84
                      A                      A                      A
 Frequencies --   1508.3675              1514.1245              1522.0368
 Red. masses --      1.0577                 1.0922                 1.0658
 Frc consts  --      1.4179                 1.4753                 1.4547
 IR Inten    --      3.6801                 1.9510                10.6211

                     85                     86                     87
                      A                      A                      A
 Frequencies --   1531.0049              2964.1547              2977.9335
 Red. masses --      1.0807                 1.0702                 1.0667
 Frc consts  --      1.4925                 5.5399                 5.5735
 IR Inten    --      4.8739                 2.0800                55.0038

                     88                     89                     90
                      A                      A                      A
 Frequencies --   2998.4669              2999.4408              3004.3577
 Red. masses --      1.0820                 1.0754                 1.0700
 Frc consts  --      5.7317                 5.7001                 5.6905
 IR Inten    --     24.0459                23.7690                16.2840

                     91                     92                     93
                      A                      A                      A
 Frequencies --   3014.2994              3023.0113              3024.9656
 Red. masses --      1.0623                 1.0373                 1.0943
 Frc consts  --      5.6870                 5.5851                 5.8997
 IR Inten    --     49.0376                19.2590                 3.8454

                     94                     95                     96
                      A                      A                      A
 Frequencies --   3027.3352              3027.6265              3033.5017
 Red. masses --      1.0370                 1.0359                 1.0508
 Frc consts  --      5.5997                 5.5949                 5.6969
 IR Inten    --     44.7713                31.1553                11.5591

                     97                     98                     99
                      A                      A                      A
 Frequencies --   3038.0910              3041.9283              3046.3939
 Red. masses --      1.0460                 1.0347                 1.0981
 Frc consts  --      5.6884                 5.6412                 6.0043
 IR Inten    --     40.5105                16.0019                19.2809

                    100                    101                    102
                      A                      A                      A
 Frequencies --   3060.8507              3082.6007              3084.7753
 Red. masses --      1.0992                 1.1034                 1.1007
 Frc consts  --      6.0676                 6.1778                 6.1713
 IR Inten    --     13.0218                45.6974                 0.1310

                    103                    104                    105
                      A                      A                      A
 Frequencies --   3090.0736              3093.8715              3097.5575
 Red. masses --      1.0998                 1.1020                 1.1000
 Frc consts  --      6.1872                 6.2149                 6.2182
 IR Inten    --     60.0881                66.1515                40.1283

                    106                    107                    108
                      A                      A                      A
 Frequencies --   3099.0486              3106.5371              3116.2139
 Red. masses --      1.1010                 1.0992                 1.1014
 Frc consts  --      6.2298                 6.2499                 6.3018
 IR Inten    --     37.1927                40.2998                27.5756

                    109                    110                    111
                      A                      A                      A
 Frequencies --   3117.6003              3117.6270              3120.8620
 Red. masses --      1.1017                 1.1008                 1.0999
 Frc consts  --      6.3088                 6.3040                 6.3116
 IR Inten    --     11.6070                24.3833                36.7989

 - Thermochemistry -
 -------------------
 Temperature   298.150 Kelvin.  Pressure   1.00000 Atm.
 Atom     1 has atomic number  6 and mass  12.00000

 Molecular mass:   186.19837 amu.
 Principal axes and moments of inertia in atomic units:
                           1         2         3
     Eigenvalues --  1846.201345080.348146353.81427
           X            1.00000  -0.00049  -0.00159
           Y            0.00048   0.99999  -0.00337
           Z            0.00159   0.00337   0.99999
 This molecule is an asymmetric top.
 Rotational symmetry number  1.
 Warning -- assumption of classical behavior for rotation
           may cause significant error
 Rotational temperatures (Kelvin)      0.04691     0.01705     0.01363
 Rotational constants (GHZ):           0.97754     0.35524     0.28404
 Zero-point vibrational energy     949390.2 (Joules/Mol)
                                  226.90970 (Kcal/Mol)
 Warning -- explicit consideration of  26 degrees of freedom as
           vibrations may cause significant error
 Vibrational temperatures:     56.26    61.83    76.60    91.22   105.05
          (Kelvin)            137.49   177.35   201.51   268.97   273.30
                              316.18   334.98   354.06   356.28   378.67
                              391.50   421.57   434.63   466.80   528.93
                              552.08   578.86   629.70   727.66   765.56
                              801.69  1058.12  1089.41  1113.22  1177.97
                             1186.69  1280.54  1286.96  1315.04  1347.84
                             1350.11  1376.80  1382.17  1434.12  1467.54
                             1469.45  1503.59  1525.81  1538.42  1553.54
                             1598.17  1626.37  1640.26  1681.22  1706.28
                             1751.32  1783.08  1790.32  1812.42  1836.78
                             1864.05  1872.03  1904.47  1912.39  1920.70
                             1957.65  1972.29  1999.98  2006.62  2010.67
                             2012.73  2018.35  2032.87  2051.66  2072.64
                             2121.06  2128.86  2132.97  2135.12  2142.06
                             2143.99  2147.11  2157.71  2157.93  2163.46
                             2165.73  2170.20  2178.49  2189.87  2202.77
                             4264.76  4284.58  4314.13  4315.53  4322.60
                             4336.90  4349.44  4352.25  4355.66  4356.08
                             4364.53  4371.14  4376.66  4383.08  4403.88
                             4435.17  4438.30  4445.93  4451.39  4456.69
                             4458.84  4469.61  4483.54  4485.53  4485.57
                             4490.22

 Zero-point correction=                           0.361604 (Hartree/Particle)
 Thermal correction to Energy=                    0.379220
 Thermal correction to Enthalpy=                  0.380164
 Thermal correction to Gibbs Free Energy=         0.315893
 Sum of electronic and zero-point Energies=           -547.855513
 Sum of electronic and thermal Energies=              -547.837896
 Sum of electronic and thermal Enthalpies=            -547.836952
 Sum of electronic and thermal Free Energies=         -547.901224

                     E (Thermal)             CV                S
                      KCal/Mol        Cal/Mol-Kelvin    Cal/Mol-Kelvin
 Total                  237.964             64.370            135.271
 Electronic               0.000              0.000              0.000
 Translational            0.889              2.981             41.571
 Rotational               0.889              2.981             32.455
 Vibrational            236.187             58.409             61.245
 Vibration     1          0.594              1.981              5.304
 Vibration     2          0.595              1.980              5.117
 Vibration     3          0.596              1.976              4.693
 Vibration     4          0.597              1.972              4.348
 Vibration     5          0.599              1.967              4.070
 Vibration     6          0.603              1.952              3.543
 Vibration     7          0.610              1.930              3.049
 Vibration     8          0.615              1.913              2.803
 Vibration     9          0.632              1.858              2.258
 Vibration    10          0.633              1.854              2.228
 Vibration    11          0.647              1.811              1.961
 Vibration    12          0.654              1.791              1.857
 Vibration    13          0.661              1.769              1.758
 Vibration    14          0.661              1.767              1.747
 Vibration    15          0.670              1.740              1.641
 Vibration    16          0.675              1.725              1.583
 Vibration    17          0.688              1.687              1.457
 Vibration    18          0.694              1.670              1.405
 Vibration    19          0.709              1.627              1.288
 Vibration    20          0.740              1.539              1.090
 Vibration    21          0.753              1.505              1.024
 Vibration    22          0.768              1.465              0.954
 Vibration    23          0.798              1.388              0.834
 Vibration    24          0.861              1.237              0.644
 Vibration    25          0.887              1.179              0.583
 Vibration    26          0.913              1.124              0.529

 Optimization completed.
    -- Stationary point found.
 Normal termination of Gaussian 16 at Tue May 23 16:49:26 2023.
