 Gaussian 16, Revision A.03,
 Gaussian 16:  ES64L-G16RevA.03 25-Dec-2016

 -----------------------------
 # opt freq b3lyp/6-31g(2df,p)
 -----------------------------

 -------------------
 Title Card Required
 -------------------
 Symbolic Z-matrix:
 Charge =  0 Multiplicity = 1

 SCF Done:  E(RB3LYP) =  -527.108140187     A.U. after   12 cycles
 SCF Done:  E(RB3LYP) =  -527.115471699     A.U. after   10 cycles
 SCF Done:  E(RB3LYP) =  -527.118644145     A.U. after   10 cycles
 SCF Done:  E(RB3LYP) =  -527.121097649     A.U. after   12 cycles
 SCF Done:  E(RB3LYP) =  -527.121653113     A.U. after   10 cycles
 SCF Done:  E(RB3LYP) =  -527.121751748     A.U. after    9 cycles
 SCF Done:  E(RB3LYP) =  -527.121784760     A.U. after    9 cycles
 SCF Done:  E(RB3LYP) =  -527.121793723     A.U. after    8 cycles
 SCF Done:  E(RB3LYP) =  -527.121796917     A.U. after    7 cycles
 SCF Done:  E(RB3LYP) =  -527.121798185     A.U. after    7 cycles
 SCF Done:  E(RB3LYP) =  -527.121798879     A.U. after    7 cycles
 SCF Done:  E(RB3LYP) =  -527.121799400     A.U. after    7 cycles
 SCF Done:  E(RB3LYP) =  -527.121799482     A.U. after    6 cycles
 SCF Done:  E(RB3LYP) =  -527.121799532     A.U. after    6 cycles
 Optimization completed.
    -- Stationary point found.
 Normal termination of Gaussian 16 at Mon May 22 08:33:46 2023.

 ----------------------------------------------------------------------
 #N Geom=AllCheck Guess=TCheck SCRF=Check GenChk RB3LYP/6-31G(2df,p) Fr
 eq
 ----------------------------------------------------------------------

 Structure from the checkpoint file:  "CCCC1CCCqCCrCNqCrC1.chk"
 -------------------
 Title Card Required
 -------------------
 Charge =  0 Multiplicity = 1

                         Standard orientation:
 ---------------------------------------------------------------------
 Center     Atomic      Atomic             Coordinates (Angstroms)
 Number     Number       Type             X           Y           Z
 ---------------------------------------------------------------------
      1          6           0       -5.088659   -0.452404   -0.541586
      2          6           0       -3.768738    0.169958   -0.076204
      3          6           0       -2.590392   -0.809921   -0.154136
      4          6           0       -1.236468   -0.258487    0.337605
      5          6           0       -0.279698   -1.420110    0.653956
      6          6           0        1.156441   -1.053885    1.066063
      7          6           0        2.039942   -0.538737   -0.086840
      8          6           0        3.530491   -0.823908    0.185187
      9          6           0        4.480575   -0.463523   -0.962976
     10          6           0        1.825198    0.965780   -0.411585
     11          7           0        0.496732    1.530398   -0.230090
     12          6           0        0.284395    2.376240    0.922859
     13          6           0       -0.646115    0.755816   -0.673336
     14          1           0       -5.916048    0.260356   -0.466988
     15          1           0       -5.347970   -1.328843    0.063012
     16          1           0       -5.025364   -0.780433   -1.585237
     17          1           0       -3.874942    0.520206    0.959226
     18          1           0       -3.562247    1.063144   -0.677843
     19          1           0       -2.479651   -1.165859   -1.189515
     20          1           0       -2.844387   -1.699660    0.438058
     21          1           0       -1.421975    0.285536    1.275194
     22          1           0       -0.227225   -2.084989   -0.221550
     23          1           0       -0.731013   -2.020157    1.454696
     24          1           0        1.622402   -1.960557    1.472464
     25          1           0        1.144778   -0.330231    1.891597
     26          1           0        1.763990   -1.117139   -0.981534
     27          1           0        3.642541   -1.891705    0.412479
     28          1           0        3.835092   -0.287601    1.095341
     29          1           0        4.189778   -0.972228   -1.889361
     30          1           0        5.506494   -0.764676   -0.728179
     31          1           0        4.493846    0.611371   -1.166577
     32          1           0        2.147026    1.132434   -1.450702
     33          1           0        2.507795    1.554526    0.213058
     34          1           0        1.077853    3.129443    0.982709
     35          1           0        0.250517    1.856537    1.898473
     36          1           0       -0.666444    2.911470    0.810160
     37          1           0       -0.364712    0.224859   -1.593115
     38          1           0       -1.439094    1.460501   -0.959285
 ---------------------------------------------------------------------

 SCF Done:  E(RB3LYP) =  -527.121799532     A.U. after    1 cycles

 The electronic state is 1-A.
 Alpha  occ. eigenvalues --  -14.30287 -10.19477 -10.19425 -10.19379 -10.17546
 Alpha  occ. eigenvalues --  -10.17507 -10.17502 -10.17335 -10.17160 -10.17095
 Alpha  occ. eigenvalues --  -10.17074 -10.16972 -10.16929  -0.90810  -0.80720
 Alpha  occ. eigenvalues --   -0.79834  -0.75996  -0.72880  -0.70148  -0.68044
 Alpha  occ. eigenvalues --   -0.65625  -0.62234  -0.59108  -0.57487  -0.55417
 Alpha  occ. eigenvalues --   -0.53907  -0.48207  -0.46935  -0.46493  -0.44644
 Alpha  occ. eigenvalues --   -0.42920  -0.42416  -0.41426  -0.41260  -0.40939
 Alpha  occ. eigenvalues --   -0.39970  -0.38409  -0.37715  -0.36898  -0.36529
 Alpha  occ. eigenvalues --   -0.35686  -0.35356  -0.34645  -0.33598  -0.33091
 Alpha  occ. eigenvalues --   -0.32420  -0.31789  -0.30997  -0.30803  -0.29891
 Alpha  occ. eigenvalues --   -0.29138  -0.18353
 Alpha virt. eigenvalues --    0.08134   0.09410   0.09674   0.10399   0.11128
 Alpha virt. eigenvalues --    0.12604   0.12693   0.13062   0.13767   0.14789
 Alpha virt. eigenvalues --    0.15202   0.15664   0.16577   0.17183   0.17298

 Mulliken charges:
               1
     1  C   -0.377979
     2  C   -0.177506
     3  C   -0.166430
     4  C    0.017546
     5  C   -0.209562
     6  C   -0.222167
     7  C    0.041774
     8  C   -0.188167
     9  C   -0.388888
    10  C   -0.176718
    11  N   -0.023433
    12  C   -0.334548
    13  C   -0.186170
    14  H    0.109378
    15  H    0.112323
    16  H    0.112984
    17  H    0.093422
    18  H    0.099351
    19  H    0.086838
    20  H    0.085496
    21  H    0.066340
    22  H    0.086553
    23  H    0.086158
    24  H    0.086198
    25  H    0.093138
    26  H    0.062554
    27  H    0.090082
    28  H    0.091533
    29  H    0.112322
    30  H    0.109568
    31  H    0.120505
    32  H    0.092787
    33  H    0.092365
    34  H    0.113407
    35  H    0.093884
    36  H    0.111744
    37  H    0.092176
    38  H    0.091138
 Sum of Mulliken charges =  -0.00000

 Dipole moment (field-independent basis, Debye):
    X=              0.0458    Y=             -0.2894    Z=              0.3458  Tot=              0.4532
 Quadrupole moment (field-independent basis, Debye-Ang):
   XX=            -85.2729   YY=            -86.0368   ZZ=            -85.3932
   XY=             -0.5359   XZ=              0.1939   YZ=              1.4031

  Exact polarizability: 168.294  -0.773 127.181  -1.038   1.131 117.258
 Approx polarizability: 194.039  -0.145 186.679  -0.604   4.030 187.122

                      1                      2                      3
                      A                      A                      A
 Frequencies --     39.2010                54.5284                62.6496
 Red. masses --      3.2019                 1.9413                 1.8499
 Frc consts  --      0.0029                 0.0034                 0.0043
 IR Inten    --      0.0027                 0.0717                 0.0087

                      4                      5                      6
                      A                      A                      A
 Frequencies --     86.0049               105.3667               140.9308
 Red. masses --      2.7805                 2.2446                 2.5255
 Frc consts  --      0.0121                 0.0147                 0.0296
 IR Inten    --      0.0041                 0.0069                 0.4384

                      7                      8                      9
                      A                      A                      A
 Frequencies --    170.7047               201.7841               206.3160
 Red. masses --      2.4278                 2.2701                 1.1956
 Frc consts  --      0.0417                 0.0545                 0.0300
 IR Inten    --      0.9586                 0.6085                 0.2835

                     10                     11                     12
                      A                      A                      A
 Frequencies --    222.3140               235.9845               245.9566
 Red. masses --      1.5306                 2.8227                 1.0992
 Frc consts  --      0.0446                 0.0926                 0.0392
 IR Inten    --      0.2613                 0.7165                 0.0049

                     13                     14                     15
                      A                      A                      A
 Frequencies --    274.3746               299.7610               319.0697
 Red. masses --      1.6303                 2.4887                 2.7721
 Frc consts  --      0.0723                 0.1318                 0.1663
 IR Inten    --      0.2498                 1.3976                 0.0688

                     16                     17                     18
                      A                      A                      A
 Frequencies --    338.6957               380.8765               396.8213
 Red. masses --      2.8417                 1.9439                 2.8546
 Frc consts  --      0.1921                 0.1661                 0.2648
 IR Inten    --      5.5958                 0.0453                 0.2664

                     19                     20                     21
                      A                      A                      A
 Frequencies --    433.8968               445.2225               477.8670
 Red. masses --      1.9372                 2.3376                 3.0515
 Frc consts  --      0.2149                 0.2730                 0.4106
 IR Inten    --      0.2124                 0.4183                 0.3838

                     22                     23                     24
                      A                      A                      A
 Frequencies --    524.5406               581.6461               736.3656
 Red. masses --      2.5367                 2.5628                 1.1296
 Frc consts  --      0.4112                 0.5108                 0.3609
 IR Inten    --      2.5058                 2.1872                 3.3231

                     25                     26                     27
                      A                      A                      A
 Frequencies --    764.4248               795.7108               817.0076
 Red. masses --      1.5591                 1.9816                 1.6153
 Frc consts  --      0.5368                 0.7392                 0.6353
 IR Inten    --      3.7747                 2.7837                 0.1682

                     28                     29                     30
                      A                      A                      A
 Frequencies --    843.0850               862.5807               889.5239
 Red. masses --      1.7300                 2.4446                 1.5286
 Frc consts  --      0.7245                 1.0717                 0.7126
 IR Inten    --      0.7927                 1.9798                 0.6609

                     31                     32                     33
                      A                      A                      A
 Frequencies --    893.7019               909.7632               935.6845
 Red. masses --      1.8931                 1.9171                 1.5853
 Frc consts  --      0.8908                 0.9349                 0.8177
 IR Inten    --      0.5782                 1.9363                 5.3142

                     34                     35                     36
                      A                      A                      A
 Frequencies --    977.2847               989.4918              1025.3347
 Red. masses --      1.8784                 2.1828                 2.0665
 Frc consts  --      1.0570                 1.2592                 1.2800
 IR Inten    --      5.5480                 6.3959                 0.0546

                     37                     38                     39
                      A                      A                      A
 Frequencies --   1040.2201              1046.9266              1058.3299
 Red. masses --      2.0964                 2.1467                 2.1505
 Frc consts  --      1.3365                 1.3863                 1.4191
 IR Inten    --      5.0379                 1.2064                 2.7784

                     40                     41                     42
                      A                      A                      A
 Frequencies --   1080.2576              1087.7148              1101.1441
 Red. masses --      2.5272                 1.7483                 1.9178
 Frc consts  --      1.7376                 1.2187                 1.3701
 IR Inten    --     21.6840                15.0239                 1.9030

                     43                     44                     45
                      A                      A                      A
 Frequencies --   1119.4899              1134.2113              1147.1901
 Red. masses --      1.9680                 1.7862                 2.1819
 Frc consts  --      1.4531                 1.3538                 1.6918
 IR Inten    --      1.7431                31.3925                 2.3995

                     46                     47                     48
                      A                      A                      A
 Frequencies --   1149.7551              1153.6991              1174.2927
 Red. masses --      1.4325                 1.7891                 2.1871
 Frc consts  --      1.1157                 1.4030                 1.7769
 IR Inten    --      2.3873                 6.7640                 5.6920

                     49                     50                     51
                      A                      A                      A
 Frequencies --   1233.2104              1240.1888              1266.9549
 Red. masses --      1.4316                 1.6465                 1.3176
 Frc consts  --      1.2827                 1.4921                 1.2461
 IR Inten    --      1.2308                13.2448                 2.4984

                     52                     53                     54
                      A                      A                      A
 Frequencies --   1284.6349              1293.6644              1300.8228
 Red. masses --      1.3521                 1.3033                 1.3278
 Frc consts  --      1.3147                 1.2851                 1.3238
 IR Inten    --      3.7647                 3.6034                 3.3986

                     55                     56                     57
                      A                      A                      A
 Frequencies --   1325.0529              1326.0558              1343.4039
 Red. masses --      1.2756                 1.1539                 1.3506
 Frc consts  --      1.3196                 1.1955                 1.4362
 IR Inten    --      9.2183                 7.5119                 7.3254

                     58                     59                     60
                      A                      A                      A
 Frequencies --   1349.8330              1360.6501              1369.0310
 Red. masses --      1.2836                 1.2931                 1.3490
 Frc consts  --      1.3780                 1.4105                 1.4897
 IR Inten    --      2.8870                 3.3967                 2.5773

                     61                     62                     63
                      A                      A                      A
 Frequencies --   1372.1286              1379.6827              1388.1335
 Red. masses --      1.3517                 1.4114                 1.4456
 Frc consts  --      1.4994                 1.5829                 1.6412
 IR Inten    --      0.3757                 5.7153                 7.1581

                     64                     65                     66
                      A                      A                      A
 Frequencies --   1398.2608              1408.2736              1411.4920
 Red. masses --      1.4767                 1.4155                 1.2755
 Frc consts  --      1.7010                 1.6540                 1.4972
 IR Inten    --      2.8688                11.0607                 1.2944

                     67                     68                     69
                      A                      A                      A
 Frequencies --   1412.9443              1413.7562              1416.6205
 Red. masses --      1.3275                 1.2823                 1.3850
 Frc consts  --      1.5615                 1.5101                 1.6376
 IR Inten    --     11.8432                 1.1400                 1.7344

                     70                     71                     72
                      A                      A                      A
 Frequencies --   1459.2212              1473.8255              1480.3073
 Red. masses --      1.1239                 1.0817                 1.0831
 Frc consts  --      1.4100                 1.3843                 1.3983
 IR Inten    --      2.5608                 2.3086                 2.5834

                     73                     74                     75
                      A                      A                      A
 Frequencies --   1482.3781              1488.4171              1489.1091
 Red. masses --      1.0798                 1.0690                 1.0782
 Frc consts  --      1.3980                 1.3953                 1.4087
 IR Inten    --      1.7731                 7.6759                 0.5348

                     76                     77                     78
                      A                      A                      A
 Frequencies --   1490.5434              1494.5054              1498.9810
 Red. masses --      1.0918                 1.0697                 1.0674
 Frc consts  --      1.4292                 1.4076                 1.4131
 IR Inten    --      4.2770                 2.4753                 1.0022

                     79                     80                     81
                      A                      A                      A
 Frequencies --   1499.4614              1504.7173              1508.8442
 Red. masses --      1.0408                 1.0800                 1.0624
 Frc consts  --      1.3788                 1.4407                 1.4251
 IR Inten    --      4.8962                 4.8606                 3.8995

                     82                     83                     84
                      A                      A                      A
 Frequencies --   1510.6287              1519.5632              2922.4479
 Red. masses --      1.0829                 1.0558                 1.0615
 Frc consts  --      1.4559                 1.4364                 5.3415
 IR Inten    --      2.4145                 5.5678                75.7117

                     85                     86                     87
                      A                      A                      A
 Frequencies --   2971.5222              2983.4966              2990.6817
 Red. masses --      1.0748                 1.0734                 1.0687
 Frc consts  --      5.5915                 5.6297                 5.6320
 IR Inten    --     45.0662                29.0619                 7.7604

                     88                     89                     90
                      A                      A                      A
 Frequencies --   2991.4635              2996.2113              3002.9332
 Red. masses --      1.0639                 1.0646                 1.0673
 Frc consts  --      5.6095                 5.6311                 5.6707
 IR Inten    --      2.9200                26.9994                39.2674

                     91                     92                     93
                      A                      A                      A
 Frequencies --   3004.4529              3014.6758              3018.3822
 Red. masses --      1.0623                 1.0649                 1.0652
 Frc consts  --      5.6499                 5.7024                 5.7178
 IR Inten    --     39.7767                32.2247                27.5605

                     94                     95                     96
                      A                      A                      A
 Frequencies --   3025.5887              3027.3680              3030.8244
 Red. masses --      1.0947                 1.0361                 1.0401
 Frc consts  --      5.9044                 5.5945                 5.6289
 IR Inten    --      1.1838                42.0088                30.4929

                     97                     98                     99
                      A                      A                      A
 Frequencies --   3032.8537              3036.7908              3039.0785
 Red. masses --      1.0698                 1.0972                 1.0970
 Frc consts  --      5.7978                 5.9619                 5.9695
 IR Inten    --     55.7613                27.5302                12.3622

                    100                    101                    102
                      A                      A                      A
 Frequencies --   3044.1093              3047.5554              3055.0123
 Red. masses --      1.0973                 1.0946                 1.1000
 Frc consts  --      5.9907                 5.9897                 6.0487
 IR Inten    --     46.2365                21.3380               102.7557

                    103                    104                    105
                      A                      A                      A
 Frequencies --   3058.0879              3079.9520              3094.5305
 Red. masses --      1.1003                 1.1013                 1.1021
 Frc consts  --      6.0624                 6.1555                 6.2183
 IR Inten    --     36.7821                37.8636                52.7054

                    106                    107                    108
                      A                      A                      A
 Frequencies --   3094.6717              3099.3592              3106.5966
 Red. masses --      1.1006                 1.1009                 1.1007
 Frc consts  --      6.2105                 6.2307                 6.2588
 IR Inten    --     46.1495                38.9751                39.7943

 - Thermochemistry -
 -------------------
 Temperature   298.150 Kelvin.  Pressure   1.00000 Atm.
 Atom     1 has atomic number  6 and mass  12.00000

 Molecular mass:   183.19870 amu.
 Principal axes and moments of inertia in atomic units:
                           1         2         3
     Eigenvalues --  1162.132835100.331165632.86222
           X            1.00000  -0.00004  -0.00024
           Y            0.00004   0.99974   0.02262
           Z            0.00024  -0.02262   0.99974
 This molecule is an asymmetric top.
 Rotational symmetry number  1.
 Warning -- assumption of classical behavior for rotation
           may cause significant error
 Rotational temperatures (Kelvin)      0.07453     0.01698     0.01538
 Rotational constants (GHZ):           1.55296     0.35385     0.32040
 Zero-point vibrational energy     932738.2 (Joules/Mol)
                                  222.92978 (Kcal/Mol)
 Warning -- explicit consideration of  23 degrees of freedom as
           vibrations may cause significant error
 Vibrational temperatures:     56.40    78.45    90.14   123.74   151.60
          (Kelvin)            202.77   245.61   290.32   296.84   319.86
                              339.53   353.88   394.76   431.29   459.07
                              487.31   548.00   570.94   624.28   640.58
                              687.54   754.70   836.86  1059.47  1099.84
                             1144.85  1175.49  1213.01  1241.06  1279.83
                             1285.84  1308.95  1346.24  1406.09  1423.66
                             1475.23  1496.64  1506.29  1522.70  1554.25
                             1564.98  1584.30  1610.70  1631.88  1650.55
                             1654.24  1659.92  1689.55  1774.31  1784.36
                             1822.87  1848.30  1861.29  1871.59  1906.46
                             1907.90  1932.86  1942.11  1957.67  1969.73
                             1974.19  1985.06  1997.21  2011.79  2026.19
                             2030.82  2032.91  2034.08  2038.20  2099.49
                             2120.51  2129.83  2132.81  2141.50  2142.50
                             2144.56  2150.26  2156.70  2157.39  2164.95
                             2170.89  2173.46  2186.31  4204.75  4275.36
                             4292.59  4302.92  4304.05  4310.88  4320.55
                             4322.74  4337.45  4342.78  4353.15  4355.71
                             4360.68  4363.60  4369.26  4372.56  4379.79
                             4384.75  4395.48  4399.91  4431.36  4452.34
                             4452.54  4459.29  4469.70

 Zero-point correction=                           0.355261 (Hartree/Particle)
 Thermal correction to Energy=                    0.370780
 Thermal correction to Enthalpy=                  0.371724
 Thermal correction to Gibbs Free Energy=         0.312706
 Sum of electronic and zero-point Energies=           -526.766538
 Sum of electronic and thermal Energies=              -526.751020
 Sum of electronic and thermal Enthalpies=            -526.750076
 Sum of electronic and thermal Free Energies=         -526.809094

                     E (Thermal)             CV                S
                      KCal/Mol        Cal/Mol-Kelvin    Cal/Mol-Kelvin
 Total                  232.668             58.649            124.214
 Electronic               0.000              0.000              0.000
 Translational            0.889              2.981             41.523
 Rotational               0.889              2.981             31.879
 Vibrational            230.890             52.688             50.812
 Vibration     1          0.594              1.981              5.299
 Vibration     2          0.596              1.976              4.646
 Vibration     3          0.597              1.972              4.372
 Vibration     4          0.601              1.959              3.749
 Vibration     5          0.605              1.945              3.353
 Vibration     6          0.615              1.912              2.791
 Vibration     7          0.626              1.879              2.428
 Vibration     8          0.639              1.837              2.117
 Vibration     9          0.641              1.831              2.076
 Vibration    10          0.648              1.807              1.940
 Vibration    11          0.655              1.786              1.833
 Vibration    12          0.660              1.769              1.759
 Vibration    13          0.677              1.721              1.568
 Vibration    14          0.692              1.674              1.418
 Vibration    15          0.705              1.637              1.315
 Vibration    16          0.719              1.598              1.218
 Vibration    17          0.751              1.511              1.036
 Vibration    18          0.763              1.477              0.974
 Vibration    19          0.795              1.396              0.846
 Vibration    20          0.805              1.371              0.810
 Vibration    21          0.834              1.299              0.716
 Vibration    22          0.879              1.196              0.600
 Vibration    23          0.938              1.071              0.482

 Optimization completed.
    -- Stationary point found.
 Normal termination of Gaussian 16 at Mon May 22 11:00:27 2023.
