 Gaussian 16, Revision A.03,
 Gaussian 16:  ES64L-G16RevA.03 25-Dec-2016

 -----------------------------
 # opt freq b3lyp/6-31g(2df,p)
 -----------------------------

 -------------------
 Title Card Required
 -------------------
 Symbolic Z-matrix:
 Charge =  0 Multiplicity = 1

 SCF Done:  E(RB3LYP) =  -780.674906944     A.U. after   12 cycles
 SCF Done:  E(RB3LYP) =  -780.691504716     A.U. after   12 cycles
 SCF Done:  E(RB3LYP) =  -780.693700291     A.U. after   10 cycles
 SCF Done:  E(RB3LYP) =  -780.694360591     A.U. after   10 cycles
 SCF Done:  E(RB3LYP) =  -780.694547062     A.U. after   10 cycles
 SCF Done:  E(RB3LYP) =  -780.694598366     A.U. after    9 cycles
 SCF Done:  E(RB3LYP) =  -780.694624528     A.U. after    9 cycles
 SCF Done:  E(RB3LYP) =  -780.694634293     A.U. after    9 cycles
 SCF Done:  E(RB3LYP) =  -780.694639138     A.U. after    8 cycles
 SCF Done:  E(RB3LYP) =  -780.694643060     A.U. after    8 cycles
 SCF Done:  E(RB3LYP) =  -780.694644467     A.U. after    8 cycles
 SCF Done:  E(RB3LYP) =  -780.694645407     A.U. after    8 cycles
 SCF Done:  E(RB3LYP) =  -780.694646083     A.U. after    8 cycles
 SCF Done:  E(RB3LYP) =  -780.694646236     A.U. after    7 cycles
 SCF Done:  E(RB3LYP) =  -780.694646307     A.U. after    5 cycles
 SCF Done:  E(RB3LYP) =  -780.694646332     A.U. after    5 cycles
 Optimization completed.
    -- Stationary point found.
 Normal termination of Gaussian 16 at Tue May 23 04:29:04 2023.

 ----------------------------------------------------------------------
 #N Geom=AllCheck Guess=TCheck SCRF=Check GenChk RB3LYP/6-31G(2df,p) Fr
 eq
 ----------------------------------------------------------------------

 Structure from the checkpoint file:  "CCCCCCCCCCqCrCCOCqCrOC.chk"
 -------------------
 Title Card Required
 -------------------
 Charge =  0 Multiplicity = 1

                         Standard orientation:
 ---------------------------------------------------------------------
 Center     Atomic      Atomic             Coordinates (Angstroms)
 Number     Number       Type             X           Y           Z
 ---------------------------------------------------------------------
      1          6           0        9.926671   -0.856144   -0.203288
      2          6           0        8.698376   -0.211429    0.444695
      3          6           0        7.384307   -0.576573   -0.254213
      4          6           0        6.149450    0.064295    0.387823
      5          6           0        4.835844   -0.301188   -0.311731
      6          6           0        3.600622    0.339271    0.330665
      7          6           0        2.287596   -0.026361   -0.369855
      8          6           0        1.051138    0.612007    0.274190
      9          6           0       -0.254694    0.240204   -0.438834
     10          6           0       -1.543677    0.764507    0.224755
     11          6           0       -1.610838    2.300086    0.214351
     12          6           0       -2.770689    0.128405   -0.453988
     13          6           0       -4.100335    0.406035    0.238559
     14          8           0       -5.095215   -0.361188   -0.414381
     15          6           0       -6.380528   -0.265296    0.138508
     16          6           0       -7.148221    0.920144   -0.447761
     17          8           0       -6.991588   -1.490063   -0.182086
     18          6           0       -8.092400   -1.827773    0.628138
     19          1           0       10.848206   -0.576881    0.317289
     20          1           0       10.029505   -0.548351   -1.249976
     21          1           0        9.854259   -1.949484   -0.188097
     22          1           0        8.815490    0.880535    0.446410
     23          1           0        8.641482   -0.509960    1.500034
     24          1           0        7.267110   -1.669541   -0.256781
     25          1           0        7.441119   -0.278455   -1.310729
     26          1           0        6.267520    1.157089    0.390296
     27          1           0        6.093396   -0.234265    1.444161
     28          1           0        4.717961   -1.393927   -0.314549
     29          1           0        4.891704   -0.002306   -1.367930
     30          1           0        3.718607    1.432052    0.333862
     31          1           0        3.544294    0.039920    1.386749
     32          1           0        2.170874   -1.119141   -0.375487
     33          1           0        2.343157    0.275174   -1.425303
     34          1           0        1.180965    1.701443    0.286084
     35          1           0        0.990531    0.301623    1.327087
     36          1           0       -0.317632   -0.854548   -0.500487
     37          1           0       -0.216972    0.597621   -1.478243
     38          1           0       -1.532151    0.432707    1.274541
     39          1           0       -1.640719    2.679514   -0.814517
     40          1           0       -0.742547    2.745204    0.707879
     41          1           0       -2.499870    2.673309    0.731189
     42          1           0       -2.644450   -0.959831   -0.490984
     43          1           0       -2.838439    0.468034   -1.495623
     44          1           0       -4.347547    1.477645    0.200352
     45          1           0       -4.043214    0.123350    1.304190
     46          1           0       -6.307776   -0.167982    1.240766
     47          1           0       -7.215873    0.798559   -1.531865
     48          1           0       -6.636577    1.861579   -0.226168
     49          1           0       -8.158058    0.984933   -0.031623
     50          1           0       -8.402345   -2.834767    0.339347
     51          1           0       -8.947779   -1.149561    0.490847
     52          1           0       -7.825533   -1.832424    1.696923
 ---------------------------------------------------------------------

 SCF Done:  E(RB3LYP) =  -780.694646332     A.U. after    1 cycles

 The electronic state is 1-A.
 Alpha  occ. eigenvalues --  -19.13584 -19.13352 -10.27378 -10.22440 -10.22429
 Alpha  occ. eigenvalues --  -10.18465 -10.17423 -10.17314 -10.17284 -10.17268
 Alpha  occ. eigenvalues --  -10.17256 -10.17230 -10.17204 -10.17188 -10.17182
 Alpha  occ. eigenvalues --  -10.17171 -10.17056 -10.16855  -1.06075  -1.00363
 Alpha  occ. eigenvalues --   -0.81647  -0.80325  -0.78335  -0.76071  -0.74564
 Alpha  occ. eigenvalues --   -0.71662  -0.70135  -0.68511  -0.66807  -0.63656
 Alpha  occ. eigenvalues --   -0.60689  -0.58913  -0.57747  -0.57151  -0.56686
 Alpha  occ. eigenvalues --   -0.55374  -0.50866  -0.49590  -0.48023  -0.47527
 Alpha  occ. eigenvalues --   -0.46488  -0.45437  -0.44405  -0.43359  -0.42983
 Alpha  occ. eigenvalues --   -0.42423  -0.41556  -0.40982  -0.40729  -0.40415
 Alpha  occ. eigenvalues --   -0.39540  -0.38731  -0.38369  -0.38157  -0.37144
 Alpha  occ. eigenvalues --   -0.36678  -0.35663  -0.35392  -0.34556  -0.33804
 Alpha  occ. eigenvalues --   -0.33172  -0.32876  -0.32390  -0.31904  -0.31812
 Alpha  occ. eigenvalues --   -0.31667  -0.31532  -0.31459  -0.31197  -0.30592
 Alpha  occ. eigenvalues --   -0.28667  -0.26010  -0.24687
 Alpha virt. eigenvalues --    0.08008   0.08471   0.09102   0.09975   0.10748
 Alpha virt. eigenvalues --    0.11301   0.11475   0.11798   0.12113   0.12673
 Alpha virt. eigenvalues --    0.13270   0.13811   0.13916   0.14490   0.14911

 Mulliken charges:
               1
     1  C   -0.378951
     2  C   -0.162642
     3  C   -0.158060
     4  C   -0.177796
     5  C   -0.180253
     6  C   -0.181152
     7  C   -0.177546
     8  C   -0.196227
     9  C   -0.180857
    10  C    0.018085
    11  C   -0.391488
    12  C   -0.196585
    13  C   -0.077848
    14  O   -0.245173
    15  C    0.235843
    16  C   -0.411890
    17  O   -0.227900
    18  C   -0.235679
    19  H    0.109270
    20  H    0.112297
    21  H    0.112337
    22  H    0.092521
    23  H    0.092557
    24  H    0.089613
    25  H    0.089538
    26  H    0.089730
    27  H    0.089807
    28  H    0.090527
    29  H    0.090342
    30  H    0.089842
    31  H    0.089965
    32  H    0.091248
    33  H    0.091207
    34  H    0.095065
    35  H    0.089581
    36  H    0.090273
    37  H    0.089951
    38  H    0.067216
    39  H    0.111870
    40  H    0.115824
    41  H    0.112239
    42  H    0.106019
    43  H    0.100850
    44  H    0.089377
    45  H    0.085634
    46  H    0.044438
    47  H    0.134375
    48  H    0.116792
    49  H    0.114003
    50  H    0.130949
    51  H    0.106403
    52  H    0.104459
 Sum of Mulliken charges =  -0.00000

 Dipole moment (field-independent basis, Debye):
    X=             -0.2936    Y=              1.1859    Z=              1.5422  Tot=              1.9675
 Quadrupole moment (field-independent basis, Debye-Ang):
   XX=           -109.6012   YY=           -117.6911   ZZ=           -117.4700
   XY=             -4.4786   XZ=             -9.5257   YZ=             -2.9254

  Exact polarizability: 251.532   2.408 165.755  -1.241  -0.276 155.642
 Approx polarizability: 256.385   4.292 248.025  -1.221  -0.043 246.501

                      1                      2                      3
                      A                      A                      A
 Frequencies --     12.7460                17.3185                23.5300
 Red. masses --      3.4884                 2.6443                 2.4487
 Frc consts  --      0.0003                 0.0005                 0.0008
 IR Inten    --      0.4184                 0.4713                 0.1017

                      4                      5                      6
                      A                      A                      A
 Frequencies --     30.1809                36.4125                56.3060
 Red. masses --      3.2806                 2.4571                 2.7464
 Frc consts  --      0.0018                 0.0019                 0.0051
 IR Inten    --      0.1173                 0.2025                 1.1352

                      7                      8                      9
                      A                      A                      A
 Frequencies --     62.5262                70.6146                74.2319
 Red. masses --      3.0398                 2.6305                 1.7217
 Frc consts  --      0.0070                 0.0077                 0.0056
 IR Inten    --      0.3570                 0.1744                 0.5717

                     10                     11                     12
                      A                      A                      A
 Frequencies --     88.5778               101.2100               117.0755
 Red. masses --      2.0614                 2.9225                 3.5060
 Frc consts  --      0.0095                 0.0176                 0.0283
 IR Inten    --      0.8205                 0.4949                 0.4553

                     13                     14                     15
                      A                      A                      A
 Frequencies --    125.5466               125.9525               142.4674
 Red. masses --      2.0670                 1.8884                 4.0352
 Frc consts  --      0.0192                 0.0177                 0.0483
 IR Inten    --      0.3101                 0.0166                 0.0183

                     16                     17                     18
                      A                      A                      A
 Frequencies --    160.1951               164.3364               188.8988
 Red. masses --      1.9638                 1.9535                 3.1105
 Frc consts  --      0.0297                 0.0311                 0.0654
 IR Inten    --      0.0179                 0.0036                 0.4429

                     19                     20                     21
                      A                      A                      A
 Frequencies --    198.8072               229.7526               235.8392
 Red. masses --      1.2431                 1.1193                 1.3818
 Frc consts  --      0.0289                 0.0348                 0.0453
 IR Inten    --      0.5813                 0.0814                 0.1906

                     22                     23                     24
                      A                      A                      A
 Frequencies --    247.8892               247.9163               260.0683
 Red. masses --      2.4113                 1.1315                 3.0542
 Frc consts  --      0.0873                 0.0410                 0.1217
 IR Inten    --      1.5925                 0.0326                 0.4657

                     25                     26                     27
                      A                      A                      A
 Frequencies --    323.7130               332.2763               357.1296
 Red. masses --      3.1547                 2.8446                 3.1766
 Frc consts  --      0.1948                 0.1850                 0.2387
 IR Inten    --      0.1878                 0.2715                 0.2909

                     28                     29                     30
                      A                      A                      A
 Frequencies --    391.3998               433.6750               436.0692
 Red. masses --      2.4945                 2.3381                 3.5514
 Frc consts  --      0.2252                 0.2591                 0.3979
 IR Inten    --      0.0235                 0.9609                 2.9622

                     31                     32                     33
                      A                      A                      A
 Frequencies --    468.3317               480.9543               511.8734
 Red. masses --      3.0686                 3.0358                 2.8334
 Frc consts  --      0.3965                 0.4137                 0.4374
 IR Inten    --      4.5423                 1.8160                 1.8584

                     34                     35                     36
                      A                      A                      A
 Frequencies --    529.8990               588.2650               731.1724
 Red. masses --      2.8847                 3.1537                 1.0583
 Frc consts  --      0.4772                 0.6430                 0.3333
 IR Inten    --      2.7018                 1.3155                 5.6491

                     37                     38                     39
                      A                      A                      A
 Frequencies --    732.0366               741.5522               768.9261
 Red. masses --      1.0738                 1.1082                 1.1641
 Frc consts  --      0.3390                 0.3591                 0.4055
 IR Inten    --      0.0070                 1.0254                 0.1842

                     40                     41                     42
                      A                      A                      A
 Frequencies --    792.9438               817.2771               847.8044
 Red. masses --      1.2598                 1.3188                 1.9274
 Frc consts  --      0.4667                 0.5190                 0.8162
 IR Inten    --      0.5050                 0.7137                 4.7522

                     43                     44                     45
                      A                      A                      A
 Frequencies --    859.5235               889.6220               897.6025
 Red. masses --      2.0294                 1.2706                 1.9474
 Frc consts  --      0.8833                 0.5925                 0.9244
 IR Inten    --      0.4804                 0.6949                 1.3384

                     46                     47                     48
                      A                      A                      A
 Frequencies --    925.5913               943.2616               950.4581
 Red. masses --      2.2786                 1.8855                 1.2492
 Frc consts  --      1.1502                 0.9884                 0.6649
 IR Inten    --      6.7735                 8.7809                 0.6149

                     49                     50                     51
                      A                      A                      A
 Frequencies --    978.4369               993.7787              1002.6853
 Red. masses --      1.3811                 4.0342                 3.0782
 Frc consts  --      0.7790                 2.3474                 1.8234
 IR Inten    --      0.1113                 0.3208                 0.6972

                     52                     53                     54
                      A                      A                      A
 Frequencies --   1021.3031              1035.5641              1051.4664
 Red. masses --      1.4099                 2.3040                 2.8912
 Frc consts  --      0.8664                 1.4557                 1.8833
 IR Inten    --      0.7699                 1.6020                 3.8332

                     55                     56                     57
                      A                      A                      A
 Frequencies --   1057.2526              1063.0725              1067.9674
 Red. masses --      2.6017                 1.2439                 2.6149
 Frc consts  --      1.7134                 0.8282                 1.7572
 IR Inten    --      1.9438                 0.4652                 5.9683

                     58                     59                     60
                      A                      A                      A
 Frequencies --   1070.6257              1074.1361              1075.6101
 Red. masses --      2.1411                 2.6751                 2.9944
 Frc consts  --      1.4460                 1.8185                 2.0412
 IR Inten    --      0.8009                23.4769                33.9515

                     61                     62                     63
                      A                      A                      A
 Frequencies --   1087.9254              1120.1379              1136.7750
 Red. masses --      2.7586                 2.3953                 2.1593
 Frc consts  --      1.9237                 1.7708                 1.6440
 IR Inten    --     50.7858                 4.7137                38.3980

                     64                     65                     66
                      A                      A                      A
 Frequencies --   1149.8930              1160.0524              1164.4805
 Red. masses --      3.2006                 2.9591                 3.4265
 Frc consts  --      2.4934                 2.3462                 2.7375
 IR Inten    --    194.4690               273.5479                45.6355

                     67                     68                     69
                      A                      A                      A
 Frequencies --   1176.0647              1183.7879              1197.6247
 Red. masses --      2.0769                 1.3213                 1.9480
 Frc consts  --      1.6925                 1.0909                 1.6462
 IR Inten    --     20.2097                 8.2430                 5.1095

                     70                     71                     72
                      A                      A                      A
 Frequencies --   1216.3618              1228.4634              1241.9678
 Red. masses --      1.7219                 1.3153                 1.3946
 Frc consts  --      1.5010                 1.1695                 1.2674
 IR Inten    --      2.0889                 8.7042                 6.9259

                     73                     74                     75
                      A                      A                      A
 Frequencies --   1244.8544              1255.6925              1269.6770
 Red. masses --      1.8715                 1.3884                 1.2874
 Frc consts  --      1.7088                 1.2898                 1.2228
 IR Inten    --     26.5739                 1.2195                 2.1628

                     76                     77                     78
                      A                      A                      A
 Frequencies --   1286.7263              1296.5203              1313.4884
 Red. masses --      1.3123                 1.2600                 1.1292
 Frc consts  --      1.2801                 1.2479                 1.1478
 IR Inten    --      1.6652                 1.4264                 0.0981

                     79                     80                     81
                      A                      A                      A
 Frequencies --   1318.4273              1321.6127              1324.5938
 Red. masses --      1.2103                 1.2897                 1.0332
 Frc consts  --      1.2395                 1.3272                 1.0681
 IR Inten    --      0.7709                 0.4656                 0.0249

                     82                     83                     84
                      A                      A                      A
 Frequencies --   1331.4896              1336.5531              1339.5530
 Red. masses --      1.0907                 1.1186                 1.1001
 Frc consts  --      1.1393                 1.1773                 1.1630
 IR Inten    --      0.0525                 0.0591                 0.1085

                     85                     86                     87
                      A                      A                      A
 Frequencies --   1350.3023              1368.3717              1377.1401
 Red. masses --      1.3306                 1.3398                 1.2849
 Frc consts  --      1.4294                 1.4781                 1.4357
 IR Inten    --      7.8248                 6.4424                12.5076

                     88                     89                     90
                      A                      A                      A
 Frequencies --   1378.7820              1387.7488              1389.4041
 Red. masses --      1.3154                 1.3706                 1.3205
 Frc consts  --      1.4733                 1.5552                 1.5019
 IR Inten    --      4.3611                19.7682                54.9894

                     91                     92                     93
                      A                      A                      A
 Frequencies --   1398.7348              1401.9350              1402.7452
 Red. masses --      1.5815                 1.5765                 1.5866
 Frc consts  --      1.8230                 1.8256                 1.8394
 IR Inten    --      0.5406                 0.1574                 1.2080

                     94                     95                     96
                      A                      A                      A
 Frequencies --   1404.5409              1413.3322              1414.5351
 Red. masses --      1.3227                 1.2600                 1.2701
 Frc consts  --      1.5374                 1.4829                 1.4973
 IR Inten    --     50.2545                 0.4272                 6.7820

                     97                     98                     99
                      A                      A                      A
 Frequencies --   1441.1832              1476.6297              1476.8835
 Red. masses --      1.3908                 1.0888                 1.0829
 Frc consts  --      1.7019                 1.3987                 1.3916
 IR Inten    --      1.0152                 2.5473                 0.4197

                    100                    101                    102
                      A                      A                      A
 Frequencies --   1481.3373              1482.1733              1483.1297
 Red. masses --      1.0732                 1.0749                 1.0590
 Frc consts  --      1.3875                 1.3913                 1.3724
 IR Inten    --      0.0537                 0.2927                 4.4193

                    103                    104                    105
                      A                      A                      A
 Frequencies --   1484.6174              1486.1505              1488.0894
 Red. masses --      1.0695                 1.0726                 1.0781
 Frc consts  --      1.3889                 1.3957                 1.4066
 IR Inten    --      0.2046                 5.7500                 0.2571

                    106                    107                    108
                      A                      A                      A
 Frequencies --   1491.7286              1496.8087              1498.9806
 Red. masses --      1.0834                 1.0820                 1.0623
 Frc consts  --      1.4204                 1.4282                 1.4064
 IR Inten    --      0.1868                 0.4224                 0.8946

                    109                    110                    111
                      A                      A                      A
 Frequencies --   1499.8792              1501.0371              1504.3438
 Red. masses --      1.0403                 1.0748                 1.0828
 Frc consts  --      1.3789                 1.4267                 1.4437
 IR Inten    --      4.8696                 1.8593                 0.2513

                    112                    113                    114
                      A                      A                      A
 Frequencies --   1508.8442              1512.2905              1513.1582
 Red. masses --      1.0581                 1.0867                 1.0741
 Frc consts  --      1.4193                 1.4642                 1.4490
 IR Inten    --      5.2585                 0.8088                 4.5051

                    115                    116                    117
                      A                      A                      A
 Frequencies --   1516.4265              1529.1578              2892.1677
 Red. masses --      1.0968                 1.0898                 1.0811
 Frc consts  --      1.4860                 1.5014                 5.3282
 IR Inten    --      4.9274                 1.9925                48.7069

                    118                    119                    120
                      A                      A                      A
 Frequencies --   2952.7100              2974.2028              2982.6524
 Red. masses --      1.0628                 1.0384                 1.0803
 Frc consts  --      5.4593                 5.4121                 5.6624
 IR Inten    --     40.8068                65.1931                12.8594

                    121                    122                    123
                      A                      A                      A
 Frequencies --   2995.8192              2996.8041              2997.9206
 Red. masses --      1.0941                 1.0579                 1.0577
 Frc consts  --      5.7856                 5.5975                 5.6010
 IR Inten    --     29.2339                 1.8841                 0.1601

                    124                    125                    126
                      A                      A                      A
 Frequencies --   2998.5911              3000.6674              3002.0997
 Red. masses --      1.0591                 1.0588                 1.0593
 Frc consts  --      5.6108                 5.6172                 5.6251
 IR Inten    --      1.7599                 1.8850                 2.3470

                    127                    128                    129
                      A                      A                      A
 Frequencies --   3008.1317              3013.5445              3016.7021
 Red. masses --      1.0608                 1.0620                 1.0608
 Frc consts  --      5.6558                 5.6826                 5.6881
 IR Inten    --      0.5231                13.8585               178.6040

                    130                    131                    132
                      A                      A                      A
 Frequencies --   3017.5691              3020.3328              3020.5084
 Red. masses --      1.0974                 1.0974                 1.1009
 Frc consts  --      5.8872                 5.8981                 5.9179
 IR Inten    --      1.0499                 3.0599                55.1254

                    133                    134                    135
                      A                      A                      A
 Frequencies --   3025.8007              3027.0493              3027.6050
 Red. masses --      1.0666                 1.0841                 1.0357
 Frc consts  --      5.7536                 5.8529                 5.5934
 IR Inten    --     17.5741                26.3203                43.9767

                    136                    137                    138
                      A                      A                      A
 Frequencies --   3030.7595              3031.5384              3039.0491
 Red. masses --      1.0661                 1.0781                 1.1036
 Frc consts  --      5.7696                 5.8376                 6.0055
 IR Inten    --     23.0373                 1.1806                 0.9519

                    139                    140                    141
                      A                      A                      A
 Frequencies --   3043.8107              3049.8983              3059.6945
 Red. masses --      1.0354                 1.1046                 1.1048
 Frc consts  --      5.6518                 6.0536                 6.0937
 IR Inten    --     16.2109                 3.3738                18.4876

                    142                    143                    144
                      A                      A                      A
 Frequencies --   3066.2353              3072.6188              3093.7180
 Red. masses --      1.1046                 1.1024                 1.1020
 Frc consts  --      6.1187                 6.1323                 6.2144
 IR Inten    --    140.1944                94.4275                60.7639

                    145                    146                    147
                      A                      A                      A
 Frequencies --   3096.6879              3098.9427              3109.7827
 Red. masses --      1.0971                 1.1010                 1.1000
 Frc consts  --      6.1983                 6.2294                 6.2677
 IR Inten    --     33.8602                40.7865                63.5693

                    148                    149                    150
                      A                      A                      A
 Frequencies --   3110.8757              3115.1719              3131.6514
 Red. masses --      1.1004                 1.0958                 1.1026
 Frc consts  --      6.2745                 6.2654                 6.3713
 IR Inten    --     24.3562                20.9082                16.6967

 - Thermochemistry -
 -------------------
 Temperature   298.150 Kelvin.  Pressure   1.00000 Atm.
 Atom     1 has atomic number  6 and mass  12.00000

 Molecular mass:   258.25588 amu.
 Principal axes and moments of inertia in atomic units:
                           1         2         3
     Eigenvalues --  1093.84874********************
           X            0.99999  -0.00393  -0.00205
           Y            0.00392   0.99998  -0.00581
           Z            0.00207   0.00580   0.99998
 This molecule is an asymmetric top.
 Rotational symmetry number  1.
 Warning -- assumption of classical behavior for rotation
           may cause significant error
 Rotational temperatures (Kelvin)      0.07918     0.00288     0.00281
 Rotational constants (GHZ):           1.64990     0.05993     0.05865
 Zero-point vibrational energy    1259943.6 (Joules/Mol)
                                  301.13374 (Kcal/Mol)
 Warning -- explicit consideration of  35 degrees of freedom as
           vibrations may cause significant error
 Vibrational temperatures:     18.34    24.92    33.85    43.42    52.39
          (Kelvin)             81.01    89.96   101.60   106.80   127.44
                              145.62   168.45   180.63   181.22   204.98
                              230.49   236.44   271.78   286.04   330.56
                              339.32   356.66   356.70   374.18   465.75
                              478.07   513.83   563.14   623.96   627.41
                              673.82   691.99   736.47   762.41   846.38
                             1051.99  1053.24  1066.93  1106.31  1140.87
                             1175.88  1219.80  1236.66  1279.97  1291.45
                             1331.72  1357.14  1367.50  1407.75  1429.83
                             1442.64  1469.43  1489.95  1512.83  1521.15
                             1529.52  1536.57  1540.39  1545.44  1547.56
                             1565.28  1611.63  1635.57  1654.44  1669.06
                             1675.43  1692.09  1703.21  1723.11  1750.07
                             1767.48  1786.91  1791.07  1806.66  1826.78
                             1851.31  1865.40  1889.82  1896.92  1901.51
                             1905.80  1915.72  1923.00  1927.32  1942.78
                             1968.78  1981.40  1983.76  1996.66  1999.04
                             2012.47  2017.07  2018.24  2020.82  2033.47
                             2035.20  2073.54  2124.54  2124.91  2131.31
                             2132.52  2133.89  2136.03  2138.24  2141.03
                             2146.26  2153.57  2156.70  2157.99  2159.66
                             2164.42  2170.89  2175.85  2177.10  2181.80
                             2200.12  4161.18  4248.29  4279.21  4291.37
                             4310.32  4311.73  4313.34  4314.30  4317.29
                             4319.35  4328.03  4335.82  4340.36  4341.61
                             4345.59  4345.84  4353.45  4355.25  4356.05
                             4360.59  4361.71  4372.51  4379.36  4388.12
                             4402.22  4411.63  4420.81  4451.17  4455.44
                             4458.69  4474.28  4475.86  4482.04  4505.75

 Zero-point correction=                           0.479887 (Hartree/Particle)
 Thermal correction to Energy=                    0.504386
 Thermal correction to Enthalpy=                  0.505330
 Thermal correction to Gibbs Free Energy=         0.420489
 Sum of electronic and zero-point Energies=           -780.214759
 Sum of electronic and thermal Energies=              -780.190260
 Sum of electronic and thermal Enthalpies=            -780.189316
 Sum of electronic and thermal Free Energies=         -780.274158

                     E (Thermal)             CV                S
                      KCal/Mol        Cal/Mol-Kelvin    Cal/Mol-Kelvin
 Total                  316.507             85.993            178.564
 Electronic               0.000              0.000              0.000
 Translational            0.889              2.981             42.546
 Rotational               0.889              2.981             35.271
 Vibrational            314.729             80.032            100.747
 Vibration     1          0.593              1.987              7.529
 Vibration     2          0.593              1.986              6.920
 Vibration     3          0.593              1.985              6.311
 Vibration     4          0.594              1.984              5.817
 Vibration     5          0.594              1.982              5.445
 Vibration     6          0.596              1.975              4.583
 Vibration     7          0.597              1.972              4.376
 Vibration     8          0.598              1.968              4.136
 Vibration     9          0.599              1.966              4.038
 Vibration    10          0.601              1.957              3.691
 Vibration    11          0.604              1.948              3.431
 Vibration    12          0.608              1.935              3.148
 Vibration    13          0.610              1.928              3.013
 Vibration    14          0.611              1.927              3.007
 Vibration    15          0.616              1.911              2.770
 Vibration    16          0.622              1.891              2.547
 Vibration    17          0.623              1.886              2.499
 Vibration    18          0.633              1.855              2.239
 Vibration    19          0.637              1.842              2.144
 Vibration    20          0.652              1.796              1.881
 Vibration    21          0.655              1.786              1.834
 Vibration    22          0.662              1.766              1.746
 Vibration    23          0.662              1.766              1.745
 Vibration    24          0.668              1.746              1.661
 Vibration    25          0.708              1.628              1.291
 Vibration    26          0.714              1.611              1.249
 Vibration    27          0.732              1.561              1.135
 Vibration    28          0.759              1.489              0.995
 Vibration    29          0.794              1.397              0.847
 Vibration    30          0.797              1.392              0.839
 Vibration    31          0.826              1.320              0.742
 Vibration    32          0.837              1.292              0.707
 Vibration    33          0.867              1.224              0.629
 Vibration    34          0.885              1.184              0.587
 Vibration    35          0.945              1.057              0.470

 Optimization completed.
    -- Stationary point found.
 Normal termination of Gaussian 16 at Tue May 23 09:09:36 2023.
