 Gaussian 16, Revision A.03,
 Gaussian 16:  ES64L-G16RevA.03 25-Dec-2016

 -----------------------------
 # opt freq b3lyp/6-31g(2df,p)
 -----------------------------

 -------------------
 Title Card Required
 -------------------
 Symbolic Z-matrix:
 Charge =  0 Multiplicity = 1

 SCF Done:  E(RB3LYP) =  -394.368809100     A.U. after   11 cycles
 SCF Done:  E(RB3LYP) =  -394.372691152     A.U. after   10 cycles
 SCF Done:  E(RB3LYP) =  -394.373211753     A.U. after    8 cycles
 SCF Done:  E(RB3LYP) =  -394.373249295     A.U. after    8 cycles
 SCF Done:  E(RB3LYP) =  -394.373253526     A.U. after    8 cycles
 SCF Done:  E(RB3LYP) =  -394.373254470     A.U. after    6 cycles
 SCF Done:  E(RB3LYP) =  -394.373254543     A.U. after    5 cycles
 Optimization completed.
    -- Stationary point found.
 Normal termination of Gaussian 16 at Sun May 28 07:06:39 2023.

 ----------------------------------------------------------------------
 #N Geom=AllCheck Guess=TCheck SCRF=Check GenChk RB3LYP/6-31G(2df,p) Fr
 eq
 ----------------------------------------------------------------------

 Structure from the checkpoint file:  "CCCCCCCCqCrC.chk"
 -------------------
 Title Card Required
 -------------------
 Charge =  0 Multiplicity = 1

                         Standard orientation:
 ---------------------------------------------------------------------
 Center     Atomic      Atomic             Coordinates (Angstroms)
 Number     Number       Type             X           Y           Z
 ---------------------------------------------------------------------
      1          6           0       -5.536675   -0.221858    0.178018
      2          6           0       -4.230948    0.471456   -0.220253
      3          6           0       -2.980774   -0.329731    0.158909
      4          6           0       -1.669149    0.357491   -0.234984
      5          6           0       -0.419384   -0.444229    0.144165
      6          6           0        0.892761    0.244683   -0.248442
      7          6           0        2.136684   -0.564780    0.136979
      8          6           0        3.480483    0.036975   -0.314592
      9          6           0        3.774146    1.388397    0.352474
     10          6           0        4.626305   -0.950383   -0.053418
     11          1           0       -6.410145    0.373772   -0.105697
     12          1           0       -5.583425   -0.386174    1.260464
     13          1           0       -5.629370   -1.200164   -0.306965
     14          1           0       -4.182694    1.461595    0.252394
     15          1           0       -4.228401    0.654165   -1.303169
     16          1           0       -3.028679   -1.320869   -0.314054
     17          1           0       -2.983679   -0.513986    1.242604
     18          1           0       -1.622332    1.348304    0.238556
     19          1           0       -1.667165    0.541980   -1.318549
     20          1           0       -0.465809   -1.434929   -0.329518
     21          1           0       -0.421838   -0.629035    1.227650
     22          1           0        0.927511    1.235868    0.221128
     23          1           0        0.897818    0.422542   -1.333317
     24          1           0        2.044980   -1.572258   -0.291840
     25          1           0        2.157222   -0.704109    1.228041
     26          1           0        3.421521    0.202898   -1.400611
     27          1           0        3.816200    1.282580    1.443637
     28          1           0        3.012377    2.137904    0.119606
     29          1           0        4.739572    1.786248    0.022132
     30          1           0        4.728429   -1.156083    1.019142
     31          1           0        5.583701   -0.551974   -0.405725
     32          1           0        4.453508   -1.906402   -0.559046
 ---------------------------------------------------------------------

 SCF Done:  E(RB3LYP) =  -394.373254543     A.U. after    1 cycles

 The electronic state is 1-A.
 Alpha  occ. eigenvalues --  -10.18079 -10.17415 -10.17192 -10.17176 -10.17157
 Alpha  occ. eigenvalues --  -10.17140 -10.17041 -10.16853 -10.16657 -10.16649
 Alpha  occ. eigenvalues --   -0.81046  -0.79426  -0.76283  -0.71807  -0.67599
 Alpha  occ. eigenvalues --   -0.66460  -0.61079  -0.57244  -0.57039  -0.54976
 Alpha  occ. eigenvalues --   -0.47676  -0.45951  -0.44029  -0.43317  -0.42549
 Alpha  occ. eigenvalues --   -0.41294  -0.40107  -0.39460  -0.37668  -0.37309
 Alpha  occ. eigenvalues --   -0.36533  -0.35607  -0.33974  -0.33564  -0.33032
 Alpha  occ. eigenvalues --   -0.32172  -0.31933  -0.31501  -0.31247  -0.30972
 Alpha  occ. eigenvalues --   -0.29044
 Alpha virt. eigenvalues --    0.08600   0.09336   0.10701   0.11351   0.12068
 Alpha virt. eigenvalues --    0.13173   0.13599   0.14584   0.15386   0.15906
 Alpha virt. eigenvalues --    0.16365   0.16856   0.17430   0.18406   0.19165

 Mulliken charges:
               1
     1  C   -0.378957
     2  C   -0.162550
     3  C   -0.158016
     4  C   -0.178561
     5  C   -0.178855
     6  C   -0.190128
     7  C   -0.164479
     8  C    0.043490
     9  C   -0.379682
    10  C   -0.387604
    11  H    0.109286
    12  H    0.112232
    13  H    0.112216
    14  H    0.092597
    15  H    0.092589
    16  H    0.089427
    17  H    0.089431
    18  H    0.089872
    19  H    0.089818
    20  H    0.089921
    21  H    0.090341
    22  H    0.094771
    23  H    0.089111
    24  H    0.085912
    25  H    0.086596
    26  H    0.067983
    27  H    0.108620
    28  H    0.113247
    29  H    0.107622
    30  H    0.109747
    31  H    0.106648
    32  H    0.107356
 Sum of Mulliken charges =  -0.00000

 Dipole moment (field-independent basis, Debye):
    X=             -0.0204    Y=              0.0381    Z=             -0.0793  Tot=              0.0903
 Quadrupole moment (field-independent basis, Debye-Ang):
   XX=            -69.6070   YY=            -68.3592   ZZ=            -67.0995
   XY=             -0.0546   XZ=             -0.1496   YZ=              0.4610

  Exact polarizability: 141.488  -0.226 101.531  -0.182  -0.111  95.709
 Approx polarizability: 151.483   0.254 148.896   0.021   0.544 150.030

                      1                      2                      3
                      A                      A                      A
 Frequencies --     37.4300                42.2356                60.0462
 Red. masses --      2.8804                 1.8345                 3.3072
 Frc consts  --      0.0024                 0.0019                 0.0070
 IR Inten    --      0.0052                 0.0003                 0.0024

                      4                      5                      6
                      A                      A                      A
 Frequencies --     95.1607               100.2199               151.3086
 Red. masses --      2.6395                 1.6080                 2.1231
 Frc consts  --      0.0141                 0.0095                 0.0286
 IR Inten    --      0.0080                 0.0007                 0.0057

                      7                      8                      9
                      A                      A                      A
 Frequencies --    155.2255               157.4257               222.7803
 Red. masses --      2.0514                 2.4414                 3.0871
 Frc consts  --      0.0291                 0.0356                 0.0903
 IR Inten    --      0.0035                 0.0025                 0.0008

                     10                     11                     12
                      A                      A                      A
 Frequencies --    225.5125               247.8110               253.4388
 Red. masses --      1.0982                 1.1201                 1.1499
 Frc consts  --      0.0329                 0.0405                 0.0435
 IR Inten    --      0.0212                 0.0011                 0.0022

                     13                     14                     15
                      A                      A                      A
 Frequencies --    279.3739               374.2993               384.8222
 Red. masses --      2.6195                 2.3467                 2.4885
 Frc consts  --      0.1205                 0.1937                 0.2171
 IR Inten    --      0.0049                 0.0521                 0.1271

                     16                     17                     18
                      A                      A                      A
 Frequencies --    427.5843               469.7916               501.0593
 Red. masses --      2.2022                 2.7511                 2.7063
 Frc consts  --      0.2372                 0.3577                 0.4003
 IR Inten    --      0.1618                 0.1485                 0.1503

                     19                     20                     21
                      A                      A                      A
 Frequencies --    731.1260               736.3778               764.1552
 Red. masses --      1.0612                 1.0910                 1.1654
 Frc consts  --      0.3342                 0.3486                 0.4009
 IR Inten    --      4.6347                 0.0222                 0.9304

                     22                     23                     24
                      A                      A                      A
 Frequencies --    816.1395               835.2328               898.0494
 Red. masses --      1.8809                 1.4712                 1.9250
 Frc consts  --      0.7381                 0.6047                 0.9147
 IR Inten    --      0.1619                 0.5272                 1.1996

                     25                     26                     27
                      A                      A                      A
 Frequencies --    909.7232               926.7582               947.1836
 Red. masses --      1.2598                 1.2089                 1.9230
 Frc consts  --      0.6143                 0.6117                 1.0165
 IR Inten    --      0.6798                 0.9722                 0.4769

                     28                     29                     30
                      A                      A                      A
 Frequencies --    965.2028               995.0443              1006.1935
 Red. masses --      1.4583                 1.3700                 3.0861
 Frc consts  --      0.8004                 0.7992                 1.8409
 IR Inten    --      0.1694                 0.4170                 0.3231

                     31                     32                     33
                      A                      A                      A
 Frequencies --   1028.1996              1047.0393              1056.1368
 Red. masses --      2.9362                 2.3383                 1.2916
 Frc consts  --      1.8289                 1.5103                 0.8488
 IR Inten    --      0.6391                 0.1913                 0.0479

                     34                     35                     36
                      A                      A                      A
 Frequencies --   1069.7844              1071.1912              1117.6650
 Red. masses --      2.3376                 2.2554                 1.9752
 Frc consts  --      1.5762                 1.5248                 1.4537
 IR Inten    --      0.2175                 0.2722                 0.4799

                     37                     38                     39
                      A                      A                      A
 Frequencies --   1158.5113              1192.8299              1205.1475
 Red. masses --      2.6143                 1.7646                 2.0099
 Frc consts  --      2.0673                 1.4793                 1.7199
 IR Inten    --      1.4629                 4.2515                 0.1927

                     40                     41                     42
                      A                      A                      A
 Frequencies --   1227.5762              1244.9861              1271.4740
 Red. masses --      1.6307                 1.3087                 1.3841
 Frc consts  --      1.4478                 1.1951                 1.3183
 IR Inten    --      0.4731                 6.9184                 0.9203

                     43                     44                     45
                      A                      A                      A
 Frequencies --   1293.8419              1310.5736              1325.5613
 Red. masses --      1.2880                 1.2422                 1.0338
 Frc consts  --      1.2704                 1.2571                 1.0703
 IR Inten    --      0.2854                 0.8418                 0.2316

                     46                     47                     48
                      A                      A                      A
 Frequencies --   1333.9551              1334.7689              1337.5601
 Red. masses --      1.2492                 1.1523                 1.1152
 Frc consts  --      1.3096                 1.2096                 1.1755
 IR Inten    --      2.5612                 0.2313                 0.3528

                     49                     50                     51
                      A                      A                      A
 Frequencies --   1363.5204              1371.9425              1390.1590
 Red. masses --      1.3917                 1.3372                 1.4805
 Frc consts  --      1.5245                 1.4830                 1.6857
 IR Inten    --      1.0415                 3.4262                 2.4869

                     52                     53                     54
                      A                      A                      A
 Frequencies --   1398.3102              1401.5768              1402.6447
 Red. masses --      1.4652                 1.5841                 1.3759
 Frc consts  --      1.6879                 1.8334                 1.5949
 IR Inten    --      2.5574                 1.1070                 1.6524

                     55                     56                     57
                      A                      A                      A
 Frequencies --   1413.4054              1422.2074              1477.3723
 Red. masses --      1.2571                 1.2455                 1.0745
 Frc consts  --      1.4796                 1.4843                 1.3818
 IR Inten    --      0.5015                 2.8222                 0.2383

                     58                     59                     60
                      A                      A                      A
 Frequencies --   1482.4060              1483.3348              1488.7781
 Red. masses --      1.0735                 1.0703                 1.0574
 Frc consts  --      1.3899                 1.3875                 1.3809
 IR Inten    --      0.0445                 0.0649                 0.3995

                     61                     62                     63
                      A                      A                      A
 Frequencies --   1489.6082              1495.0900              1499.8990
 Red. masses --      1.0589                 1.0598                 1.0411
 Frc consts  --      1.3844                 1.3958                 1.3800
 IR Inten    --      0.7212                 0.8268                 4.9778

                     64                     65                     66
                      A                      A                      A
 Frequencies --   1499.9403              1505.1378              1508.5187
 Red. masses --      1.0789                 1.0549                 1.0828
 Frc consts  --      1.4302                 1.4080                 1.4517
 IR Inten    --      0.5526                 2.6929                 1.0915

                     67                     68                     69
                      A                      A                      A
 Frequencies --   1511.8937              1515.7440              2989.2224
 Red. masses --      1.0570                 1.0942                 1.0771
 Frc consts  --      1.4236                 1.4811                 5.6706
 IR Inten    --      6.0169                 4.7384                 5.6246

                     70                     71                     72
                      A                      A                      A
 Frequencies --   2996.0824              2997.9638              2999.1469
 Red. masses --      1.0622                 1.0581                 1.0582
 Frc consts  --      5.6178                 5.6029                 5.6083
 IR Inten    --      9.2023                 1.4125                 2.0968

                     73                     74                     75
                      A                      A                      A
 Frequencies --   3003.8950              3011.3267              3016.1601
 Red. masses --      1.0604                 1.0629                 1.0619
 Frc consts  --      5.6377                 5.6787                 5.6917
 IR Inten    --      0.9402                19.4531               120.2024

                     76                     77                     78
                      A                      A                      A
 Frequencies --   3018.2571              3020.9321              3024.6394
 Red. masses --      1.0961                 1.0371                 1.0882
 Frc consts  --      5.8832                 5.5764                 5.8653
 IR Inten    --      4.8151                33.4988                17.5292

                     79                     80                     81
                      A                      A                      A
 Frequencies --   3026.7918              3027.6154              3028.6695
 Red. masses --      1.0437                 1.0357                 1.0997
 Frc consts  --      5.6335                 5.5933                 5.9432
 IR Inten    --     21.4478                39.6909                 5.7167

                     82                     83                     84
                      A                      A                      A
 Frequencies --   3040.7151              3054.7993              3065.1380
 Red. masses --      1.1032                 1.1043                 1.1043
 Frc consts  --      6.0098                 6.0716                 6.1130
 IR Inten    --      3.1974                 5.3835               142.6307

                     85                     86                     87
                      A                      A                      A
 Frequencies --   3084.7779              3090.8887              3093.6601
 Red. masses --      1.1002                 1.0998                 1.1020
 Frc consts  --      6.1682                 6.1905                 6.2141
 IR Inten    --      5.9819                66.7479                62.4128

                     88                     89                     90
                      A                      A                      A
 Frequencies --   3095.9956              3098.9891              3105.9769
 Red. masses --      1.1014                 1.1009                 1.0996
 Frc consts  --      6.2198                 6.2295                 6.2499
 IR Inten    --     44.6708                40.4087                38.6434

 - Thermochemistry -
 -------------------
 Temperature   298.150 Kelvin.  Pressure   1.00000 Atm.
 Atom     1 has atomic number  6 and mass  12.00000

 Molecular mass:   142.17215 amu.
 Principal axes and moments of inertia in atomic units:
                           1         2         3
     Eigenvalues --   360.659196046.095696238.95115
           X            1.00000   0.00079   0.00049
           Y           -0.00079   0.99999  -0.00512
           Z           -0.00049   0.00512   0.99999
 This molecule is an asymmetric top.
 Rotational symmetry number  1.
 Rotational temperatures (Kelvin)      0.24015     0.01433     0.01388
 Rotational constants (GHZ):           5.00401     0.29850     0.28927
 Zero-point vibrational energy     791668.6 (Joules/Mol)
                                  189.21332 (Kcal/Mol)
 Warning -- explicit consideration of  18 degrees of freedom as
           vibrations may cause significant error
 Vibrational temperatures:     53.85    60.77    86.39   136.91   144.19
          (Kelvin)            217.70   223.33   226.50   320.53   324.46
                              356.54   364.64   401.96   538.53   553.67
                              615.20   675.93   720.91  1051.93  1059.48
                             1099.45  1174.24  1201.71  1292.09  1308.89
                             1333.40  1362.79  1388.71  1431.65  1447.69
                             1479.35  1506.46  1519.55  1539.18  1541.21
                             1608.07  1666.84  1716.22  1733.94  1766.21
                             1791.26  1829.37  1861.55  1885.62  1907.19
                             1919.26  1920.43  1924.45  1961.80  1973.92
                             2000.13  2011.86  2016.56  2018.09  2033.58
                             2046.24  2125.61  2132.85  2134.19  2142.02
                             2143.21  2151.10  2158.02  2158.08  2165.56
                             2170.42  2175.28  2180.82  4300.82  4310.69
                             4313.40  4315.10  4321.93  4332.63  4339.58
                             4342.60  4346.45  4351.78  4354.88  4356.06
                             4357.58  4374.91  4395.17  4410.05  4438.31
                             4447.10  4451.09  4454.45  4458.75  4468.81

 Zero-point correction=                           0.301531 (Hartree/Particle)
 Thermal correction to Energy=                    0.315351
 Thermal correction to Enthalpy=                  0.316295
 Thermal correction to Gibbs Free Energy=         0.260301
 Sum of electronic and zero-point Energies=           -394.071724
 Sum of electronic and thermal Energies=              -394.057904
 Sum of electronic and thermal Enthalpies=            -394.056960
 Sum of electronic and thermal Free Energies=         -394.112953

                     E (Thermal)             CV                S
                      KCal/Mol        Cal/Mol-Kelvin    Cal/Mol-Kelvin
 Total                  197.886             49.509            117.849
 Electronic               0.000              0.000              0.000
 Translational            0.889              2.981             40.767
 Rotational               0.889              2.981             30.987
 Vibrational            196.108             43.547             46.095
 Vibration     1          0.594              1.982              5.391
 Vibration     2          0.595              1.980              5.151
 Vibration     3          0.597              1.973              4.456
 Vibration     4          0.603              1.953              3.551
 Vibration     5          0.604              1.949              3.450
 Vibration     6          0.619              1.901              2.656
 Vibration     7          0.620              1.897              2.607
 Vibration     8          0.621              1.894              2.580
 Vibration     9          0.648              1.806              1.936
 Vibration    10          0.650              1.802              1.914
 Vibration    11          0.661              1.766              1.746
 Vibration    12          0.665              1.757              1.707
 Vibration    13          0.680              1.712              1.538
 Vibration    14          0.745              1.525              1.062
 Vibration    15          0.754              1.503              1.020
 Vibration    16          0.789              1.410              0.867
 Vibration    17          0.827              1.317              0.738
 Vibration    18          0.856              1.248              0.655

 Optimization completed.
    -- Stationary point found.
 Normal termination of Gaussian 16 at Sun May 28 08:03:41 2023.
