 Gaussian 16, Revision A.03,
 Gaussian 16:  ES64L-G16RevA.03 25-Dec-2016

 -----------------------------
 # opt freq b3lyp/6-31g(2df,p)
 -----------------------------

 -------------------
 Title Card Required
 -------------------
 Symbolic Z-matrix:
 Charge =  0 Multiplicity = 1

 SCF Done:  E(RB3LYP) =  -313.205481317     A.U. after   12 cycles
 SCF Done:  E(RB3LYP) =  -313.227116694     A.U. after   10 cycles
 SCF Done:  E(RB3LYP) =  -313.231066551     A.U. after   10 cycles
 SCF Done:  E(RB3LYP) =  -313.231841549     A.U. after   10 cycles
 SCF Done:  E(RB3LYP) =  -313.232327383     A.U. after   10 cycles
 SCF Done:  E(RB3LYP) =  -313.232584865     A.U. after    9 cycles
 SCF Done:  E(RB3LYP) =  -313.232906603     A.U. after    9 cycles
 SCF Done:  E(RB3LYP) =  -313.232957616     A.U. after    8 cycles
 SCF Done:  E(RB3LYP) =  -313.232964254     A.U. after    8 cycles
 SCF Done:  E(RB3LYP) =  -313.232964771     A.U. after    6 cycles
 Optimization completed.
    -- Stationary point found.
 Normal termination of Gaussian 16 at Sun May 28 07:26:57 2023.

 ----------------------------------------------------------------------
 #N Geom=AllCheck Guess=TCheck SCRF=Check GenChk RB3LYP/6-31G(2df,p) Fr
 eq
 ----------------------------------------------------------------------

 Structure from the checkpoint file:  "CCCC12CCqC1rC2.chk"
 -------------------
 Title Card Required
 -------------------
 Charge =  0 Multiplicity = 1

                         Standard orientation:
 ---------------------------------------------------------------------
 Center     Atomic      Atomic             Coordinates (Angstroms)
 Number     Number       Type             X           Y           Z
 ---------------------------------------------------------------------
      1          6           0       -3.392024    0.032614    0.000175
      2          6           0       -1.941294   -0.456316   -0.000084
      3          6           0       -0.921761    0.690376   -0.000266
      4          6           0        0.515099    0.229230   -0.000090
      5          6           0        1.241424   -0.646852    1.074218
      6          6           0        2.318023   -0.330465    0.000112
      7          6           0        1.241858   -0.645930   -1.074776
      8          6           0        1.790337    1.130438    0.000710
      9          1           0       -4.096673   -0.804977   -0.000251
     10          1           0       -3.603340    0.646070   -0.882924
     11          1           0       -3.603324    0.645165    0.883904
     12          1           0       -1.768490   -1.093205   -0.876923
     13          1           0       -1.768191   -1.093175    0.876724
     14          1           0       -1.091664    1.329826    0.877551
     15          1           0       -1.091295    1.329183   -0.878631
     16          1           0        0.923355   -1.690332    1.157486
     17          1           0        1.381321   -0.192996    2.060275
     18          1           0        3.359335   -0.654191    0.000091
     19          1           0        0.923762   -1.689334   -1.159022
     20          1           0        1.382198   -0.191300   -2.060416
     21          1           0        1.971762    1.720824   -0.902825
     22          1           0        1.971274    1.719872    0.904964
 ---------------------------------------------------------------------

 SCF Done:  E(RB3LYP) =  -313.232964771     A.U. after    1 cycles

 The electronic state is 1-A.
 Alpha  occ. eigenvalues --  -10.19793 -10.19352 -10.17817 -10.17816 -10.17769
 Alpha  occ. eigenvalues --  -10.17655 -10.17388 -10.17026  -0.90407  -0.78148
 Alpha  occ. eigenvalues --   -0.69670  -0.65843  -0.65820  -0.60126  -0.56966
 Alpha  occ. eigenvalues --   -0.52801  -0.46561  -0.45799  -0.44268  -0.44240
 Alpha  occ. eigenvalues --   -0.40634  -0.38668  -0.36972  -0.34487  -0.34277
 Alpha  occ. eigenvalues --   -0.32875  -0.31194  -0.31188  -0.29704  -0.29588
 Alpha  occ. eigenvalues --   -0.28493
 Alpha virt. eigenvalues --    0.09103   0.11069   0.12129   0.13104   0.13492
 Alpha virt. eigenvalues --    0.15074   0.15232   0.16303   0.16363   0.16798
 Alpha virt. eigenvalues --    0.17725   0.18005   0.18542   0.18957   0.20109

 Mulliken charges:
               1
     1  C   -0.379003
     2  C   -0.163139
     3  C   -0.326271
     4  C    0.378409
     5  C   -0.245873
     6  C   -0.042696
     7  C   -0.245878
     8  C   -0.263440
     9  H    0.109539
    10  H    0.112913
    11  H    0.112917
    12  H    0.098362
    13  H    0.098368
    14  H    0.092499
    15  H    0.092503
    16  H    0.085133
    17  H    0.083296
    18  H    0.067306
    19  H    0.085140
    20  H    0.083293
    21  H    0.083306
    22  H    0.083318
 Sum of Mulliken charges =  -0.00000

 Dipole moment (field-independent basis, Debye):
    X=             -0.2112    Y=              0.0140    Z=             -0.0001  Tot=              0.2117
 Quadrupole moment (field-independent basis, Debye-Ang):
   XX=            -52.5423   YY=            -51.4937   ZZ=            -51.0599
   XY=              0.2210   XZ=             -0.0001   YZ=              0.0003

  Exact polarizability:  93.546   1.204  78.079  -0.000   0.000  77.356
 Approx polarizability: 115.545   1.217 117.397   0.000   0.000 118.207

                      1                      2                      3
                      A                      A                      A
 Frequencies --     77.7113                85.8330               135.8028
 Red. masses --      1.7483                 2.4718                 3.0255
 Frc consts  --      0.0062                 0.0107                 0.0329
 IR Inten    --      0.0026                 0.0104                 0.0197

                      4                      5                      6
                      A                      A                      A
 Frequencies --    246.2466               309.7402               314.9427
 Red. masses --      1.1114                 2.1456                 2.8855
 Frc consts  --      0.0397                 0.1213                 0.1686
 IR Inten    --      0.0021                 0.0070                 0.0985

                      7                      8                      9
                      A                      A                      A
 Frequencies --    369.7750               541.1339               544.7093
 Red. masses --      3.1686                 1.7715                 1.8241
 Frc consts  --      0.2553                 0.3056                 0.3189
 IR Inten    --      0.1214                 0.2294                 0.2523

                     10                     11                     12
                      A                      A                      A
 Frequencies --    680.7302               737.9214               777.3353
 Red. masses --      2.9758                 1.2404                 2.0684
 Frc consts  --      0.8125                 0.3980                 0.7364
 IR Inten    --      0.0434                 2.0593                 0.3629

                     13                     14                     15
                      A                      A                      A
 Frequencies --    801.9874               871.6754               878.9149
 Red. masses --      2.8078                 1.4123                 3.2920
 Frc consts  --      1.0640                 0.6322                 1.4983
 IR Inten    --      0.0117                 0.1504                 0.2162

                     16                     17                     18
                      A                      A                      A
 Frequencies --    900.9354               942.4922               951.9315
 Red. masses --      2.1780                 1.6140                 1.7532
 Frc consts  --      1.0416                 0.8447                 0.9361
 IR Inten    --      1.8256                 0.2214                 0.2054

                     19                     20                     21
                      A                      A                      A
 Frequencies --    960.2549               975.6711               996.3136
 Red. masses --      1.2559                 2.8918                 1.0093
 Frc consts  --      0.6823                 1.6219                 0.5903
 IR Inten    --      0.0080                 0.0775                 0.0000

                     22                     23                     24
                      A                      A                      A
 Frequencies --   1047.8815              1060.2332              1086.8505
 Red. masses --      2.4941                 1.1157                 1.4880
 Frc consts  --      1.6136                 0.7389                 1.0356
 IR Inten    --      0.0877                 0.9990                 0.5967

                     25                     26                     27
                      A                      A                      A
 Frequencies --   1106.7190              1110.5378              1145.4885
 Red. masses --      1.5900                 1.7423                 1.3819
 Frc consts  --      1.1474                 1.2660                 1.0684
 IR Inten    --      1.1024                 1.8787                 0.1694

                     28                     29                     30
                      A                      A                      A
 Frequencies --   1146.0969              1169.7484              1194.8426
 Red. masses --      1.3621                 1.8269                 1.7481
 Frc consts  --      1.0541                 1.4728                 1.4704
 IR Inten    --      0.1893                 0.7174                 0.0021

                     31                     32                     33
                      A                      A                      A
 Frequencies --   1229.1303              1236.4979              1238.6979
 Red. masses --      1.7624                 1.6743                 1.7615
 Frc consts  --      1.5687                 1.5082                 1.5924
 IR Inten    --      3.7442                 0.2705                 4.5435

                     34                     35                     36
                      A                      A                      A
 Frequencies --   1279.0266              1301.9241              1331.4663
 Red. masses --      1.4025                 1.6224                 1.1039
 Frc consts  --      1.3518                 1.6202                 1.1530
 IR Inten    --      0.0169                30.7102                 0.1741

                     37                     38                     39
                      A                      A                      A
 Frequencies --   1337.0632              1396.1013              1412.2883
 Red. masses --      2.3834                 1.7439                 1.2338
 Frc consts  --      2.5105                 2.0027                 1.4499
 IR Inten    --      7.7636                 2.0485                 0.4809

                     40                     41                     42
                      A                      A                      A
 Frequencies --   1477.6828              1492.5025              1497.2882
 Red. masses --      1.0795                 1.0584                 1.0961
 Frc consts  --      1.3888                 1.3891                 1.4478
 IR Inten    --      0.6389                 0.8177                 0.1448

                     43                     44                     45
                      A                      A                      A
 Frequencies --   1497.5160              1499.5995              1509.9736
 Red. masses --      1.0971                 1.0405                 1.0825
 Frc consts  --      1.4495                 1.3786                 1.4541
 IR Inten    --      0.0123                 5.0779                 2.5644

                     46                     47                     48
                      A                      A                      A
 Frequencies --   1554.3450              3000.1431              3021.2822
 Red. masses --      1.1930                 1.0583                 1.0589
 Frc consts  --      1.6982                 5.6122                 5.6947
 IR Inten    --      0.5395                18.8443                19.5443

                     49                     50                     51
                      A                      A                      A
 Frequencies --   3027.7849              3028.7129              3035.0384
 Red. masses --      1.0359                 1.0996                 1.0536
 Frc consts  --      5.5952                 5.9428                 5.7179
 IR Inten    --     41.5746                10.6130                74.1870

                     52                     53                     54
                      A                      A                      A
 Frequencies --   3036.0736              3044.5232              3057.0320
 Red. masses --      1.0544                 1.0540                 1.1028
 Frc consts  --      5.7263                 5.7559                 6.0725
 IR Inten    --     57.4578                 1.1118                28.4737

                     55                     56                     57
                      A                      A                      A
 Frequencies --   3094.6373              3097.2909              3099.6323
 Red. masses --      1.1025                 1.1120                 1.1011
 Frc consts  --      6.2210                 6.2850                 6.2328
 IR Inten    --     49.6425                 6.5110                28.2437

                     58                     59                     60
                      A                      A                      A
 Frequencies --   3103.0496              3104.0820              3105.0156
 Red. masses --      1.1098                 1.1078                 1.0939
 Frc consts  --      6.2962                 6.2887                 6.2137
 IR Inten    --     60.4076                76.0091                72.7633

 - Thermochemistry -
 -------------------
 Temperature   298.150 Kelvin.  Pressure   1.00000 Atm.
 Atom     1 has atomic number  6 and mass  12.00000

 Molecular mass:   110.10955 amu.
 Principal axes and moments of inertia in atomic units:
                           1         2         3
     Eigenvalues --   358.959071636.410481671.87849
           X            1.00000   0.00151  -0.00000
           Y           -0.00151   1.00000   0.00001
           Z            0.00000  -0.00001   1.00000
 This molecule is an asymmetric top.
 Rotational symmetry number  1.
 Rotational temperatures (Kelvin)      0.24129     0.05293     0.05181
 Rotational constants (GHZ):           5.02771     1.10287     1.07947
 Zero-point vibrational energy     528246.1 (Joules/Mol)
                                  126.25386 (Kcal/Mol)
 Warning -- explicit consideration of   9 degrees of freedom as
           vibrations may cause significant error
 Vibrational temperatures:    111.81   123.49   195.39   354.29   445.65
          (Kelvin)            453.13   532.02   778.57   783.72   979.42
                             1061.70  1118.41  1153.88  1254.15  1264.56
                             1296.25  1356.04  1369.62  1381.59  1403.77
                             1433.47  1507.67  1525.44  1563.74  1592.32
                             1597.82  1648.10  1648.98  1683.01  1719.11
                             1768.44  1779.04  1782.21  1840.23  1873.18
                             1915.68  1923.74  2008.68  2031.97  2126.06
                             2147.38  2154.26  2154.59  2157.59  2172.52
                             2236.36  4316.54  4346.95  4356.31  4357.64
                             4366.74  4368.23  4380.39  4398.39  4452.49
                             4456.31  4459.68  4464.60  4466.08  4467.42

 Zero-point correction=                           0.201198 (Hartree/Particle)
 Thermal correction to Energy=                    0.209382
 Thermal correction to Enthalpy=                  0.210326
 Thermal correction to Gibbs Free Energy=         0.168291
 Sum of electronic and zero-point Energies=           -313.031766
 Sum of electronic and thermal Energies=              -313.023583
 Sum of electronic and thermal Enthalpies=            -313.022639
 Sum of electronic and thermal Free Energies=         -313.064673

                     E (Thermal)             CV                S
                      KCal/Mol        Cal/Mol-Kelvin    Cal/Mol-Kelvin
 Total                  131.389             31.581             88.470
 Electronic               0.000              0.000              0.000
 Translational            0.889              2.981             40.005
 Rotational               0.889              2.981             28.376
 Vibrational            129.612             25.619             20.089
 Vibration     1          0.599              1.964              3.948
 Vibration     2          0.601              1.959              3.753
 Vibration     3          0.614              1.918              2.862
 Vibration     4          0.661              1.769              1.757
 Vibration     5          0.699              1.655              1.364
 Vibration     6          0.702              1.645              1.336
 Vibration     7          0.742              1.534              1.081
 Vibration     8          0.896              1.159              0.563
 Vibration     9          0.900              1.151              0.555

                           ! Non-Optimized Parameters !
 Normal termination of Gaussian 16 at Sun May 28 07:55:33 2023.
