 Gaussian 16, Revision A.03,
 Gaussian 16:  ES64L-G16RevA.03 25-Dec-2016

 -----------------------------
 # opt freq b3lyp/6-31g(2df,p)
 -----------------------------

 -------------------
 Title Card Required
 -------------------
 Symbolic Z-matrix:
 Charge =  0 Multiplicity = 1

 SCF Done:  E(RB3LYP) =  -1000.48957731     A.U. after   12 cycles
 SCF Done:  E(RB3LYP) =  -1000.50243354     A.U. after   11 cycles
 SCF Done:  E(RB3LYP) =  -1000.50726100     A.U. after   11 cycles
 SCF Done:  E(RB3LYP) =  -1000.51057704     A.U. after   11 cycles
 SCF Done:  E(RB3LYP) =  -1000.51355305     A.U. after   11 cycles
 SCF Done:  E(RB3LYP) =  -1000.51569486     A.U. after   11 cycles
 SCF Done:  E(RB3LYP) =  -1000.51647782     A.U. after   10 cycles
 SCF Done:  E(RB3LYP) =  -1000.51659913     A.U. after   10 cycles
 SCF Done:  E(RB3LYP) =  -1000.51670991     A.U. after    9 cycles
 SCF Done:  E(RB3LYP) =  -1000.51676924     A.U. after    9 cycles
 SCF Done:  E(RB3LYP) =  -1000.52127963     A.U. after   10 cycles
 SCF Done:  E(RB3LYP) =  -1000.52285956     A.U. after   10 cycles
 SCF Done:  E(RB3LYP) =  -1000.52406032     A.U. after   11 cycles
 SCF Done:  E(RB3LYP) =  -1000.52419892     A.U. after   10 cycles
 SCF Done:  E(RB3LYP) =  -1000.52428045     A.U. after    9 cycles
 SCF Done:  E(RB3LYP) =  -1000.52429453     A.U. after    8 cycles
 SCF Done:  E(RB3LYP) =  -1000.52429690     A.U. after    7 cycles
 SCF Done:  E(RB3LYP) =  -1000.52429747     A.U. after    6 cycles
 SCF Done:  E(RB3LYP) =  -1000.52429779     A.U. after    6 cycles
 Optimization completed.
    -- Stationary point found.
 Normal termination of Gaussian 16 at Wed May 24 02:26:10 2023.

 ----------------------------------------------------------------------
 #N Geom=AllCheck Guess=TCheck SCRF=Check GenChk RB3LYP/6-31G(2df,p) Fr
 eq
 ----------------------------------------------------------------------

 Structure from the checkpoint file:  "CCCC1CCCOCCCqSrCNC1.chk"
 -------------------
 Title Card Required
 -------------------
 Charge =  0 Multiplicity = 1

                         Standard orientation:
 ---------------------------------------------------------------------
 Center     Atomic      Atomic             Coordinates (Angstroms)
 Number     Number       Type             X           Y           Z
 ---------------------------------------------------------------------
      1          6           0        5.603971   -0.904052   -0.448478
      2          6           0        4.158450   -0.409927   -0.562133
      3          6           0        3.392130   -0.536041    0.762875
      4          6           0        1.916799   -0.076392    0.747301
      5          6           0        1.803632    1.449661    0.515293
      6          6           0        0.415965    2.085513    0.748499
      7          6           0       -0.429774    2.200759   -0.528165
      8          8           0       -1.792213    2.511574   -0.279653
      9          6           0       -2.583384    1.432726    0.192613
     10          6           0       -3.015981    0.441602   -0.921806
     11          6           0       -2.693780   -1.057344   -0.743277
     12         16           0       -3.436593   -1.795145    0.785384
     13          6           0       -1.217782   -1.443430   -0.930783
     14          7           0       -0.343017   -0.887330    0.089839
     15          6           0        1.082947   -0.932607   -0.226238
     16          1           0        6.136404   -0.807580   -1.399863
     17          1           0        5.639934   -1.958355   -0.151826
     18          1           0        6.159161   -0.332117    0.303483
     19          1           0        3.644037   -0.980063   -1.345824
     20          1           0        4.160434    0.634514   -0.895585
     21          1           0        3.927073    0.033369    1.534669
     22          1           0        3.425644   -1.585739    1.085800
     23          1           0        1.525049   -0.274949    1.756877
     24          1           0        2.147343    1.692509   -0.499697
     25          1           0        2.523644    1.928978    1.189463
     26          1           0        0.534817    3.091786    1.165790
     27          1           0       -0.127056    1.502895    1.497712
     28          1           0       -0.345208    1.284572   -1.123728
     29          1           0       -0.051824    3.025569   -1.143524
     30          1           0       -3.468945    1.905507    0.626418
     31          1           0       -2.065721    0.902768    0.998539
     32          1           0       -2.552487    0.774099   -1.858848
     33          1           0       -4.096369    0.527683   -1.070564
     34          1           0       -3.247258   -1.597761   -1.519781
     35          1           0       -2.874592   -0.969096    1.686489
     36          1           0       -0.898000   -1.033422   -1.898795
     37          1           0       -1.145942   -2.541805   -1.016532
     38          1           0       -0.509854   -1.363949    0.970331
     39          1           0        1.208821   -0.554810   -1.248572
     40          1           0        1.476047   -1.966376   -0.234434
 ---------------------------------------------------------------------

 SCF Done:  E(RB3LYP) =  -1000.52429779     A.U. after    1 cycles

 The electronic state is 1-A.
 Alpha  occ. eigenvalues --  -88.86795 -19.12673 -14.31831 -10.22522 -10.21859
 Alpha  occ. eigenvalues --  -10.21393 -10.21316 -10.20681 -10.18716 -10.18455
 Alpha  occ. eigenvalues --  -10.18023 -10.17849 -10.17814 -10.17360 -10.16993
 Alpha  occ. eigenvalues --   -7.93401  -5.89837  -5.89512  -5.88931  -1.01644
 Alpha  occ. eigenvalues --   -0.91144  -0.82181  -0.80225  -0.77211  -0.74740
 Alpha  occ. eigenvalues --   -0.71910  -0.69585  -0.67531  -0.65597  -0.62039
 Alpha  occ. eigenvalues --   -0.60203  -0.58592  -0.56076  -0.54297  -0.49960
 Alpha  occ. eigenvalues --   -0.48812  -0.48268  -0.46543  -0.45614  -0.44976
 Alpha  occ. eigenvalues --   -0.44561  -0.43692  -0.41773  -0.41195  -0.40491
 Alpha  occ. eigenvalues --   -0.39803  -0.38946  -0.38127  -0.37487  -0.37124
 Alpha  occ. eigenvalues --   -0.35977  -0.35512  -0.35223  -0.34447  -0.33519
 Alpha  occ. eigenvalues --   -0.32534  -0.31814  -0.31550  -0.30946  -0.30880
 Alpha  occ. eigenvalues --   -0.28793  -0.24379  -0.23897  -0.22330
 Alpha virt. eigenvalues --    0.02833   0.05502   0.07260   0.07987   0.09043
 Alpha virt. eigenvalues --    0.10682   0.10843   0.11215   0.12461   0.12936
 Alpha virt. eigenvalues --    0.13258   0.13630   0.14080   0.15200   0.15679

 Mulliken charges:
               1
     1  C   -0.378142
     2  C   -0.160219
     3  C   -0.198041
     4  C    0.001059
     5  C   -0.202939
     6  C   -0.195568
     7  C   -0.054466
     8  O   -0.252785
     9  C   -0.059941
    10  C   -0.211756
    11  C   -0.032520
    12  S   -0.295901
    13  C   -0.134964
    14  N   -0.297759
    15  C   -0.137346
    16  H    0.110496
    17  H    0.113214
    18  H    0.114057
    19  H    0.097780
    20  H    0.100160
    21  H    0.089458
    22  H    0.087395
    23  H    0.063378
    24  H    0.092935
    25  H    0.091553
    26  H    0.092009
    27  H    0.098004
    28  H    0.085749
    29  H    0.095265
    30  H    0.105173
    31  H    0.087710
    32  H    0.112610
    33  H    0.111514
    34  H    0.115490
    35  H    0.154671
    36  H    0.102581
    37  H    0.090465
    38  H    0.220304
    39  H    0.101355
    40  H    0.077962
 Sum of Mulliken charges =  -0.00000

 Dipole moment (field-independent basis, Debye):
    X=              1.8850    Y=             -0.8790    Z=             -0.5362  Tot=              2.1479
 Quadrupole moment (field-independent basis, Debye-Ang):
   XX=           -108.6482   YY=           -110.4299   ZZ=            -99.1171
   XY=              0.2961   XZ=              2.5527   YZ=              2.2713

  Exact polarizability: 189.225   3.660 151.452  -2.956  -0.737 135.040
 Approx polarizability: 227.974   7.235 221.302  -5.919  -3.511 226.586

                      1                      2                      3
                      A                      A                      A
 Frequencies --     48.4932                61.5434                68.0446
 Red. masses --      3.8287                 3.4689                 3.1245
 Frc consts  --      0.0053                 0.0077                 0.0085
 IR Inten    --      0.6235                 0.2421                 0.1756

                      4                      5                      6
                      A                      A                      A
 Frequencies --     76.3717                99.7487               116.8282
 Red. masses --      1.9302                 2.9932                 3.2973
 Frc consts  --      0.0066                 0.0175                 0.0265
 IR Inten    --      0.7766                 1.2516                 0.9351

                      7                      8                      9
                      A                      A                      A
 Frequencies --    143.3029               172.7556               202.9181
 Red. masses --      3.4314                 2.3107                 3.1141
 Frc consts  --      0.0415                 0.0406                 0.0755
 IR Inten    --      0.2361                 3.1136                 1.2509

                     10                     11                     12
                      A                      A                      A
 Frequencies --    214.5638               229.1927               243.2667
 Red. masses --      2.0236                 3.0011                 1.5050
 Frc consts  --      0.0549                 0.0929                 0.0525
 IR Inten    --      2.0056                 0.4199                 2.5458

                     13                     14                     15
                      A                      A                      A
 Frequencies --    244.8309               258.7980               263.0125
 Red. masses --      1.3004                 1.7190                 2.3704
 Frc consts  --      0.0459                 0.0678                 0.0966
 IR Inten    --      9.3013                 1.2879                 0.6812

                     16                     17                     18
                      A                      A                      A
 Frequencies --    278.3099               317.1366               330.5502
 Red. masses --      3.1346                 2.9670                 2.5148
 Frc consts  --      0.1431                 0.1758                 0.1619
 IR Inten    --      0.1975                 0.7718                 0.8076

                     19                     20                     21
                      A                      A                      A
 Frequencies --    353.0093               360.0123               403.7297
 Red. masses --      2.4785                 2.4209                 2.5696
 Frc consts  --      0.1820                 0.1849                 0.2468
 IR Inten    --      2.7741                 0.6162                 0.1972

                     22                     23                     24
                      A                      A                      A
 Frequencies --    427.4902               459.3224               503.6067
 Red. masses --      2.3552                 2.9281                 3.1357
 Frc consts  --      0.2536                 0.3640                 0.4686
 IR Inten    --      1.4655                 5.9775                 9.3268

                     25                     26                     27
                      A                      A                      A
 Frequencies --    603.5707               616.3912               660.2069
 Red. masses --      3.6287                 3.5019                 2.7815
 Frc consts  --      0.7789                 0.7839                 0.7143
 IR Inten    --      3.2637                 6.9949                 1.1716

                     28                     29                     30
                      A                      A                      A
 Frequencies --    734.4778               746.3477               779.0527
 Red. masses --      1.2891                 1.1794                 1.2301
 Frc consts  --      0.4097                 0.3871                 0.4399
 IR Inten    --      0.0298                 4.7325                58.6765

                     31                     32                     33
                      A                      A                      A
 Frequencies --    779.2482               833.3675               848.5339
 Red. masses --      2.0362                 1.7962                 2.0317
 Frc consts  --      0.7285                 0.7350                 0.8619
 IR Inten    --      2.8927                 1.1255                 1.1835

                     34                     35                     36
                      A                      A                      A
 Frequencies --    867.1973               889.0240               891.6053
 Red. masses --      1.3505                 2.0378                 1.6858
 Frc consts  --      0.5984                 0.9489                 0.7896
 IR Inten    --      0.5817                 2.6765                 2.8786

                     37                     38                     39
                      A                      A                      A
 Frequencies --    900.7300               941.1356               966.5952
 Red. masses --      1.6491                 2.3216                 2.4552
 Frc consts  --      0.7883                 1.2115                 1.3515
 IR Inten    --      2.0144                10.8398                19.1780

                     40                     41                     42
                      A                      A                      A
 Frequencies --    980.5347              1005.6431              1015.0190
 Red. masses --      2.0436                 2.0310                 2.3249
 Frc consts  --      1.1576                 1.2102                 1.4113
 IR Inten    --      5.6216                 1.3010                 4.7508

                     43                     44                     45
                      A                      A                      A
 Frequencies --   1027.4810              1044.9548              1058.1122
 Red. masses --      2.2881                 2.1635                 2.5153
 Frc consts  --      1.4232                 1.3919                 1.6592
 IR Inten    --      9.0501                 1.4855                 2.5753

                     46                     47                     48
                      A                      A                      A
 Frequencies --   1067.8926              1073.7282              1085.8686
 Red. masses --      2.1256                 2.2461                 1.7604
 Frc consts  --      1.4282                 1.5257                 1.2230
 IR Inten    --      1.6568                 1.5344                 3.7495

                     49                     50                     51
                      A                      A                      A
 Frequencies --   1103.3201              1122.9492              1134.0049
 Red. masses --      2.0010                 2.8890                 2.7022
 Frc consts  --      1.4352                 2.1464                 2.0474
 IR Inten    --     28.6581               114.4995                63.4058

                     52                     53                     54
                      A                      A                      A
 Frequencies --   1153.4555              1164.7565              1183.8938
 Red. masses --      2.3383                 2.8859                 2.0479
 Frc consts  --      1.8329                 2.3067                 1.6912
 IR Inten    --     13.2622                 7.7404                 2.1664

                     55                     56                     57
                      A                      A                      A
 Frequencies --   1204.6626              1239.0830              1249.7790
 Red. masses --      1.1478                 1.2600                 1.3858
 Frc consts  --      0.9814                 1.1398                 1.2753
 IR Inten    --      3.4403                 7.8518                 7.6911

                     58                     59                     60
                      A                      A                      A
 Frequencies --   1269.4763              1276.0122              1291.3086
 Red. masses --      1.2585                 1.2785                 1.3603
 Frc consts  --      1.1949                 1.2264                 1.3364
 IR Inten    --      1.8107                 0.6717                 5.1380

                     61                     62                     63
                      A                      A                      A
 Frequencies --   1296.2881              1309.6839              1319.2456
 Red. masses --      1.2875                 1.2929                 1.1831
 Frc consts  --      1.2746                 1.3066                 1.2132
 IR Inten    --      0.4398                 5.9533                 6.0916

                     64                     65                     66
                      A                      A                      A
 Frequencies --   1327.8799              1333.5954              1336.9191
 Red. masses --      1.1523                 1.2315                 1.2566
 Frc consts  --      1.1971                 1.2904                 1.3233
 IR Inten    --      0.9036                15.6776                 6.1464

                     67                     68                     69
                      A                      A                      A
 Frequencies --   1350.5055              1354.5926              1358.4621
 Red. masses --      1.2662                 1.1539                 1.2001
 Frc consts  --      1.3607                 1.2475                 1.3048
 IR Inten    --      0.9749                 4.6846                 6.9671

                     70                     71                     72
                      A                      A                      A
 Frequencies --   1373.1529              1387.9969              1391.0022
 Red. masses --      1.2755                 1.4070                 1.3883
 Frc consts  --      1.4170                 1.5971                 1.5827
 IR Inten    --      2.2318                11.1739                 3.7681

                     73                     74                     75
                      A                      A                      A
 Frequencies --   1402.5477              1412.7031              1414.9273
 Red. masses --      1.4264                 1.2384                 1.2659
 Frc consts  --      1.6532                 1.4561                 1.4931
 IR Inten    --      3.4281                 3.6949                11.6576

                     76                     77                     78
                      A                      A                      A
 Frequencies --   1426.7963              1428.0242              1470.7896
 Red. masses --      1.3064                 1.3556                 1.0868
 Frc consts  --      1.5669                 1.6287                 1.3851
 IR Inten    --      0.2565                 0.9498                 6.2016

                     79                     80                     81
                      A                      A                      A
 Frequencies --   1477.2964              1482.4835              1483.3887
 Red. masses --      1.1028                 1.0758                 1.1852
 Frc consts  --      1.4181                 1.3930                 1.5366
 IR Inten    --      8.3125                 2.9614                20.0332

                     82                     83                     84
                      A                      A                      A
 Frequencies --   1488.1817              1492.8003              1494.5753
 Red. masses --      1.0963                 1.0804                 1.0791
 Frc consts  --      1.4306                 1.4185                 1.4203
 IR Inten    --     11.2657                11.9426                 6.1496

                     85                     86                     87
                      A                      A                      A
 Frequencies --   1496.0345              1498.2103              1499.7107
 Red. masses --      1.0929                 1.0863                 1.0412
 Frc consts  --      1.4412                 1.4366                 1.3797
 IR Inten    --      4.8419                 5.2009                 5.1293

                     88                     89                     90
                      A                      A                      A
 Frequencies --   1510.0586              1515.7490              2680.7569
 Red. masses --      1.0847                 1.0894                 1.0381
 Frc consts  --      1.4573                 1.4747                 4.3957
 IR Inten    --      5.2679                 3.3453                 4.0397

                     91                     92                     93
                      A                      A                      A
 Frequencies --   2921.5209              2945.7373              2979.0401
 Red. masses --      1.0728                 1.0700                 1.0795
 Frc consts  --      5.3948                 5.4702                 5.6443
 IR Inten    --     79.7133                79.3835                13.8039

                     94                     95                     96
                      A                      A                      A
 Frequencies --   3007.0294              3010.6929              3023.9199
 Red. masses --      1.0614                 1.0617                 1.0868
 Frc consts  --      5.6548                 5.6699                 5.8554
 IR Inten    --     27.5030                29.2394                15.1855

                     97                     98                     99
                      A                      A                      A
 Frequencies --   3025.6098              3028.0320              3029.0646
 Red. masses --      1.0632                 1.0407                 1.0579
 Frc consts  --      5.7346                 5.6222                 5.7190
 IR Inten    --      2.4610                45.3680                31.1962

                    100                    101                    102
                      A                      A                      A
 Frequencies --   3032.4959              3033.5648              3037.3920
 Red. masses --      1.0867                 1.0665                 1.0804
 Frc consts  --      5.8880                 5.7828                 5.8729
 IR Inten    --      9.0796                19.4413                 8.0060

                    103                    104                    105
                      A                      A                      A
 Frequencies --   3041.7378              3042.8557              3048.3615
 Red. masses --      1.0818                 1.0634                 1.0808
 Frc consts  --      5.8972                 5.8012                 5.9173
 IR Inten    --     51.8475                 3.0558                31.7535

                    106                    107                    108
                      A                      A                      A
 Frequencies --   3053.5433              3063.5283              3068.1979
 Red. masses --      1.0947                 1.1018                 1.0960
 Frc consts  --      6.0140                 6.0924                 6.0789
 IR Inten    --     60.4878                21.0021                46.8638

                    109                    110                    111
                      A                      A                      A
 Frequencies --   3075.1305              3092.2600              3095.4143
 Red. masses --      1.1028                 1.1004                 1.1021
 Frc consts  --      6.1441                 6.1996                 6.2220
 IR Inten    --      6.4798                56.6412                24.7799

                    112                    113                    114
                      A                      A                      A
 Frequencies --   3096.1753              3100.5118              3515.6366
 Red. masses --      1.1023                 1.1008                 1.0732
 Frc consts  --      6.2257                 6.2351                 7.8150
 IR Inten    --     90.6417                37.2720                 2.0050

 - Thermochemistry -
 -------------------
 Temperature   298.150 Kelvin.  Pressure   1.00000 Atm.
 Atom     1 has atomic number  6 and mass  12.00000

 Molecular mass:   231.16569 amu.
 Principal axes and moments of inertia in atomic units:
                           1         2         3
     Eigenvalues --  2222.063296829.232778193.45339
           X            0.99989  -0.01447   0.00229
           Y            0.01443   0.99971   0.01943
           Z           -0.00257  -0.01940   0.99981
 This molecule is an asymmetric top.
 Rotational symmetry number  1.
 Warning -- assumption of classical behavior for rotation
           may cause significant error
 Rotational temperatures (Kelvin)      0.03898     0.01268     0.01057
 Rotational constants (GHZ):           0.81219     0.26427     0.22027
 Zero-point vibrational energy     950242.1 (Joules/Mol)
                                  227.11331 (Kcal/Mol)
 Warning -- explicit consideration of  26 degrees of freedom as
           vibrations may cause significant error
 Vibrational temperatures:     69.77    88.55    97.90   109.88   143.52
          (Kelvin)            168.09   206.18   248.56   291.95   308.71
                              329.76   350.01   352.26   372.35   378.42
                              400.43   456.29   475.59   507.90   517.98
                              580.88   615.06   660.86   724.58   868.40
                              886.85   949.89  1056.75  1073.83  1120.88
                             1121.16  1199.03  1220.85  1247.70  1279.11
                             1282.82  1295.95  1354.08  1390.71  1410.77
                             1446.90  1460.39  1478.32  1503.46  1522.39
                             1536.46  1544.86  1562.32  1587.43  1615.67
                             1631.58  1659.57  1675.82  1703.36  1733.24
                             1782.76  1798.15  1826.49  1835.90  1857.91
                             1865.07  1884.34  1898.10  1910.52  1918.75
                             1923.53  1943.08  1948.96  1954.52  1975.66
                             1997.02  2001.34  2017.95  2032.56  2035.76
                             2052.84  2054.61  2116.14  2125.50  2132.96
                             2134.27  2141.16  2147.81  2150.36  2152.46
                             2155.59  2157.75  2172.64  2180.82  3857.01
                             4203.42  4238.26  4286.17  4326.44  4331.72
                             4350.75  4353.18  4356.66  4358.15  4363.09
                             4364.62  4370.13  4376.38  4377.99  4385.91
                             4393.37  4407.73  4414.45  4424.43  4449.07
                             4453.61  4454.71  4460.94  5058.22

 Zero-point correction=                           0.361928 (Hartree/Particle)
 Thermal correction to Energy=                    0.379190
 Thermal correction to Enthalpy=                  0.380134
 Thermal correction to Gibbs Free Energy=         0.317300
 Sum of electronic and zero-point Energies=          -1000.162370
 Sum of electronic and thermal Energies=             -1000.145108
 Sum of electronic and thermal Enthalpies=           -1000.144164
 Sum of electronic and thermal Free Energies=        -1000.206998

                     E (Thermal)             CV                S
                      KCal/Mol        Cal/Mol-Kelvin    Cal/Mol-Kelvin
 Total                  237.945             65.964            132.245
 Electronic               0.000              0.000              0.000
 Translational            0.889              2.981             42.216
 Rotational               0.889              2.981             33.186
 Vibrational            236.168             60.003             56.844
 Vibration     1          0.595              1.978              4.878
 Vibration     2          0.597              1.973              4.407
 Vibration     3          0.598              1.969              4.209
 Vibration     4          0.599              1.965              3.982
 Vibration     5          0.604              1.949              3.459
 Vibration     6          0.608              1.935              3.152
 Vibration     7          0.616              1.910              2.759
 Vibration     8          0.626              1.876              2.405
 Vibration     9          0.639              1.836              2.106
 Vibration    10          0.644              1.819              2.004
 Vibration    11          0.652              1.796              1.885
 Vibration    12          0.659              1.774              1.779
 Vibration    13          0.660              1.771              1.767
 Vibration    14          0.668              1.748              1.670
 Vibration    15          0.670              1.741              1.642
 Vibration    16          0.679              1.714              1.544
 Vibration    17          0.704              1.641              1.325
 Vibration    18          0.713              1.614              1.257
 Vibration    19          0.729              1.569              1.153
 Vibration    20          0.735              1.555              1.122
 Vibration    21          0.769              1.462              0.949
 Vibration    22          0.789              1.410              0.867
 Vibration    23          0.817              1.340              0.768
 Vibration    24          0.859              1.242              0.649
 Vibration    25          0.962              1.024              0.444
 Vibration    26          0.976              0.997              0.422

 Optimization completed.
    -- Stationary point found.
 Normal termination of Gaussian 16 at Wed May 24 06:14:48 2023.
