 Gaussian 16, Revision A.03,
 Gaussian 16:  ES64L-G16RevA.03 25-Dec-2016

 -----------------------------
 # opt freq b3lyp/6-31g(2df,p)
 -----------------------------

 -------------------
 Title Card Required
 -------------------
 Symbolic Z-matrix:
 Charge =  0 Multiplicity = 1

 SCF Done:  E(RB3LYP) =  -661.448171587     A.U. after   13 cycles
 SCF Done:  E(RB3LYP) =  -661.456588081     A.U. after   12 cycles
 SCF Done:  E(RB3LYP) =  -661.460639184     A.U. after   11 cycles
 SCF Done:  E(RB3LYP) =  -661.462984333     A.U. after   11 cycles
 SCF Done:  E(RB3LYP) =  -661.464104640     A.U. after   11 cycles
 SCF Done:  E(RB3LYP) =  -661.464373835     A.U. after   10 cycles
 SCF Done:  E(RB3LYP) =  -661.464452142     A.U. after   10 cycles
 SCF Done:  E(RB3LYP) =  -661.464464185     A.U. after    9 cycles
 SCF Done:  E(RB3LYP) =  -661.464470217     A.U. after    8 cycles
 SCF Done:  E(RB3LYP) =  -661.464470952     A.U. after    7 cycles
 SCF Done:  E(RB3LYP) =  -661.464471098     A.U. after    6 cycles
 SCF Done:  E(RB3LYP) =  -661.464471148     A.U. after    6 cycles
 SCF Done:  E(RB3LYP) =  -661.464471288     A.U. after    5 cycles
 Optimization completed.
    -- Stationary point found.
 Normal termination of Gaussian 16 at Mon May 22 09:18:25 2023.

 ----------------------------------------------------------------------
 #N Geom=AllCheck Guess=TCheck SCRF=Check GenChk RB3LYP/6-31G(2df,p) Fr
 eq
 ----------------------------------------------------------------------

 Structure from the checkpoint file:  "CCCCCqCrCC1qCrCCCCOO1.chk"
 -------------------
 Title Card Required
 -------------------
 Charge =  0 Multiplicity = 1

                         Standard orientation:
 ---------------------------------------------------------------------
 Center     Atomic      Atomic             Coordinates (Angstroms)
 Number     Number       Type             X           Y           Z
 ---------------------------------------------------------------------
      1          6           0       -5.904164   -1.119243    0.004507
      2          6           0       -4.793293   -0.239108    0.583710
      3          6           0       -3.493243   -0.294598   -0.227329
      4          6           0       -2.385574    0.592503    0.352234
      5          6           0       -1.015087    0.481347   -0.346518
      6          6           0       -1.093957    0.857657   -1.835355
      7          6           0        0.027790    1.355982    0.394365
      8          6           0        1.480747    0.826630    0.480080
      9          6           0        2.403098    1.965774    0.933436
     10          6           0        1.560191   -0.383048    1.440362
     11          6           0        2.787015   -1.304461    1.317255
     12          6           0        2.849746   -2.051153   -0.025080
     13          6           0        3.412361   -1.190949   -1.165713
     14          8           0        3.216336    0.200328   -0.979678
     15          8           0        1.791055    0.440294   -0.876106
     16          1           0       -6.817484   -1.059550    0.604946
     17          1           0       -5.597873   -2.170820   -0.031543
     18          1           0       -6.157500   -0.815754   -1.017498
     19          1           0       -4.587711   -0.542049    1.619146
     20          1           0       -5.140854    0.801281    0.637828
     21          1           0       -3.708308   -0.002644   -1.262619
     22          1           0       -3.139772   -1.334964   -0.272768
     23          1           0       -2.256281    0.339452    1.413876
     24          1           0       -2.713541    1.642535    0.332107
     25          1           0       -0.701717   -0.569073   -0.285178
     26          1           0       -1.500718    1.869946   -1.954643
     27          1           0       -1.739827    0.172913   -2.392642
     28          1           0       -0.102776    0.836151   -2.291280
     29          1           0       -0.292303    1.509895    1.432018
     30          1           0        0.050068    2.350091   -0.067492
     31          1           0        2.030887    2.395343    1.868810
     32          1           0        2.426490    2.752697    0.174694
     33          1           0        3.424766    1.619067    1.095006
     34          1           0        0.666929   -1.003690    1.301853
     35          1           0        1.503726    0.005794    2.464716
     36          1           0        2.725916   -2.041268    2.126394
     37          1           0        3.715373   -0.745385    1.480939
     38          1           0        1.845161   -2.401979   -0.285170
     39          1           0        3.474585   -2.947242    0.066411
     40          1           0        3.013386   -1.507737   -2.138681
     41          1           0        4.506471   -1.261981   -1.208686
 ---------------------------------------------------------------------

 SCF Done:  E(RB3LYP) =  -661.464471288     A.U. after    1 cycles

 The electronic state is 1-A.
 Alpha  occ. eigenvalues --  -19.18135 -19.17867 -10.23529 -10.22648 -10.18223
 Alpha  occ. eigenvalues --  -10.18097 -10.17969 -10.17765 -10.17559 -10.17468
 Alpha  occ. eigenvalues --  -10.17151 -10.17125 -10.16881 -10.16648 -10.15823
 Alpha  occ. eigenvalues --   -1.10577  -0.92068  -0.81401  -0.80001  -0.77267
 Alpha  occ. eigenvalues --   -0.74672  -0.71012  -0.69994  -0.67556  -0.64591
 Alpha  occ. eigenvalues --   -0.62576  -0.57687  -0.57549  -0.55614  -0.54813
 Alpha  occ. eigenvalues --   -0.48939  -0.48095  -0.47435  -0.46339  -0.45504
 Alpha  occ. eigenvalues --   -0.43348  -0.43200  -0.42697  -0.41264  -0.41009
 Alpha  occ. eigenvalues --   -0.39709  -0.39504  -0.38811  -0.37748  -0.37584
 Alpha  occ. eigenvalues --   -0.36834  -0.36212  -0.35040  -0.34501  -0.34123
 Alpha  occ. eigenvalues --   -0.33292  -0.32894  -0.32580  -0.32215  -0.31408
 Alpha  occ. eigenvalues --   -0.30868  -0.30603  -0.28870  -0.27000  -0.24439
 Alpha virt. eigenvalues --    0.03955   0.07948   0.09268   0.09911   0.10607
 Alpha virt. eigenvalues --    0.11543   0.12222   0.12969   0.13375   0.13851
 Alpha virt. eigenvalues --    0.14056   0.15074   0.15432   0.16005   0.16364

 Mulliken charges:
               1
     1  C   -0.379919
     2  C   -0.161050
     3  C   -0.172904
     4  C   -0.187490
     5  C    0.029285
     6  C   -0.402208
     7  C   -0.247513
     8  C    0.376979
     9  C   -0.420761
    10  C   -0.215465
    11  C   -0.207143
    12  C   -0.209153
    13  C   -0.043806
    14  O   -0.181972
    15  O   -0.225983
    16  H    0.109265
    17  H    0.111925
    18  H    0.112930
    19  H    0.091510
    20  H    0.093379
    21  H    0.097364
    22  H    0.087654
    23  H    0.084796
    24  H    0.089461
    25  H    0.072731
    26  H    0.103164
    27  H    0.106904
    28  H    0.137828
    29  H    0.093097
    30  H    0.096789
    31  H    0.108605
    32  H    0.122738
    33  H    0.126346
    34  H    0.097568
    35  H    0.092302
    36  H    0.092353
    37  H    0.103574
    38  H    0.106540
    39  H    0.096340
    40  H    0.102074
    41  H    0.111865
 Sum of Mulliken charges =  -0.00000

 Dipole moment (field-independent basis, Debye):
    X=              0.0397    Y=             -1.0847    Z=              1.2847  Tot=              1.6818
 Quadrupole moment (field-independent basis, Debye-Ang):
   XX=            -95.4434   YY=            -93.8132   ZZ=            -96.5356
   XY=             -5.0477   XZ=              1.8860   YZ=              1.8426

  Exact polarizability: 176.835  -4.112 139.388  -1.738   3.050 135.315
 Approx polarizability: 217.269  -6.249 204.115  -2.651   2.570 202.418

                      1                      2                      3
                      A                      A                      A
 Frequencies --     23.6522                45.8460                62.3539
 Red. masses --      3.5898                 2.4818                 2.0169
 Frc consts  --      0.0012                 0.0031                 0.0046
 IR Inten    --      0.0498                 0.2625                 0.0940

                      4                      5                      6
                      A                      A                      A
 Frequencies --     79.7299                93.6104               119.5986
 Red. masses --      2.9843                 2.4492                 2.8858
 Frc consts  --      0.0112                 0.0126                 0.0243
 IR Inten    --      0.3574                 0.0267                 0.1125

                      7                      8                      9
                      A                      A                      A
 Frequencies --    133.8604               148.6658               179.0149
 Red. masses --      2.0806                 2.2003                 3.6928
 Frc consts  --      0.0220                 0.0287                 0.0697
 IR Inten    --      0.1828                 0.6526                 2.0780

                     10                     11                     12
                      A                      A                      A
 Frequencies --    218.8797               232.9333               240.3622
 Red. masses --      1.2204                 1.9062                 1.2400
 Frc consts  --      0.0344                 0.0609                 0.0422
 IR Inten    --      0.9275                 0.0306                 0.2737

                     13                     14                     15
                      A                      A                      A
 Frequencies --    241.9740               248.9072               280.1659
 Red. masses --      2.5891                 1.1968                 2.2433
 Frc consts  --      0.0893                 0.0437                 0.1037
 IR Inten    --      0.3662                 0.0970                 2.2198

                     16                     17                     18
                      A                      A                      A
 Frequencies --    304.3619               311.2046               329.5516
 Red. masses --      2.6132                 2.7521                 2.9141
 Frc consts  --      0.1426                 0.1570                 0.1865
 IR Inten    --      0.1093                 1.7715                 3.0562

                     19                     20                     21
                      A                      A                      A
 Frequencies --    359.6658               391.3932               413.1868
 Red. masses --      3.4505                 2.9289                 2.0702
 Frc consts  --      0.2630                 0.2644                 0.2082
 IR Inten    --      2.3788                 0.5732                 0.2365

                     22                     23                     24
                      A                      A                      A
 Frequencies --    426.1093               451.7181               488.6262
 Red. masses --      1.9625                 2.8299                 2.4920
 Frc consts  --      0.2099                 0.3402                 0.3506
 IR Inten    --      0.0471                 1.6809                 3.1851

                     25                     26                     27
                      A                      A                      A
 Frequencies --    520.9699               588.4113               646.2160
 Red. masses --      2.5376                 2.4631                 4.0524
 Frc consts  --      0.4058                 0.5025                 0.9970
 IR Inten    --      0.5863                 0.9395                 3.3197

                     28                     29                     30
                      A                      A                      A
 Frequencies --    718.6594               736.5802               787.0148
 Red. masses --      2.8718                 1.0850                 1.2454
 Frc consts  --      0.8739                 0.3468                 0.4545
 IR Inten    --      2.8082                 2.5793                 0.2681

                     31                     32                     33
                      A                      A                      A
 Frequencies --    802.2872               818.9912               840.3661
 Red. masses --      1.6196                 2.4738                 2.5280
 Frc consts  --      0.6142                 0.9776                 1.0519
 IR Inten    --      1.6290                 4.5115                 0.1067

                     34                     35                     36
                      A                      A                      A
 Frequencies --    865.1407               902.3491               906.2516
 Red. masses --      2.1277                 2.0222                 2.0304
 Frc consts  --      0.9383                 0.9701                 0.9825
 IR Inten    --      1.5397                 0.5449                 4.2119

                     37                     38                     39
                      A                      A                      A
 Frequencies --    908.2231               917.3773               929.9956
 Red. masses --      3.3309                 1.3139                 1.7749
 Frc consts  --      1.6188                 0.6515                 0.9045
 IR Inten    --      9.6515                 2.3176                 0.1391

                     40                     41                     42
                      A                      A                      A
 Frequencies --    933.4588               971.5224               977.0196
 Red. masses --      1.9712                 2.4735                 1.9058
 Frc consts  --      1.0120                 1.3755                 1.0718
 IR Inten    --      5.4564                 2.6762                10.0264

                     43                     44                     45
                      A                      A                      A
 Frequencies --    984.9185              1016.3591              1035.1638
 Red. masses --      1.8537                 1.5583                 1.8492
 Frc consts  --      1.0595                 0.9484                 1.1675
 IR Inten    --      5.9076                 1.2191                 3.2180

                     46                     47                     48
                      A                      A                      A
 Frequencies --   1039.3560              1060.6423              1069.4455
 Red. masses --      2.0848                 2.5855                 2.3638
 Frc consts  --      1.3269                 1.7137                 1.5928
 IR Inten    --     12.0755                 5.6124                 0.1335

                     49                     50                     51
                      A                      A                      A
 Frequencies --   1083.0029              1096.3177              1108.3794
 Red. masses --      2.1003                 1.9108                 2.0214
 Frc consts  --      1.4514                 1.3531                 1.4631
 IR Inten    --      3.0692                 9.6479                 1.8397

                     52                     53                     54
                      A                      A                      A
 Frequencies --   1130.6617              1160.2005              1180.9229
 Red. masses --      2.0719                 2.4984                 1.9593
 Frc consts  --      1.5606                 1.9814                 1.6099
 IR Inten    --      9.4981                 7.1834                17.3652

                     55                     56                     57
                      A                      A                      A
 Frequencies --   1187.1370              1209.4412              1237.5582
 Red. masses --      1.9636                 1.9996                 1.3654
 Frc consts  --      1.6304                 1.7233                 1.2321
 IR Inten    --      5.9323                 3.9069                 1.9260

                     58                     59                     60
                      A                      A                      A
 Frequencies --   1245.6079              1255.0820              1273.4538
 Red. masses --      1.5456                 1.6099                 1.2810
 Frc consts  --      1.4129                 1.4941                 1.2239
 IR Inten    --     11.2293                 1.8829                 1.7593

                     61                     62                     63
                      A                      A                      A
 Frequencies --   1289.1808              1298.5555              1307.5263
 Red. masses --      1.1865                 1.2624                 1.2836
 Frc consts  --      1.1618                 1.2542                 1.2929
 IR Inten    --      5.7035                 3.6438                 2.2765

                     64                     65                     66
                      A                      A                      A
 Frequencies --   1314.3657              1324.5786              1332.9649
 Red. masses --      1.2898                 1.2539                 1.0742
 Frc consts  --      1.3128                 1.2962                 1.1246
 IR Inten    --      3.0091                 3.5495                 0.1507

                     67                     68                     69
                      A                      A                      A
 Frequencies --   1367.7682              1369.9711              1375.5811
 Red. masses --      1.3711                 1.3370                 1.4147
 Frc consts  --      1.5112                 1.4785                 1.5772
 IR Inten    --      3.4990                 1.1484                 0.9008

                     70                     71                     72
                      A                      A                      A
 Frequencies --   1379.3201              1385.4544              1395.3010
 Red. masses --      1.4202                 1.4026                 1.3520
 Frc consts  --      1.5920                 1.5862                 1.5508
 IR Inten    --      5.2225                 4.0765                 2.3523

                     73                     74                     75
                      A                      A                      A
 Frequencies --   1398.6233              1401.6925              1405.9577
 Red. masses --      1.5576                 1.3523                 1.2771
 Frc consts  --      1.7952                 1.5654                 1.4874
 IR Inten    --      2.5187                10.6482                14.0121

                     76                     77                     78
                      A                      A                      A
 Frequencies --   1411.4860              1414.1914              1470.5937
 Red. masses --      1.2482                 1.2683                 1.0753
 Frc consts  --      1.4652                 1.4944                 1.3701
 IR Inten    --      1.7448                 3.8258                 0.8234

                     79                     80                     81
                      A                      A                      A
 Frequencies --   1475.5532              1479.3170              1483.1895
 Red. masses --      1.0795                 1.0798                 1.0781
 Frc consts  --      1.3848                 1.3922                 1.3974
 IR Inten    --      0.2463                 1.3101                 0.6608

                     82                     83                     84
                      A                      A                      A
 Frequencies --   1486.1411              1486.3498              1488.9717
 Red. masses --      1.0839                 1.0791                 1.0670
 Frc consts  --      1.4104                 1.4046                 1.3938
 IR Inten    --      3.3644                 1.6980                 3.8138

                     85                     86                     87
                      A                      A                      A
 Frequencies --   1496.8427              1498.9088              1499.5460
 Red. masses --      1.0894                 1.0567                 1.0565
 Frc consts  --      1.4381                 1.3988                 1.3997
 IR Inten    --      4.4910                 0.8781                 3.0638

                     88                     89                     90
                      A                      A                      A
 Frequencies --   1499.8482              1501.4583              1512.2292
 Red. masses --      1.0552                 1.0550                 1.0562
 Frc consts  --      1.3985                 1.4012                 1.4230
 IR Inten    --      2.0259                 3.6187                 1.0322

                     91                     92                     93
                      A                      A                      A
 Frequencies --   1513.1027              2992.5845              3002.9252
 Red. masses --      1.0768                 1.0594                 1.0631
 Frc consts  --      1.4525                 5.5897                 5.6484
 IR Inten    --      5.6969                 7.3361                 4.9105

                     94                     95                     96
                      A                      A                      A
 Frequencies --   3010.2844              3010.7194              3013.8810
 Red. masses --      1.0799                 1.0605                 1.0628
 Frc consts  --      5.7656                 5.6638                 5.6880
 IR Inten    --      5.2489                49.3431                48.3062

                     97                     98                     99
                      A                      A                      A
 Frequencies --   3020.9365              3024.8233              3026.9945
 Red. masses --      1.0620                 1.0554                 1.0516
 Frc consts  --      5.7105                 5.6895                 5.6771
 IR Inten    --     17.8462                15.2016                16.4126

                    100                    101                    102
                      A                      A                      A
 Frequencies --   3028.2870              3030.1009              3031.2818
 Red. masses --      1.0587                 1.0647                 1.0633
 Frc consts  --      5.7201                 5.7597                 5.7565
 IR Inten    --     19.8155                51.1159                25.7571

                    103                    104                    105
                      A                      A                      A
 Frequencies --   3036.7443              3037.9156              3047.1415
 Red. masses --      1.0966                 1.0622                 1.0391
 Frc consts  --      5.9581                 5.7757                 5.6847
 IR Inten    --      5.2605                33.8165                16.6018

                    106                    107                    108
                      A                      A                      A
 Frequencies --   3054.9349              3059.3603              3061.6329
 Red. masses --      1.1022                 1.0989                 1.1025
 Frc consts  --      6.0605                 6.0600                 6.0891
 IR Inten    --     14.2574                24.6491                13.3425

                    109                    110                    111
                      A                      A                      A
 Frequencies --   3065.4848              3071.8696              3082.2368
 Red. masses --      1.1015                 1.1021                 1.1019
 Frc consts  --      6.0988                 6.1274                 6.1680
 IR Inten    --     64.9888                36.7284                64.2545

                    112                    113                    114
                      A                      A                      A
 Frequencies --   3093.8006              3096.0407              3098.9561
 Red. masses --      1.1019                 1.0953                 1.1009
 Frc consts  --      6.2140                 6.1860                 6.2291
 IR Inten    --     64.3560                31.7008                42.0789

                    115                    116                    117
                      A                      A                      A
 Frequencies --   3116.1780              3137.6216              3139.1162
 Red. masses --      1.1010                 1.0983                 1.0999
 Frc consts  --      6.2991                 6.3707                 6.3859
 IR Inten    --     20.8809                15.0153                20.5618

 - Thermochemistry -
 -------------------
 Temperature   298.150 Kelvin.  Pressure   1.00000 Atm.
 Atom     1 has atomic number  6 and mass  12.00000

 Molecular mass:   214.19328 amu.
 Principal axes and moments of inertia in atomic units:
                           1         2         3
     Eigenvalues --  1682.110327527.571227756.75063
           X            0.99998   0.00090   0.00679
           Y           -0.00118   0.99914   0.04139
           Z           -0.00674  -0.04139   0.99912
 This molecule is an asymmetric top.
 Rotational symmetry number  1.
 Warning -- assumption of classical behavior for rotation
           may cause significant error
 Rotational temperatures (Kelvin)      0.05149     0.01151     0.01117
 Rotational constants (GHZ):           1.07290     0.23975     0.23267
 Zero-point vibrational energy     983487.6 (Joules/Mol)
                                  235.05917 (Kcal/Mol)
 Warning -- explicit consideration of  26 degrees of freedom as
           vibrations may cause significant error
 Vibrational temperatures:     34.03    65.96    89.71   114.71   134.68
          (Kelvin)            172.08   192.60   213.90   257.56   314.92
                              335.14   345.83   348.15   358.12   403.10
                              437.91   447.75   474.15   517.48   563.13
                              594.48   613.08   649.92   703.02   749.56
                              846.59   929.76  1033.99  1059.77  1132.34
                             1154.31  1178.35  1209.10  1244.74  1298.28
                             1303.89  1306.73  1319.90  1338.06  1343.04
                             1397.80  1405.71  1417.08  1462.31  1489.37
                             1495.40  1526.03  1538.69  1558.20  1577.36
                             1594.71  1626.77  1669.27  1699.08  1708.03
                             1740.12  1780.57  1792.15  1805.78  1832.22
                             1854.84  1868.33  1881.24  1891.08  1905.77
                             1917.84  1967.91  1971.08  1979.15  1984.53
                             1993.36  2007.53  2012.31  2016.72  2022.86
                             2030.81  2034.71  2115.86  2122.99  2128.41
                             2133.98  2138.23  2138.53  2142.30  2153.62
                             2156.60  2157.51  2157.95  2160.26  2175.76
                             2177.02  4305.66  4320.54  4331.13  4331.75
                             4336.30  4346.45  4352.05  4355.17  4357.03
                             4359.64  4361.34  4369.20  4370.88  4384.16
                             4395.37  4401.74  4405.01  4410.55  4419.74
                             4434.65  4451.29  4454.51  4458.71  4483.49
                             4514.34  4516.49

 Zero-point correction=                           0.374591 (Hartree/Particle)
 Thermal correction to Energy=                    0.392126
 Thermal correction to Enthalpy=                  0.393070
 Thermal correction to Gibbs Free Energy=         0.329058
 Sum of electronic and zero-point Energies=           -661.089881
 Sum of electronic and thermal Energies=              -661.072345
 Sum of electronic and thermal Enthalpies=            -661.071401
 Sum of electronic and thermal Free Energies=         -661.135413

                     E (Thermal)             CV                S
                      KCal/Mol        Cal/Mol-Kelvin    Cal/Mol-Kelvin
 Total                  246.063             66.898            134.726
 Electronic               0.000              0.000              0.000
 Translational            0.889              2.981             41.989
 Rotational               0.889              2.981             32.951
 Vibrational            244.285             60.936             59.786
 Vibration     1          0.593              1.985              6.301
 Vibration     2          0.595              1.979              4.989
 Vibration     3          0.597              1.972              4.381
 Vibration     4          0.600              1.963              3.898
 Vibration     5          0.603              1.954              3.583
 Vibration     6          0.609              1.933              3.107
 Vibration     7          0.613              1.920              2.890
 Vibration     8          0.618              1.904              2.689
 Vibration     9          0.629              1.868              2.339
 Vibration    10          0.647              1.812              1.968
 Vibration    11          0.654              1.791              1.856
 Vibration    12          0.657              1.779              1.800
 Vibration    13          0.658              1.776              1.788
 Vibration    14          0.662              1.765              1.738
 Vibration    15          0.680              1.710              1.533
 Vibration    16          0.695              1.665              1.393
 Vibration    17          0.700              1.652              1.356
 Vibration    18          0.712              1.616              1.262
 Vibration    19          0.734              1.555              1.124
 Vibration    20          0.759              1.489              0.995
 Vibration    21          0.777              1.442              0.915
 Vibration    22          0.788              1.413              0.871
 Vibration    23          0.810              1.357              0.791
 Vibration    24          0.845              1.275              0.687
 Vibration    25          0.876              1.204              0.608
 Vibration    26          0.946              1.056              0.470

 Optimization completed.
    -- Stationary point found.
 Normal termination of Gaussian 16 at Mon May 22 12:56:54 2023.
