 Gaussian 16, Revision A.03,
 Gaussian 16:  ES64L-G16RevA.03 25-Dec-2016

 -----------------------------
 # opt freq b3lyp/6-31g(2df,p)
 -----------------------------

 -------------------
 Title Card Required
 -------------------
 Symbolic Z-matrix:
 Charge =  0 Multiplicity = 1

 SCF Done:  E(RB3LYP) =  -576.765082843     A.U. after   13 cycles
 SCF Done:  E(RB3LYP) =  -576.781840454     A.U. after   12 cycles
 SCF Done:  E(RB3LYP) =  -576.787243670     A.U. after   11 cycles
 SCF Done:  E(RB3LYP) =  -576.791065785     A.U. after   11 cycles
 SCF Done:  E(RB3LYP) =  -576.793011829     A.U. after   12 cycles
 SCF Done:  E(RB3LYP) =  -576.795225487     A.U. after   11 cycles
 SCF Done:  E(RB3LYP) =  -576.796070239     A.U. after   11 cycles
 SCF Done:  E(RB3LYP) =  -576.796267624     A.U. after   11 cycles
 SCF Done:  E(RB3LYP) =  -576.796315672     A.U. after   10 cycles
 SCF Done:  E(RB3LYP) =  -576.796351512     A.U. after    9 cycles
 SCF Done:  E(RB3LYP) =  -576.796487587     A.U. after   10 cycles
 SCF Done:  E(RB3LYP) =  -576.796493536     A.U. after    8 cycles
 SCF Done:  E(RB3LYP) =  -576.796497566     A.U. after    9 cycles
 SCF Done:  E(RB3LYP) =  -576.795823925     A.U. after   10 cycles
 SCF Done:  E(RB3LYP) =  -576.796212073     A.U. after   10 cycles
 SCF Done:  E(RB3LYP) =  -576.796497847     A.U. after    6 cycles
 SCF Done:  E(RB3LYP) =  -576.796500645     A.U. after    8 cycles
 SCF Done:  E(RB3LYP) =  -576.796501225     A.U. after    7 cycles
 SCF Done:  E(RB3LYP) =  -576.796501443     A.U. after    7 cycles
 Optimization completed.
    -- Stationary point found.
 Normal termination of Gaussian 16 at Tue May 23 13:18:30 2023.

 ----------------------------------------------------------------------
 #N Geom=AllCheck Guess=TCheck SCRF=Check GenChk RB3LYP/6-31G(2df,p) Fr
 eq
 ----------------------------------------------------------------------

 Structure from the checkpoint file:  "CCCCqCrqCCrNNqOrCO.chk"
 -------------------
 Title Card Required
 -------------------
 Charge =  0 Multiplicity = 1

                         Standard orientation:
 ---------------------------------------------------------------------
 Center     Atomic      Atomic             Coordinates (Angstroms)
 Number     Number       Type             X           Y           Z
 ---------------------------------------------------------------------
      1          6           0        4.144929   -1.350211   -0.456219
      2          6           0        3.024618   -0.627506    0.299464
      3          6           0        1.711796   -0.622984   -0.497237
      4          6           0        0.491416    0.119285    0.106855
      5          6           0        0.377202   -0.104257    1.626524
      6          6           0        0.473736    1.628264   -0.243418
      7          6           0        1.609555    2.506942    0.289694
      8          7           0       -0.669607   -0.465012   -0.610487
      9          7           0       -1.919374    0.011487   -0.247592
     10          8           0       -2.559871    0.447944   -1.487501
     11          6           0       -2.783519   -1.039417    0.289633
     12          8           0       -4.021405   -0.503503    0.675871
     13          1           0        5.071274   -1.366771    0.126322
     14          1           0        4.360090   -0.859143   -1.411697
     15          1           0        3.870497   -2.388388   -0.675266
     16          1           0        3.344800    0.393291    0.528416
     17          1           0        2.869090   -1.120495    1.265982
     18          1           0        1.426628   -1.675411   -0.647262
     19          1           0        1.890404   -0.223614   -1.503035
     20          1           0        1.203988    0.351409    2.177659
     21          1           0        0.370844   -1.174180    1.865677
     22          1           0       -0.554340    0.335643    1.994792
     23          1           0       -0.481429    2.024012    0.116606
     24          1           0        0.434185    1.702144   -1.335537
     25          1           0        1.721503    2.435301    1.376374
     26          1           0        1.403378    3.556473    0.055432
     27          1           0        2.574082    2.262232   -0.164110
     28          1           0       -0.631981   -1.479638   -0.658578
     29          1           0       -3.302525    0.968555   -1.153444
     30          1           0       -2.243447   -1.498963    1.128722
     31          1           0       -3.002744   -1.794385   -0.478806
     32          1           0       -3.849630    0.110385    1.399579
 ---------------------------------------------------------------------

 SCF Done:  E(RB3LYP) =  -576.796501443     A.U. after    1 cycles

 The electronic state is 1-A.
 Alpha  occ. eigenvalues --  -19.15124 -19.14152 -14.39232 -14.33862 -10.25693
 Alpha  occ. eigenvalues --  -10.21820 -10.17963 -10.17846 -10.17323 -10.17086
 Alpha  occ. eigenvalues --  -10.17004 -10.16800  -1.06656  -1.02462  -0.93285
 Alpha  occ. eigenvalues --   -0.82105  -0.77037  -0.74659  -0.71369  -0.68087
 Alpha  occ. eigenvalues --   -0.64551  -0.63371  -0.58712  -0.54028  -0.53852
 Alpha  occ. eigenvalues --   -0.51236  -0.49221  -0.47018  -0.46268  -0.44342
 Alpha  occ. eigenvalues --   -0.44000  -0.42339  -0.41432  -0.39978  -0.39122
 Alpha  occ. eigenvalues --   -0.38219  -0.37601  -0.36589  -0.35835  -0.35174
 Alpha  occ. eigenvalues --   -0.34535  -0.33129  -0.32759  -0.31804  -0.31110
 Alpha  occ. eigenvalues --   -0.30283  -0.29048  -0.24090  -0.21659
 Alpha virt. eigenvalues --    0.06335   0.07337   0.08993   0.09782   0.11153
 Alpha virt. eigenvalues --    0.12141   0.12884   0.13381   0.14428   0.14892
 Alpha virt. eigenvalues --    0.15154   0.15802   0.16478   0.17062   0.17398

 Mulliken charges:
               1
     1  C   -0.379905
     2  C   -0.187169
     3  C   -0.205047
     4  C    0.272157
     5  C   -0.421388
     6  C   -0.160616
     7  C   -0.404382
     8  N   -0.245593
     9  N   -0.046965
    10  O   -0.412320
    11  C    0.008113
    12  O   -0.408246
    13  H    0.110623
    14  H    0.116052
    15  H    0.112897
    16  H    0.104620
    17  H    0.097904
    18  H    0.080599
    19  H    0.104742
    20  H    0.118200
    21  H    0.099391
    22  H    0.108961
    23  H    0.102727
    24  H    0.107907
    25  H    0.112297
    26  H    0.112310
    27  H    0.119303
    28  H    0.209943
    29  H    0.283688
    30  H    0.094917
    31  H    0.109893
    32  H    0.284385
 Sum of Mulliken charges =  -0.00000

 Dipole moment (field-independent basis, Debye):
    X=              0.9226    Y=             -0.2925    Z=              2.1466  Tot=              2.3547
 Quadrupole moment (field-independent basis, Debye-Ang):
   XX=            -79.1199   YY=            -72.7696   ZZ=            -78.0583
   XY=             -3.1196   XZ=             -4.5918   YZ=              0.7001

  Exact polarizability: 136.057  -3.148 108.269   0.665  -0.636  99.005
 Approx polarizability: 166.410  -5.345 155.875   2.371  -1.507 152.560

                      1                      2                      3
                      A                      A                      A
 Frequencies --     46.3957                53.1374                64.6663
 Red. masses --      3.1760                 2.3218                 3.5507
 Frc consts  --      0.0040                 0.0039                 0.0087
 IR Inten    --      0.6657                 0.0741                 2.1823

                      4                      5                      6
                      A                      A                      A
 Frequencies --     82.1287                96.1790               119.8240
 Red. masses --      2.7460                 1.9523                 2.3478
 Frc consts  --      0.0109                 0.0106                 0.0199
 IR Inten    --      0.5615                 4.4156                 0.0547

                      7                      8                      9
                      A                      A                      A
 Frequencies --    142.6990               195.6331               227.4990
 Red. masses --      2.1844                 1.6595                 2.8180
 Frc consts  --      0.0262                 0.0374                 0.0859
 IR Inten    --     24.9711                42.0319                 5.2299

                     10                     11                     12
                      A                      A                      A
 Frequencies --    244.0666               251.0129               260.7793
 Red. masses --      1.2232                 1.9254                 1.3734
 Frc consts  --      0.0429                 0.0715                 0.0550
 IR Inten    --      2.4105                 5.8110                 1.6411

                     13                     14                     15
                      A                      A                      A
 Frequencies --    284.9222               300.2825               313.0507
 Red. masses --      3.1363                 1.4754                 1.6772
 Frc consts  --      0.1500                 0.0784                 0.0968
 IR Inten    --      8.4384                 4.2248                 5.9922

                     16                     17                     18
                      A                      A                      A
 Frequencies --    326.9569               332.7999               387.1573
 Red. masses --      2.1892                 2.9491                 1.2638
 Frc consts  --      0.1379                 0.1924                 0.1116
 IR Inten    --      6.4656                 1.5222                93.4614

                     19                     20                     21
                      A                      A                      A
 Frequencies --    401.7645               427.3744               457.7319
 Red. masses --      2.6527                 2.3717                 1.5594
 Frc consts  --      0.2523                 0.2552                 0.1925
 IR Inten    --      2.3536                 2.6528                14.9287

                     22                     23                     24
                      A                      A                      A
 Frequencies --    500.1437               550.7872               612.5512
 Red. masses --      2.3743                 4.9952                 3.5645
 Frc consts  --      0.3499                 0.8928                 0.7880
 IR Inten    --     44.4922                13.2218                 7.8614

                     25                     26                     27
                      A                      A                      A
 Frequencies --    668.7791               721.3029               747.6641
 Red. masses --      2.6918                 2.0107                 1.3715
 Frc consts  --      0.7093                 0.6163                 0.4517
 IR Inten    --     28.1961                 1.2735                 3.8051

                     28                     29                     30
                      A                      A                      A
 Frequencies --    786.1399               834.6555               863.5065
 Red. masses --      1.1903                 5.4123                 1.3511
 Frc consts  --      0.4334                 2.2215                 0.5936
 IR Inten    --      1.6595                30.0342                 1.5574

                     31                     32                     33
                      A                      A                      A
 Frequencies --    896.1845               932.1102               952.2210
 Red. masses --      1.9745                 1.6321                 1.9243
 Frc consts  --      0.9343                 0.8355                 1.0280
 IR Inten    --      0.7253                 2.0024                 4.4283

                     34                     35                     36
                      A                      A                      A
 Frequencies --   1011.2539              1025.7107              1040.9351
 Red. masses --      1.6590                 2.1138                 1.9064
 Frc consts  --      0.9996                 1.3103                 1.2171
 IR Inten    --      2.8232                32.3175                 6.0913

                     37                     38                     39
                      A                      A                      A
 Frequencies --   1058.5071              1061.4315              1070.3062
 Red. masses --      1.9254                 2.5839                 2.5717
 Frc consts  --      1.2711                 1.7152                 1.7358
 IR Inten    --      1.5805                 1.0784               135.4531

                     40                     41                     42
                      A                      A                      A
 Frequencies --   1092.8271              1102.6743              1116.4574
 Red. masses --      1.7111                 2.0666                 3.9753
 Frc consts  --      1.2040                 1.4805                 2.9195
 IR Inten    --      5.8304                12.5453                65.0131

                     43                     44                     45
                      A                      A                      A
 Frequencies --   1147.4988              1175.7420              1217.3484
 Red. masses --      3.0077                 2.6389                 2.2360
 Frc consts  --      2.3334                 2.1493                 1.9523
 IR Inten    --     21.5066                29.1937                 7.5070

                     46                     47                     48
                      A                      A                      A
 Frequencies --   1239.2161              1262.2027              1290.7841
 Red. masses --      1.9610                 1.2593                 1.4187
 Frc consts  --      1.7742                 1.1820                 1.3926
 IR Inten    --      4.7023                 5.3335                 1.2576

                     49                     50                     51
                      A                      A                      A
 Frequencies --   1318.1978              1329.8253              1345.4704
 Red. masses --      1.3445                 1.3537                 1.1536
 Frc consts  --      1.3764                 1.4105                 1.2304
 IR Inten    --      0.3426                 4.8722                 0.3337

                     52                     53                     54
                      A                      A                      A
 Frequencies --   1369.4216              1380.4404              1392.4847
 Red. masses --      1.4506                 1.2144                 1.3136
 Frc consts  --      1.6028                 1.3635                 1.5007
 IR Inten    --      5.9073                54.4630                 7.8665

                     55                     56                     57
                      A                      A                      A
 Frequencies --   1394.8285              1406.1793              1413.2997
 Red. masses --      1.2761                 1.3768                 1.2498
 Frc consts  --      1.4628                 1.6040                 1.4708
 IR Inten    --      4.3291                 3.9621                 2.7806

                     58                     59                     60
                      A                      A                      A
 Frequencies --   1414.2229              1423.8058              1472.7455
 Red. masses --      1.2487                 1.2379                 1.0771
 Frc consts  --      1.4715                 1.4786                 1.3765
 IR Inten    --      3.4489                67.8499                 1.3462

                     61                     62                     63
                      A                      A                      A
 Frequencies --   1484.3312              1488.4481              1493.7773
 Red. masses --      1.0642                 1.0566                 1.0888
 Frc consts  --      1.3814                 1.3792                 1.4315
 IR Inten    --      0.1424                 7.7929                 3.9463

                     64                     65                     66
                      A                      A                      A
 Frequencies --   1497.7615              1499.6740              1504.5309
 Red. masses --      1.0469                 1.0406                 1.0640
 Frc consts  --      1.3837                 1.3788                 1.4191
 IR Inten    --      1.3528                 5.1547                 0.6893

                     67                     68                     69
                      A                      A                      A
 Frequencies --   1506.3802              1510.3452              1516.9673
 Red. masses --      1.0535                 1.0784                 1.0715
 Frc consts  --      1.4084                 1.4493                 1.4528
 IR Inten    --     10.1774                 5.1172                 1.5463

                     70                     71                     72
                      A                      A                      A
 Frequencies --   1526.7505              2988.4522              2994.6688
 Red. masses --      1.1886                 1.0679                 1.0529
 Frc consts  --      1.6325                 5.6192                 5.5633
 IR Inten    --      9.3105                29.7885                40.8454

                     73                     74                     75
                      A                      A                      A
 Frequencies --   3027.9415              3028.1231              3037.0635
 Red. masses --      1.0394                 1.0360                 1.0431
 Frc consts  --      5.6150                 5.5972                 5.6689
 IR Inten    --     19.4015                30.8626                12.1623

                     76                     77                     78
                      A                      A                      A
 Frequencies --   3039.2550              3044.9661              3048.8999
 Red. masses --      1.0647                 1.0608                 1.1093
 Frc consts  --      5.7946                 5.7948                 6.0754
 IR Inten    --     17.1890                 8.7175                38.6917

                     79                     80                     81
                      A                      A                      A
 Frequencies --   3052.3067              3077.4348              3079.8263
 Red. masses --      1.0815                 1.0991                 1.0999
 Frc consts  --      5.9367                 6.1327                 6.1471
 IR Inten    --     35.7144                 1.8003                 5.0173

                     82                     83                     84
                      A                      A                      A
 Frequencies --   3095.6904              3097.2404              3101.8108
 Red. masses --      1.0984                 1.1000                 1.1016
 Frc consts  --      6.2017                 6.2172                 6.2445
 IR Inten    --     40.7544                31.6314                31.9924

                     85                     86                     87
                      A                      A                      A
 Frequencies --   3102.8840              3113.5747              3116.4311
 Red. masses --      1.1004                 1.1003                 1.1005
 Frc consts  --      6.2419                 6.2848                 6.2975
 IR Inten    --     47.0289                67.0569                20.6195

                     88                     89                     90
                      A                      A                      A
 Frequencies --   3478.5319              3777.0739              3793.7420
 Red. masses --      1.0748                 1.0661                 1.0655
 Frc consts  --      7.6627                 8.9608                 9.0353
 IR Inten    --      2.6511                26.8131                16.9018

 - Thermochemistry -
 -------------------
 Temperature   298.150 Kelvin.  Pressure   1.00000 Atm.
 Atom     1 has atomic number  6 and mass  12.00000

 Molecular mass:   176.15248 amu.
 Principal axes and moments of inertia in atomic units:
                           1         2         3
     Eigenvalues --  1193.255104143.730514493.17660
           X            0.99998  -0.00459  -0.00524
           Y            0.00472   0.99968   0.02488
           Z            0.00512  -0.02491   0.99968
 This molecule is an asymmetric top.
 Rotational symmetry number  1.
 Warning -- assumption of classical behavior for rotation
           may cause significant error
 Rotational temperatures (Kelvin)      0.07259     0.02090     0.01928
 Rotational constants (GHZ):           1.51245     0.43554     0.40166
 Zero-point vibrational energy     752336.3 (Joules/Mol)
                                  179.81269 (Kcal/Mol)
 Warning -- explicit consideration of  24 degrees of freedom as
           vibrations may cause significant error
 Vibrational temperatures:     66.75    76.45    93.04   118.16   138.38
          (Kelvin)            172.40   205.31   281.47   327.32   351.16
                              361.15   375.20   409.94   432.04   450.41
                              470.42   478.82   557.03   578.05   614.90
                              658.57   719.60   792.46   881.32   962.22
                             1037.79  1075.72  1131.08  1200.88  1242.39
                             1289.41  1341.10  1370.03  1454.97  1475.77
                             1497.67  1522.96  1527.16  1539.93  1572.33
                             1586.50  1606.33  1650.99  1691.63  1751.49
                             1782.96  1816.03  1857.15  1896.59  1913.32
                             1935.83  1970.29  1986.15  2003.47  2006.85
                             2023.18  2033.42  2034.75  2048.54  2118.95
                             2135.62  2141.54  2149.21  2154.94  2157.70
                             2164.68  2167.35  2173.05  2182.58  2196.65
                             4299.72  4308.66  4356.53  4356.79  4369.66
                             4372.81  4381.03  4386.69  4391.59  4427.74
                             4431.18  4454.01  4456.24  4462.81  4464.36
                             4479.74  4483.85  5004.83  5434.37  5458.35

 Zero-point correction=                           0.286550 (Hartree/Particle)
 Thermal correction to Energy=                    0.302212
 Thermal correction to Enthalpy=                  0.303156
 Thermal correction to Gibbs Free Energy=         0.244053
 Sum of electronic and zero-point Energies=           -576.509952
 Sum of electronic and thermal Energies=              -576.494290
 Sum of electronic and thermal Enthalpies=            -576.493346
 Sum of electronic and thermal Free Energies=         -576.552449

                     E (Thermal)             CV                S
                      KCal/Mol        Cal/Mol-Kelvin    Cal/Mol-Kelvin
 Total                  189.641             57.624            124.393
 Electronic               0.000              0.000              0.000
 Translational            0.889              2.981             41.406
 Rotational               0.889              2.981             31.475
 Vibrational            187.863             51.663             51.513
 Vibration     1          0.595              1.979              4.965
 Vibration     2          0.596              1.976              4.697
 Vibration     3          0.597              1.971              4.309
 Vibration     4          0.600              1.961              3.839
 Vibration     5          0.603              1.952              3.530
 Vibration     6          0.609              1.933              3.103
 Vibration     7          0.616              1.911              2.767
 Vibration     8          0.636              1.846              2.174
 Vibration     9          0.651              1.799              1.899
 Vibration    10          0.659              1.773              1.773
 Vibration    11          0.663              1.761              1.723
 Vibration    12          0.669              1.744              1.657
 Vibration    13          0.683              1.702              1.504
 Vibration    14          0.693              1.673              1.415
 Vibration    15          0.701              1.649              1.346
 Vibration    16          0.711              1.622              1.275
 Vibration    17          0.715              1.610              1.246
 Vibration    18          0.756              1.498              1.011
 Vibration    19          0.767              1.466              0.956
 Vibration    20          0.789              1.411              0.867
 Vibration    21          0.816              1.344              0.773
 Vibration    22          0.856              1.250              0.658
 Vibration    23          0.906              1.138              0.543
 Vibration    24          0.972              1.005              0.429

 Optimization completed.
    -- Stationary point found.
 Normal termination of Gaussian 16 at Tue May 23 14:49:58 2023.
