 Gaussian 16, Revision A.03,
 Gaussian 16:  ES64L-G16RevA.03 25-Dec-2016

 -----------------------------
 # opt freq b3lyp/6-31g(2df,p)
 -----------------------------

 -------------------
 Title Card Required
 -------------------
 Symbolic Z-matrix:
 Charge =  0 Multiplicity = 1

 SCF Done:  E(RB3LYP) =  -276.420878967     A.U. after   11 cycles
 SCF Done:  E(RB3LYP) =  -276.423021040     A.U. after    9 cycles
 SCF Done:  E(RB3LYP) =  -276.423259909     A.U. after    8 cycles
 SCF Done:  E(RB3LYP) =  -276.423268791     A.U. after    6 cycles
 Optimization completed.
    -- Stationary point found.
 Normal termination of Gaussian 16 at Sat May 27 23:12:08 2023.

 ----------------------------------------------------------------------
 #N Geom=AllCheck Guess=TCheck SCRF=Check GenChk RB3LYP/6-31G(2df,p) Fr
 eq
 ----------------------------------------------------------------------

 Structure from the checkpoint file:  "CCCCCCC.chk"
 -------------------
 Title Card Required
 -------------------
 Charge =  0 Multiplicity = 1

                         Standard orientation:
 ---------------------------------------------------------------------
 Center     Atomic      Atomic             Coordinates (Angstroms)
 Number     Number       Type             X           Y           Z
 ---------------------------------------------------------------------
      1          6           0       -3.839951   -0.352729    0.000000
      2          6           0       -2.564427    0.494610    0.000000
      3          6           0       -1.281876   -0.344544   -0.000000
      4          6           0        0.000000    0.495355    0.000000
      5          6           0        1.281875   -0.344544   -0.000000
      6          6           0        2.564427    0.494610   -0.000000
      7          6           0        3.839951   -0.352729    0.000000
      8          1           0       -4.737711    0.273578   -0.000001
      9          1           0       -3.885329   -0.999426    0.883473
     10          1           0       -3.885327   -0.999428   -0.883472
     11          1           0       -2.563682    1.155759    0.876794
     12          1           0       -2.563682    1.155759   -0.876793
     13          1           0       -1.282622   -1.006869   -0.877177
     14          1           0       -1.282622   -1.006870    0.877177
     15          1           0       -0.000000    1.157408    0.877276
     16          1           0       -0.000000    1.157408   -0.877275
     17          1           0        1.282622   -1.006869   -0.877178
     18          1           0        1.282623   -1.006870    0.877176
     19          1           0        2.563682    1.155759    0.876793
     20          1           0        2.563683    1.155759   -0.876794
     21          1           0        3.885327   -0.999427    0.883473
     22          1           0        4.737711    0.273578    0.000000
     23          1           0        3.885328   -0.999427   -0.883472
 ---------------------------------------------------------------------

 SCF Done:  E(RB3LYP) =  -276.423268791     A.U. after    1 cycles

 The electronic state is 1-A.
 Alpha  occ. eigenvalues --  -10.17416 -10.17416 -10.17188 -10.17175 -10.17158
 Alpha  occ. eigenvalues --  -10.16853 -10.16853  -0.80231  -0.77297  -0.72638
 Alpha  occ. eigenvalues --   -0.66738  -0.60625  -0.57011  -0.56950  -0.47508
 Alpha  occ. eigenvalues --   -0.44900  -0.42659  -0.41899  -0.41080  -0.39487
 Alpha  occ. eigenvalues --   -0.36920  -0.36435  -0.35350  -0.33566  -0.33047
 Alpha  occ. eigenvalues --   -0.31825  -0.31792  -0.31509  -0.29913
 Alpha virt. eigenvalues --    0.09096   0.10005   0.11895   0.12032   0.12914
 Alpha virt. eigenvalues --    0.15270   0.15301   0.16920   0.17270   0.18747
 Alpha virt. eigenvalues --    0.18766   0.19397   0.19437   0.20083   0.20647

 Mulliken charges:
               1
     1  C   -0.378843
     2  C   -0.162426
     3  C   -0.158508
     4  C   -0.175791
     5  C   -0.158508
     6  C   -0.162426
     7  C   -0.378843
     8  H    0.109284
     9  H    0.112229
    10  H    0.112229
    11  H    0.092625
    12  H    0.092625
    13  H    0.089441
    14  H    0.089441
    15  H    0.089800
    16  H    0.089800
    17  H    0.089441
    18  H    0.089441
    19  H    0.092625
    20  H    0.092625
    21  H    0.112229
    22  H    0.109284
    23  H    0.112229
 Sum of Mulliken charges =  -0.00000

 Dipole moment (field-independent basis, Debye):
    X=              0.0000    Y=              0.0607    Z=             -0.0000  Tot=              0.0607
 Quadrupole moment (field-independent basis, Debye-Ang):
   XX=            -49.2690   YY=            -48.3695   ZZ=            -47.0756
   XY=             -0.0000   XZ=             -0.0000   YZ=             -0.0000

  Exact polarizability:  97.857  -0.000  71.324   0.000   0.000  68.740
 Approx polarizability: 105.289   0.000 104.069  -0.000  -0.000 105.432

                      1                      2                      3
                      A                      A                      A
 Frequencies --     63.0131                76.3847                97.6045
 Red. masses --      2.7924                 1.5224                 2.9855
 Frc consts  --      0.0065                 0.0052                 0.0168
 IR Inten    --      0.0055                 0.0000                 0.0074

                      4                      5                      6
                      A                      A                      A
 Frequencies --    141.3404               146.6555               241.9142
 Red. masses --      2.2416                 1.6919                 2.6721
 Frc consts  --      0.0264                 0.0214                 0.0921
 IR Inten    --      0.0000                 0.0017                 0.0019

                      7                      8                      9
                      A                      A                      A
 Frequencies --    246.5176               248.2645               300.5088
 Red. masses --      1.1024                 1.1382                 3.6246
 Frc consts  --      0.0395                 0.0413                 0.1929
 IR Inten    --      0.0000                 0.0025                 0.0022

                     10                     11                     12
                      A                      A                      A
 Frequencies --    413.6261               478.5808               730.9579
 Red. masses --      2.6131                 2.8808                 1.0598
 Frc consts  --      0.2634                 0.3888                 0.3336
 IR Inten    --      0.0572                 0.0964                 4.8434

                     13                     14                     15
                      A                      A                      A
 Frequencies --    737.1073               771.7358               844.6262
 Red. masses --      1.0827                 1.1308                 1.1744
 Frc consts  --      0.3466                 0.3968                 0.4936
 IR Inten    --      0.0000                 1.0980                 0.0000

                     16                     17                     18
                      A                      A                      A
 Frequencies --    881.6204               917.3690               936.7136
 Red. masses --      2.1095                 1.6641                 1.1729
 Frc consts  --      0.9661                 0.8251                 0.6064
 IR Inten    --      1.5604                 1.0242                 0.6321

                     19                     20                     21
                      A                      A                      A
 Frequencies --    996.0687              1024.2240              1039.4431
 Red. masses --      4.0521                 1.1020                 3.1987
 Frc consts  --      2.3687                 0.6811                 2.0362
 IR Inten    --      0.0125                 0.0000                 0.1323

                     22                     23                     24
                      A                      A                      A
 Frequencies --   1067.5775              1068.1138              1088.5268
 Red. masses --      2.1512                 2.4892                 1.7477
 Frc consts  --      1.4445                 1.6732                 1.2201
 IR Inten    --      0.1731                 0.3952                 1.7522

                     25                     26                     27
                      A                      A                      A
 Frequencies --   1156.2031              1209.8576              1243.9295
 Red. masses --      2.6383                 1.8927                 1.4744
 Frc consts  --      2.0779                 1.6323                 1.3442
 IR Inten    --      0.7236                 0.0545                 0.0000

                     28                     29                     30
                      A                      A                      A
 Frequencies --   1259.7799              1293.5242              1320.6744
 Red. masses --      1.3107                 1.2744                 1.3338
 Frc consts  --      1.2256                 1.2563                 1.3707
 IR Inten    --      8.1546                 0.0955                 0.0400

                     31                     32                     33
                      A                      A                      A
 Frequencies --   1324.6074              1330.8781              1336.9145
 Red. masses --      1.0639                 1.1202                 1.0827
 Frc consts  --      1.0998                 1.1690                 1.1402
 IR Inten    --      0.0000                 0.0000                 0.6106

                     34                     35                     36
                      A                      A                      A
 Frequencies --   1370.7492              1398.7175              1399.8406
 Red. masses --      1.4143                 1.5585                 1.6109
 Frc consts  --      1.5657                 1.7964                 1.8598
 IR Inten    --      3.4881                 0.5251                 0.6382

                     37                     38                     39
                      A                      A                      A
 Frequencies --   1412.0240              1413.7646              1481.8953
 Red. masses --      1.2317                 1.2730                 1.0706
 Frc consts  --      1.4469                 1.4991                 1.3853
 IR Inten    --      1.2458                 0.0382                 0.3935

                     40                     41                     42
                      A                      A                      A
 Frequencies --   1482.5790              1486.8303              1494.0018
 Red. masses --      1.0727                 1.0632                 1.0651
 Frc consts  --      1.3892                 1.3848                 1.4007
 IR Inten    --      0.0012                 0.0365                 0.6366

                     43                     44                     45
                      A                      A                      A
 Frequencies --   1499.7550              1499.8249              1502.8917
 Red. masses --      1.0402                 1.0405                 1.0724
 Frc consts  --      1.3785                 1.3790                 1.4271
 IR Inten    --      0.0000                 9.7414                 0.4573

                     46                     47                     48
                      A                      A                      A
 Frequencies --   1510.4664              1515.7927              2998.6461
 Red. masses --      1.0830                 1.0940                 1.0576
 Frc consts  --      1.4557                 1.4809                 5.6031
 IR Inten    --      0.5090                 3.8502                 0.0098

                     49                     50                     51
                      A                      A                      A
 Frequencies --   2998.8837              3005.5011              3013.7940
 Red. masses --      1.0573                 1.0587                 1.0595
 Frc consts  --      5.6024                 5.6345                 5.6699
 IR Inten    --      0.2884                 7.1181                 0.0068

                     52                     53                     54
                      A                      A                      A
 Frequencies --   3017.6823              3018.8902              3025.0016
 Red. masses --      1.0595                 1.0979                 1.1001
 Frc consts  --      5.6846                 5.8956                 5.9311
 IR Inten    --    126.7606                 0.0707                 0.0000

                     55                     56                     57
                      A                      A                      A
 Frequencies --   3027.5030              3027.9238              3037.5491
 Red. masses --      1.0354                 1.0358                 1.1028
 Frc consts  --      5.5917                 5.5952                 5.9949
 IR Inten    --     45.0070                36.1996                 0.1898

                     58                     59                     60
                      A                      A                      A
 Frequencies --   3050.9505              3062.2348              3093.9278
 Red. masses --      1.1045                 1.1050                 1.1021
 Frc consts  --      6.0575                 6.1053                 6.2156
 IR Inten    --      0.0000               103.5989                 0.0000

                     61                     62                     63
                      A                      A                      A
 Frequencies --   3094.2720              3098.9402              3099.0834
 Red. masses --      1.1020                 1.1010                 1.1009
 Frc consts  --      6.2168                 6.2298                 6.2298
 IR Inten    --    121.6365                31.8777                47.5623

 - Thermochemistry -
 -------------------
 Temperature   298.150 Kelvin.  Pressure   1.00000 Atm.
 Atom     1 has atomic number  6 and mass  12.00000

 Molecular mass:   100.12520 amu.
 Principal axes and moments of inertia in atomic units:
                           1         2         3
     Eigenvalues --   149.614522504.309652576.08376
           X            1.00000  -0.00000  -0.00000
           Y            0.00000   1.00000  -0.00000
           Z            0.00000   0.00000   1.00000
 This molecule is an asymmetric top.
 Rotational symmetry number  1.
 Rotational temperatures (Kelvin)      0.57891     0.03459     0.03362
 Rotational constants (GHZ):          12.06261     0.72065     0.70058
 Zero-point vibrational energy     569271.6 (Joules/Mol)
                                  136.05918 (Kcal/Mol)
 Warning -- explicit consideration of  11 degrees of freedom as
           vibrations may cause significant error
 Vibrational temperatures:     90.66   109.90   140.43   203.36   211.00
          (Kelvin)            348.06   354.68   357.20   432.37   595.12
                              688.57  1051.69  1060.53  1110.36  1215.23
                             1268.46  1319.89  1347.72  1433.12  1473.63
                             1495.53  1536.01  1536.78  1566.15  1663.52
                             1740.72  1789.74  1812.54  1861.09  1900.16
                             1905.81  1914.84  1923.52  1972.20  2012.44
                             2014.06  2031.59  2034.09  2132.12  2133.10
                             2139.22  2149.54  2157.81  2157.91  2162.33
                             2173.22  2180.89  4314.38  4314.72  4324.25
                             4336.18  4341.77  4343.51  4352.30  4355.90
                             4356.51  4370.36  4389.64  4405.87  4451.47
                             4451.97  4458.68  4458.89

 Zero-point correction=                           0.216824 (Hartree/Particle)
 Thermal correction to Energy=                    0.226617
 Thermal correction to Enthalpy=                  0.227561
 Thermal correction to Gibbs Free Energy=         0.181928
 Sum of electronic and zero-point Energies=           -276.206445
 Sum of electronic and thermal Energies=              -276.196652
 Sum of electronic and thermal Enthalpies=            -276.195707
 Sum of electronic and thermal Free Energies=         -276.241340

                     E (Thermal)             CV                S
                      KCal/Mol        Cal/Mol-Kelvin    Cal/Mol-Kelvin
 Total                  142.204             34.316             96.043
 Electronic               0.000              0.000              0.000
 Translational            0.889              2.981             39.722
 Rotational               0.889              2.981             28.358
 Vibrational            140.427             28.354             27.963
 Vibration     1          0.597              1.972              4.361
 Vibration     2          0.599              1.965              3.982
 Vibration     3          0.603              1.951              3.502
 Vibration     4          0.615              1.912              2.786
 Vibration     5          0.617              1.906              2.715
 Vibration     6          0.658              1.776              1.789
 Vibration     7          0.661              1.769              1.755
 Vibration     8          0.662              1.766              1.743
 Vibration     9          0.693              1.673              1.414
 Vibration    10          0.777              1.441              0.914
 Vibration    11          0.835              1.298              0.714

 Optimization completed.
    -- Stationary point found.
 Normal termination of Gaussian 16 at Sat May 27 23:39:41 2023.
