 Gaussian 16, Revision A.03,
 Gaussian 16:  ES64L-G16RevA.03 25-Dec-2016

 -----------------------------
 # opt freq b3lyp/6-31g(2df,p)
 -----------------------------

 -------------------
 Title Card Required
 -------------------
 Symbolic Z-matrix:
 Charge =  0 Multiplicity = 1

 SCF Done:  E(RB3LYP) =  -795.472691529     A.U. after   12 cycles
 SCF Done:  E(RB3LYP) =  -795.484948562     A.U. after   10 cycles
 SCF Done:  E(RB3LYP) =  -795.488819277     A.U. after   10 cycles
 SCF Done:  E(RB3LYP) =  -795.492246144     A.U. after   11 cycles
 SCF Done:  E(RB3LYP) =  -795.493855903     A.U. after   10 cycles
 SCF Done:  E(RB3LYP) =  -795.495173655     A.U. after   11 cycles
 SCF Done:  E(RB3LYP) =  -795.495942440     A.U. after   10 cycles
 SCF Done:  E(RB3LYP) =  -795.496231404     A.U. after    9 cycles
 SCF Done:  E(RB3LYP) =  -795.496388671     A.U. after    9 cycles
 SCF Done:  E(RB3LYP) =  -795.496476790     A.U. after    9 cycles
 SCF Done:  E(RB3LYP) =  -795.501711509     A.U. after    8 cycles
 SCF Done:  E(RB3LYP) =  -795.501817002     A.U. after    8 cycles
 SCF Done:  E(RB3LYP) =  -795.501912541     A.U. after    9 cycles
 SCF Done:  E(RB3LYP) =  -795.501928623     A.U. after    8 cycles
 SCF Done:  E(RB3LYP) =  -795.501930213     A.U. after    8 cycles
 SCF Done:  E(RB3LYP) =  -795.501933480     A.U. after    8 cycles
 SCF Done:  E(RB3LYP) =  -795.501933650     A.U. after    7 cycles
 SCF Done:  E(RB3LYP) =  -795.501933796     A.U. after    6 cycles
 SCF Done:  E(RB3LYP) =  -795.501933830     A.U. after    6 cycles
 Optimization completed.
    -- Stationary point found.
 Normal termination of Gaussian 16 at Tue May 23 12:35:52 2023.

 ----------------------------------------------------------------------
 #N Geom=AllCheck Guess=TCheck SCRF=Check GenChk RB3LYP/6-31G(2df,p) Fr
 eq
 ----------------------------------------------------------------------

 Structure from the checkpoint file:  "CCCC1CCCCqCrCCCNqCOCrCO1.chk"
 -------------------
 Title Card Required
 -------------------
 Charge =  0 Multiplicity = 1

                         Standard orientation:
 ---------------------------------------------------------------------
 Center     Atomic      Atomic             Coordinates (Angstroms)
 Number     Number       Type             X           Y           Z
 ---------------------------------------------------------------------
      1          6           0       -4.854024    1.735681   -0.041716
      2          6           0       -3.469145    1.315910   -0.545340
      3          6           0       -2.334424    1.986319    0.236331
      4          6           0       -0.901420    1.734189   -0.262319
      5          6           0        0.088218    2.599649    0.538955
      6          6           0        1.572914    2.324994    0.243037
      7          6           0        2.179380    1.224208    1.140262
      8          6           0        3.343813    0.426491    0.514653
      9          6           0        4.490753    1.336736    0.052395
     10          6           0        2.847427   -0.480665   -0.628145
     11          6           0        2.046321   -1.711846   -0.164994
     12          6           0        1.057800   -2.244806   -1.230435
     13          7           0       -0.329378   -1.790835   -1.135248
     14          6           0       -1.210852   -2.564592   -0.335981
     15          8           0       -0.914278   -2.461224    1.055232
     16          6           0       -1.745695   -3.277173    1.841761
     17          6           0       -0.655127   -0.422112   -1.343208
     18          8           0       -0.530708    0.358510   -0.145574
     19          1           0       -5.651753    1.238508   -0.602595
     20          1           0       -5.000528    2.817122   -0.140624
     21          1           0       -4.982489    1.481863    1.016416
     22          1           0       -3.380280    1.560998   -1.612430
     23          1           0       -3.375044    0.227205   -0.465993
     24          1           0       -2.383049    1.668684    1.286053
     25          1           0       -2.499605    3.072796    0.234512
     26          1           0       -0.830284    2.031452   -1.323095
     27          1           0       -0.104698    2.462267    1.610992
     28          1           0       -0.153551    3.646250    0.317902
     29          1           0        2.142720    3.252428    0.368536
     30          1           0        1.674140    2.060703   -0.816267
     31          1           0        1.385960    0.525905    1.416470
     32          1           0        2.524168    1.684497    2.075593
     33          1           0        3.742682   -0.227536    1.303802
     34          1           0        4.184847    1.978916   -0.780994
     35          1           0        5.348736    0.746692   -0.287281
     36          1           0        4.832970    1.988723    0.863873
     37          1           0        3.705078   -0.820083   -1.223854
     38          1           0        2.239452    0.119719   -1.315405
     39          1           0        1.474051   -1.497857    0.739513
     40          1           0        2.751452   -2.510741    0.096589
     41          1           0        1.018684   -3.338053   -1.182181
     42          1           0        1.432348   -1.994348   -2.232690
     43          1           0       -1.139359   -3.627026   -0.628140
     44          1           0       -2.245448   -2.229258   -0.516851
     45          1           0       -1.440180   -3.153109    2.883318
     46          1           0       -1.655882   -4.342755    1.571444
     47          1           0       -2.807640   -2.994771    1.750169
     48          1           0       -1.688118   -0.354196   -1.709732
     49          1           0        0.010525   -0.015341   -2.119113
 ---------------------------------------------------------------------

 SCF Done:  E(RB3LYP) =  -795.501933830     A.U. after    1 cycles

 The electronic state is 1-A.
 Alpha  occ. eigenvalues --  -19.12944 -19.12389 -14.32137 -10.24768 -10.24701
 Alpha  occ. eigenvalues --  -10.22312 -10.21890 -10.20200 -10.17745 -10.17140
 Alpha  occ. eigenvalues --  -10.17135 -10.17119 -10.16955 -10.16631 -10.16326
 Alpha  occ. eigenvalues --  -10.16084 -10.16073 -10.15759  -1.02986  -1.01526
 Alpha  occ. eigenvalues --   -0.91381  -0.80693  -0.79117  -0.76509  -0.74980
 Alpha  occ. eigenvalues --   -0.71893  -0.70151  -0.67971  -0.66253  -0.65203
 Alpha  occ. eigenvalues --   -0.62178  -0.59687  -0.57741  -0.57246  -0.56461
 Alpha  occ. eigenvalues --   -0.53205  -0.50513  -0.49716  -0.48883  -0.47378
 Alpha  occ. eigenvalues --   -0.45954  -0.45294  -0.44611  -0.43952  -0.43463
 Alpha  occ. eigenvalues --   -0.42514  -0.42185  -0.41065  -0.40214  -0.39230
 Alpha  occ. eigenvalues --   -0.38731  -0.38123  -0.37629  -0.37433  -0.37155
 Alpha  occ. eigenvalues --   -0.36663  -0.35643  -0.35228  -0.33792  -0.33688
 Alpha  occ. eigenvalues --   -0.32749  -0.32621  -0.32174  -0.31241  -0.30927
 Alpha  occ. eigenvalues --   -0.30512  -0.29396  -0.29258  -0.28578  -0.24945
 Alpha  occ. eigenvalues --   -0.24005  -0.22037
 Alpha virt. eigenvalues --    0.07449   0.08616   0.09320   0.09899   0.10696
 Alpha virt. eigenvalues --    0.11364   0.11736   0.12244   0.13181   0.13667
 Alpha virt. eigenvalues --    0.14242   0.14769   0.14954   0.15279   0.15665

 Mulliken charges:
               1
     1  C   -0.384306
     2  C   -0.185614
     3  C   -0.149465
     4  C    0.113089
     5  C   -0.211481
     6  C   -0.189470
     7  C   -0.188590
     8  C    0.019955
     9  C   -0.397915
    10  C   -0.174941
    11  C   -0.193840
    12  C   -0.188862
    13  N   -0.050557
    14  C   -0.037725
    15  O   -0.224783
    16  C   -0.223914
    17  C   -0.055525
    18  O   -0.267748
    19  H    0.109260
    20  H    0.112955
    21  H    0.115401
    22  H    0.089602
    23  H    0.108090
    24  H    0.102039
    25  H    0.087485
    26  H    0.058223
    27  H    0.097780
    28  H    0.088235
    29  H    0.087224
    30  H    0.090318
    31  H    0.124578
    32  H    0.077062
    33  H    0.063520
    34  H    0.111773
    35  H    0.104093
    36  H    0.104589
    37  H    0.079569
    38  H    0.089405
    39  H    0.139009
    40  H    0.082519
    41  H    0.097160
    42  H    0.095032
    43  H    0.082333
    44  H    0.087715
    45  H    0.127278
    46  H    0.097996
    47  H    0.099086
    48  H    0.091916
    49  H    0.090447
 Sum of Mulliken charges =   0.00000

 Dipole moment (field-independent basis, Debye):
    X=             -1.1026    Y=             -0.3532    Z=             -0.7190  Tot=              1.3629
 Quadrupole moment (field-independent basis, Debye-Ang):
   XX=           -114.0812   YY=           -109.4068   ZZ=           -113.7072
   XY=              0.7488   XZ=             -0.6616   YZ=             -1.2300

  Exact polarizability: 202.514   0.064 183.991  -2.223   2.253 152.219
 Approx polarizability: 245.816  -1.406 250.608  -2.352  -0.814 242.443

                      1                      2                      3
                      A                      A                      A
 Frequencies --     21.4774                42.8735                45.2071
 Red. masses --      3.5007                 3.7532                 3.1733
 Frc consts  --      0.0010                 0.0041                 0.0038
 IR Inten    --      0.0263                 0.2415                 0.1628

                      4                      5                      6
                      A                      A                      A
 Frequencies --     73.5959                80.5024                95.8067
 Red. masses --      2.4084                 2.1677                 2.3554
 Frc consts  --      0.0077                 0.0083                 0.0127
 IR Inten    --      0.0227                 0.6262                 0.9296

                      7                      8                      9
                      A                      A                      A
 Frequencies --    104.3997               107.5521               122.2626
 Red. masses --      2.8335                 2.5168                 2.8326
 Frc consts  --      0.0182                 0.0172                 0.0249
 IR Inten    --      1.3128                 4.2755                 0.4518

                     10                     11                     12
                      A                      A                      A
 Frequencies --    129.5937               162.5177               181.6148
 Red. masses --      2.7370                 2.5091                 2.5763
 Frc consts  --      0.0271                 0.0390                 0.0501
 IR Inten    --      0.2386                 1.6200                 0.1267

                     13                     14                     15
                      A                      A                      A
 Frequencies --    199.0693               226.1993               236.7300
 Red. masses --      3.0280                 1.4090                 1.5248
 Frc consts  --      0.0707                 0.0425                 0.0503
 IR Inten    --      1.7611                 2.9357                 0.3047

                     16                     17                     18
                      A                      A                      A
 Frequencies --    247.5893               249.4964               260.4112
 Red. masses --      1.6958                 1.2687                 1.8816
 Frc consts  --      0.0612                 0.0465                 0.0752
 IR Inten    --      0.6770                 0.4106                 0.4647

                     19                     20                     21
                      A                      A                      A
 Frequencies --    269.8777               281.2744               289.0946
 Red. masses --      2.3067                 3.0693                 2.8018
 Frc consts  --      0.0990                 0.1431                 0.1380
 IR Inten    --      0.9302                 2.5142                 1.7426

                     22                     23                     24
                      A                      A                      A
 Frequencies --    320.3913               333.5179               364.7854
 Red. masses --      2.8352                 2.5562                 2.1166
 Frc consts  --      0.1715                 0.1675                 0.1659
 IR Inten    --      0.1416                 1.3345                 0.7598

                     25                     26                     27
                      A                      A                      A
 Frequencies --    380.3938               426.6269               437.2907
 Red. masses --      2.4198                 2.8277                 2.4176
 Frc consts  --      0.2063                 0.3032                 0.2724
 IR Inten    --      0.7916                 0.5374                 0.1382

                     28                     29                     30
                      A                      A                      A
 Frequencies --    469.0340               489.2501               521.2737
 Red. masses --      2.4448                 2.3303                 2.3300
 Frc consts  --      0.3169                 0.3286                 0.3730
 IR Inten    --      0.5099                 2.2410                 4.8056

                     31                     32                     33
                      A                      A                      A
 Frequencies --    529.8330               567.3652               581.0556
 Red. masses --      2.6665                 3.9757                 2.6286
 Frc consts  --      0.4410                 0.7540                 0.5229
 IR Inten    --      3.1066                 7.0524                 2.1418

                     34                     35                     36
                      A                      A                      A
 Frequencies --    734.0056               746.7300               755.4766
 Red. masses --      1.4926                 1.3314                 1.3196
 Frc consts  --      0.4738                 0.4374                 0.4438
 IR Inten    --      2.8950                 2.5120                 4.3175

                     37                     38                     39
                      A                      A                      A
 Frequencies --    814.2532               842.2224               851.9586
 Red. masses --      2.0635                 1.9562                 1.5174
 Frc consts  --      0.8061                 0.8176                 0.6489
 IR Inten    --      0.9609                 2.0021                 2.0144

                     40                     41                     42
                      A                      A                      A
 Frequencies --    873.6565               895.2867               900.0297
 Red. masses --      2.0946                 2.2735                 1.9491
 Frc consts  --      0.9420                 1.0737                 0.9302
 IR Inten    --      4.6830                 4.5158                 2.4710

                     43                     44                     45
                      A                      A                      A
 Frequencies --    938.8730               948.6364               958.3055
 Red. masses --      2.0301                 2.9529                 3.0217
 Frc consts  --      1.0544                 1.5657                 1.6350
 IR Inten    --      3.0388                12.9845                54.9715

                     46                     47                     48
                      A                      A                      A
 Frequencies --    969.1592               991.9693               995.2962
 Red. masses --      1.9532                 1.8103                 1.9612
 Frc consts  --      1.0809                 1.0495                 1.1446
 IR Inten    --      8.7990                 2.9374                18.1678

                     49                     50                     51
                      A                      A                      A
 Frequencies --   1005.7399              1024.0513              1037.4199
 Red. masses --      3.3852                 2.3865                 2.1708
 Frc consts  --      2.0175                 1.4745                 1.3765
 IR Inten    --    134.9377                 7.2577                12.6743

                     52                     53                     54
                      A                      A                      A
 Frequencies --   1042.1058              1058.3430              1062.7729
 Red. masses --      3.1382                 2.0810                 1.8582
 Frc consts  --      2.0079                 1.3733                 1.2366
 IR Inten    --     88.8798                 0.5560                29.5745

                     55                     56                     57
                      A                      A                      A
 Frequencies --   1070.0429              1072.1006              1090.2619
 Red. masses --      2.0677                 2.2931                 2.2069
 Frc consts  --      1.3949                 1.5529                 1.5456
 IR Inten    --      1.6934                54.4820                30.2179

                     58                     59                     60
                      A                      A                      A
 Frequencies --   1101.0462              1120.4613              1125.9945
 Red. masses --      1.8718                 7.3531                 2.3750
 Frc consts  --      1.3370                 5.4389                 1.7741
 IR Inten    --      1.5744               205.3097                11.6965

                     61                     62                     63
                      A                      A                      A
 Frequencies --   1143.9024              1149.8055              1164.8677
 Red. masses --      2.1749                 1.8320                 1.8902
 Frc consts  --      1.6767                 1.4270                 1.5112
 IR Inten    --     17.5258                 9.6807                 5.2372

                     64                     65                     66
                      A                      A                      A
 Frequencies --   1182.1437              1196.5015              1209.6784
 Red. masses --      1.3128                 1.4908                 1.5663
 Frc consts  --      1.0810                 1.2575                 1.3504
 IR Inten    --      0.1295                 3.9426                36.0391

                     67                     68                     69
                      A                      A                      A
 Frequencies --   1225.8841              1233.4676              1239.2017
 Red. masses --      1.4534                 1.5948                 1.4917
 Frc consts  --      1.2869                 1.4296                 1.3496
 IR Inten    --     13.2527                23.6001                20.2571

                     70                     71                     72
                      A                      A                      A
 Frequencies --   1252.4038              1277.9202              1281.9036
 Red. masses --      1.2735                 1.2367                 1.2192
 Frc consts  --      1.1769                 1.1900                 1.1804
 IR Inten    --      8.7225                 6.0878                 7.2088

                     73                     74                     75
                      A                      A                      A
 Frequencies --   1289.6707              1302.1457              1314.3215
 Red. masses --      1.2283                 1.1847                 1.2136
 Frc consts  --      1.2037                 1.1835                 1.2352
 IR Inten    --      3.8089                 2.5307                 4.7243

                     76                     77                     78
                      A                      A                      A
 Frequencies --   1323.6663              1332.1271              1339.5033
 Red. masses --      1.1754                 1.1142                 1.3344
 Frc consts  --      1.2134                 1.1650                 1.4107
 IR Inten    --      0.8413                 1.4649                 0.4461

                     79                     80                     81
                      A                      A                      A
 Frequencies --   1342.5661              1364.1638              1367.2068
 Red. masses --      1.2338                 1.3734                 1.3426
 Frc consts  --      1.3103                 1.5058                 1.4787
 IR Inten    --      3.6388                 5.7721                 1.5087

                     82                     83                     84
                      A                      A                      A
 Frequencies --   1378.8047              1388.0796              1391.8882
 Red. masses --      1.3829                 1.4532                 1.3924
 Frc consts  --      1.5490                 1.6497                 1.5894
 IR Inten    --     61.1517                12.5273                25.0805

                     85                     86                     87
                      A                      A                      A
 Frequencies --   1394.6729              1397.4328              1399.3769
 Red. masses --      1.4511                 1.5518                 1.3228
 Frc consts  --      1.6630                 1.7854                 1.5262
 IR Inten    --     10.1640                11.3095                 2.8331

                     88                     89                     90
                      A                      A                      A
 Frequencies --   1406.9298              1412.2062              1413.0724
 Red. masses --      1.3349                 1.2503                 1.3029
 Frc consts  --      1.5569                 1.4692                 1.5328
 IR Inten    --      0.8375                 1.4252                 1.0592

                     91                     92                     93
                      A                      A                      A
 Frequencies --   1417.3381              1431.0733              1456.6754
 Red. masses --      1.6860                 1.1657                 1.2105
 Frc consts  --      1.9955                 1.4065                 1.5134
 IR Inten    --     62.2010                34.6343                 2.1372

                     94                     95                     96
                      A                      A                      A
 Frequencies --   1468.2091              1476.6014              1479.4041
 Red. masses --      1.0858                 1.0731                 1.1353
 Frc consts  --      1.3790                 1.3785                 1.4640
 IR Inten    --      0.0117                 6.1946                 1.8656

                     97                     98                     99
                      A                      A                      A
 Frequencies --   1484.2028              1485.5311              1486.1759
 Red. masses --      1.0913                 1.0851                 1.0699
 Frc consts  --      1.4164                 1.4109                 1.3923
 IR Inten    --      0.5759                 1.7679                 5.0909

                    100                    101                    102
                      A                      A                      A
 Frequencies --   1487.3724              1492.3452              1495.0462
 Red. masses --      1.0866                 1.0618                 1.0641
 Frc consts  --      1.4163                 1.3933                 1.4014
 IR Inten    --      0.9377                 0.9711                 0.4817

                    103                    104                    105
                      A                      A                      A
 Frequencies --   1498.4585              1499.8957              1501.5724
 Red. masses --      1.0761                 1.0503                 1.0655
 Frc consts  --      1.4236                 1.3921                 1.4154
 IR Inten    --      5.2563                 2.2681                 3.4041

                    106                    107                    108
                      A                      A                      A
 Frequencies --   1503.6680              1507.2788              1509.5781
 Red. masses --      1.0582                 1.0925                 1.0859
 Frc consts  --      1.4097                 1.4624                 1.4580
 IR Inten    --      1.2543                 8.0768                 1.7365

                    109                    110                    111
                      A                      A                      A
 Frequencies --   1515.1502              1518.6609              2938.2384
 Red. masses --      1.0896                 1.1297                 1.0553
 Frc consts  --      1.4738                 1.5351                 5.3680
 IR Inten    --      1.2513                 6.0867                38.0277

                    112                    113                    114
                      A                      A                      A
 Frequencies --   2947.9906              2959.2810              2981.6157
 Red. masses --      1.0812                 1.0412                 1.0997
 Frc consts  --      5.5362                 5.3724                 5.7598
 IR Inten    --     18.7309               111.8700                59.5929

                    115                    116                    117
                      A                      A                      A
 Frequencies --   2986.4587              2990.6485              2996.8188
 Red. masses --      1.0598                 1.0813                 1.1024
 Frc consts  --      5.5693                 5.6982                 5.8335
 IR Inten    --     42.2112                17.6902                51.6518

                    118                    119                    120
                      A                      A                      A
 Frequencies --   3004.8177              3006.4310              3013.8797
 Red. masses --      1.0660                 1.0593                 1.0675
 Frc consts  --      5.6709                 5.6412                 5.7129
 IR Inten    --     38.6002                 5.3052                 7.0791

                    121                    122                    123
                      A                      A                      A
 Frequencies --   3014.3270              3019.2327              3020.0443
 Red. masses --      1.0676                 1.0707                 1.0618
 Frc consts  --      5.7154                 5.7504                 5.7060
 IR Inten    --     60.1879                22.1672                53.8502

                    124                    125                    126
                      A                      A                      A
 Frequencies --   3023.9958              3025.0623              3027.7884
 Red. masses --      1.0449                 1.0676                 1.0422
 Frc consts  --      5.6297                 5.7559                 5.6291
 IR Inten    --     13.3571                 7.2603                73.0379

                    127                    128                    129
                      A                      A                      A
 Frequencies --   3029.9149              3030.3503              3045.2654
 Red. masses --      1.0855                 1.0688                 1.0935
 Frc consts  --      5.8716                 5.7825                 5.9750
 IR Inten    --     11.7902                81.8383                 6.5251

                    130                    131                    132
                      A                      A                      A
 Frequencies --   3052.8801              3059.9008              3063.1166
 Red. masses --      1.0952                 1.0983                 1.0968
 Frc consts  --      6.0139                 6.0586                 6.0630
 IR Inten    --     27.9622                23.2558                59.6690

                    133                    134                    135
                      A                      A                      A
 Frequencies --   3068.3171              3069.1060              3090.7421
 Red. masses --      1.1005                 1.0955                 1.1010
 Frc consts  --      6.1042                 6.0795                 6.1969
 IR Inten    --     35.5473                59.1136                33.2719

                    136                    137                    138
                      A                      A                      A
 Frequencies --   3092.8280              3096.9130              3099.9735
 Red. masses --      1.1006                 1.1023                 1.1009
 Frc consts  --      6.2027                 6.2288                 6.2334
 IR Inten    --     47.4822                58.5513                34.3113

                    139                    140                    141
                      A                      A                      A
 Frequencies --   3100.6504              3113.1342              3118.3562
 Red. masses --      1.0925                 1.0945                 1.0912
 Frc consts  --      6.1884                 6.2498                 6.2521
 IR Inten    --     30.0334                24.6319                16.8686

 - Thermochemistry -
 -------------------
 Temperature   298.150 Kelvin.  Pressure   1.00000 Atm.
 Atom     1 has atomic number  6 and mass  12.00000

 Molecular mass:   257.23548 amu.
 Principal axes and moments of inertia in atomic units:
                           1         2         3
     Eigenvalues --  4079.161896003.985488623.61760
           X            1.00000  -0.00097  -0.00256
           Y            0.00097   0.99999  -0.00370
           Z            0.00257   0.00370   0.99999
 This molecule is an asymmetric top.
 Rotational symmetry number  1.
 Warning -- assumption of classical behavior for rotation
           may cause significant error
 Rotational temperatures (Kelvin)      0.02123     0.01443     0.01004
 Rotational constants (GHZ):           0.44243     0.30059     0.20928
 Zero-point vibrational energy    1183058.9 (Joules/Mol)
                                  282.75785 (Kcal/Mol)
 Warning -- explicit consideration of  33 degrees of freedom as
           vibrations may cause significant error
 Vibrational temperatures:     30.90    61.69    65.04   105.89   115.82
          (Kelvin)            137.84   150.21   154.74   175.91   186.46
                              233.83   261.30   286.42   325.45   340.60
                              356.23   358.97   374.67   388.29   404.69
                              415.94   460.97   479.86   524.84   547.30
                              613.82   629.16   674.84   703.92   750.00
                              762.31   816.31   836.01  1056.07  1074.38
                             1086.96  1171.53  1211.77  1225.78  1257.00
                             1288.12  1294.94  1350.83  1364.88  1378.79
                             1394.40  1427.22  1432.01  1447.04  1473.38
                             1492.62  1499.36  1522.72  1529.09  1539.55
                             1542.51  1568.64  1584.16  1612.09  1620.05
                             1645.82  1654.31  1675.98  1700.84  1721.50
                             1740.46  1763.77  1774.68  1782.93  1801.93
                             1838.64  1844.37  1855.55  1873.50  1891.02
                             1904.46  1916.63  1927.25  1931.65  1962.73
                             1967.11  1983.79  1997.14  2002.62  2006.62
                             2010.59  2013.39  2024.26  2031.85  2033.10
                             2039.23  2059.00  2095.83  2112.43  2124.50
                             2128.53  2135.44  2137.35  2138.28  2140.00
                             2147.15  2151.04  2155.95  2158.02  2160.43
                             2163.44  2168.64  2171.95  2179.96  2185.01
                             4227.47  4241.50  4257.75  4289.88  4296.85
                             4302.88  4311.75  4323.26  4325.58  4336.30
                             4336.94  4344.00  4345.17  4350.86  4352.39
                             4356.31  4359.37  4360.00  4381.46  4392.41
                             4402.51  4407.14  4414.62  4415.76  4446.89
                             4449.89  4455.77  4460.17  4461.14  4479.11
                             4486.62

 Zero-point correction=                           0.450603 (Hartree/Particle)
 Thermal correction to Energy=                    0.471697
 Thermal correction to Enthalpy=                  0.472641
 Thermal correction to Gibbs Free Energy=         0.400481
 Sum of electronic and zero-point Energies=           -795.051331
 Sum of electronic and thermal Energies=              -795.030237
 Sum of electronic and thermal Enthalpies=            -795.029293
 Sum of electronic and thermal Free Energies=         -795.101453

                     E (Thermal)             CV                S
                      KCal/Mol        Cal/Mol-Kelvin    Cal/Mol-Kelvin
 Total                  295.994             79.279            151.874
 Electronic               0.000              0.000              0.000
 Translational            0.889              2.981             42.534
 Rotational               0.889              2.981             33.712
 Vibrational            294.217             73.317             75.627
 Vibration     1          0.593              1.985              6.493
 Vibration     2          0.595              1.980              5.122
 Vibration     3          0.595              1.979              5.017
 Vibration     4          0.599              1.966              4.055
 Vibration     5          0.600              1.962              3.879
 Vibration     6          0.603              1.952              3.538
 Vibration     7          0.605              1.946              3.370
 Vibration     8          0.606              1.943              3.313
 Vibration     9          0.610              1.931              3.064
 Vibration    10          0.612              1.924              2.952
 Vibration    11          0.623              1.888              2.520
 Vibration    12          0.630              1.865              2.312
 Vibration    13          0.637              1.841              2.142
 Vibration    14          0.650              1.801              1.909
 Vibration    15          0.656              1.784              1.827
 Vibration    16          0.661              1.767              1.748
 Vibration    17          0.662              1.764              1.734
 Vibration    18          0.668              1.745              1.659
 Vibration    19          0.674              1.729              1.597
 Vibration    20          0.681              1.708              1.526
 Vibration    21          0.686              1.694              1.479
 Vibration    22          0.706              1.635              1.308
 Vibration    23          0.715              1.609              1.243
 Vibration    24          0.738              1.545              1.102
 Vibration    25          0.750              1.512              1.038
 Vibration    26          0.788              1.412              0.870
 Vibration    27          0.798              1.389              0.835
 Vibration    28          0.826              1.319              0.740
 Vibration    29          0.845              1.274              0.686
 Vibration    30          0.876              1.203              0.607
 Vibration    31          0.885              1.184              0.588
 Vibration    32          0.923              1.102              0.509
 Vibration    33          0.938              1.072              0.483

                           ! Non-Optimized Parameters !
 Normal termination of Gaussian 16 at Tue May 23 20:25:07 2023.
