 Gaussian 16, Revision A.03,
 Gaussian 16:  ES64L-G16RevA.03 25-Dec-2016

 -----------------------------
 # opt freq b3lyp/6-31g(2df,p)
 -----------------------------

 -------------------
 Title Card Required
 -------------------
 Symbolic Z-matrix:
 Charge =  0 Multiplicity = 1

 SCF Done:  E(RB3LYP) =  -660.291241246     A.U. after   13 cycles
 SCF Done:  E(RB3LYP) =  -660.294627109     A.U. after   11 cycles
 SCF Done:  E(RB3LYP) =  -660.299969003     A.U. after   11 cycles
 SCF Done:  E(RB3LYP) =  -660.302372319     A.U. after   11 cycles
 SCF Done:  E(RB3LYP) =  -660.303138696     A.U. after   10 cycles
 SCF Done:  E(RB3LYP) =  -660.303532382     A.U. after   10 cycles
 SCF Done:  E(RB3LYP) =  -660.303710895     A.U. after   10 cycles
 SCF Done:  E(RB3LYP) =  -660.303832308     A.U. after   10 cycles
 SCF Done:  E(RB3LYP) =  -660.304100110     A.U. after   11 cycles
 SCF Done:  E(RB3LYP) =  -660.301081474     A.U. after   12 cycles
 SCF Done:  E(RB3LYP) =  -660.304461831     A.U. after   10 cycles
 SCF Done:  E(RB3LYP) =  -660.304540572     A.U. after    9 cycles
 SCF Done:  E(RB3LYP) =  -660.304565783     A.U. after    9 cycles
 SCF Done:  E(RB3LYP) =  -660.304576649     A.U. after    9 cycles
 SCF Done:  E(RB3LYP) =  -660.304584880     A.U. after    9 cycles
 SCF Done:  E(RB3LYP) =  -660.304587544     A.U. after    8 cycles
 SCF Done:  E(RB3LYP) =  -660.304588835     A.U. after    8 cycles
 SCF Done:  E(RB3LYP) =  -660.304589147     A.U. after    7 cycles
 SCF Done:  E(RB3LYP) =  -660.304589193     A.U. after    6 cycles
 Optimization completed.
    -- Stationary point found.
 Normal termination of Gaussian 16 at Mon May 22 15:43:16 2023.

 ----------------------------------------------------------------------
 #N Geom=AllCheck Guess=TCheck SCRF=Check GenChk RB3LYP/6-31G(2df,p) Fr
 eq
 ----------------------------------------------------------------------

 Structure from the checkpoint file:  "CCCCC1CCOCCdCC1qOrCC.chk"
 -------------------
 Title Card Required
 -------------------
 Charge =  0 Multiplicity = 1

                         Standard orientation:
 ---------------------------------------------------------------------
 Center     Atomic      Atomic             Coordinates (Angstroms)
 Number     Number       Type             X           Y           Z
 ---------------------------------------------------------------------
      1          6           0       -5.358628   -0.160783   -0.162621
      2          6           0       -4.018362    0.107333    0.527285
      3          6           0       -2.812297   -0.078549   -0.401094
      4          6           0       -1.472675    0.203875    0.292223
      5          6           0       -0.237231    0.046893   -0.624272
      6          6           0        0.060483   -1.440295   -0.933158
      7          6           0        0.511752   -2.326207    0.233258
      8          8           0        1.658187   -1.869498    0.951915
      9          6           0        2.863740   -1.812121    0.209047
     10          6           0        3.047833   -0.604008   -0.669502
     11          6           0        2.288142    0.484178   -0.799929
     12          6           0        0.993395    0.874325   -0.081854
     13          8           0        1.105065    0.753633    1.332317
     14          6           0        0.749230    2.379950   -0.345161
     15          6           0        1.793889    3.300774    0.292224
     16          1           0       -6.198701   -0.019736    0.524783
     17          1           0       -5.410044   -1.186880   -0.544186
     18          1           0       -5.508110    0.513756   -1.013230
     19          1           0       -3.912628   -0.557760    1.394704
     20          1           0       -4.010196    1.129054    0.929305
     21          1           0       -2.919381    0.587578   -1.269156
     22          1           0       -2.832022   -1.100340   -0.803616
     23          1           0       -1.369332   -0.445815    1.168775
     24          1           0       -1.501579    1.217888    0.700939
     25          1           0       -0.488104    0.496336   -1.595563
     26          1           0        0.797045   -1.503593   -1.738392
     27          1           0       -0.850758   -1.905218   -1.329648
     28          1           0        0.710591   -3.341408   -0.143256
     29          1           0       -0.271291   -2.405763    0.992677
     30          1           0        2.962999   -2.723351   -0.405051
     31          1           0        3.673140   -1.851377    0.950382
     32          1           0        3.953992   -0.666289   -1.272262
     33          1           0        2.631400    1.213152   -1.530712
     34          1           0        1.326695   -0.172348    1.515952
     35          1           0       -0.238705    2.651205    0.037924
     36          1           0        0.716240    2.536729   -1.430515
     37          1           0        1.817351    3.155927    1.373914
     38          1           0        1.559274    4.349609    0.084586
     39          1           0        2.800481    3.103372   -0.090895
 ---------------------------------------------------------------------

 SCF Done:  E(RB3LYP) =  -660.304589193     A.U. after    1 cycles

 The electronic state is 1-A.
 Alpha  occ. eigenvalues --  -19.15868 -19.10573 -10.24207 -10.23517 -10.22904
 Alpha  occ. eigenvalues --  -10.18534 -10.18158 -10.18014 -10.17802 -10.17454
 Alpha  occ. eigenvalues --  -10.17290 -10.16917 -10.16849 -10.16848 -10.15805
 Alpha  occ. eigenvalues --   -1.04775  -0.99359  -0.81370  -0.79471  -0.77990
 Alpha  occ. eigenvalues --   -0.75481  -0.73020  -0.69273  -0.68639  -0.63200
 Alpha  occ. eigenvalues --   -0.62388  -0.57946  -0.57232  -0.56159  -0.52554
 Alpha  occ. eigenvalues --   -0.50405  -0.49685  -0.48480  -0.46541  -0.44840
 Alpha  occ. eigenvalues --   -0.44634  -0.43819  -0.41973  -0.41191  -0.40564
 Alpha  occ. eigenvalues --   -0.40250  -0.39449  -0.38786  -0.38228  -0.37300
 Alpha  occ. eigenvalues --   -0.35596  -0.35439  -0.34305  -0.33714  -0.33069
 Alpha  occ. eigenvalues --   -0.32623  -0.32500  -0.31691  -0.31582  -0.30584
 Alpha  occ. eigenvalues --   -0.29224  -0.26540  -0.24567  -0.24328
 Alpha virt. eigenvalues --    0.01417   0.06864   0.09112   0.10246   0.10888
 Alpha virt. eigenvalues --    0.11441   0.11643   0.12686   0.13653   0.14504
 Alpha virt. eigenvalues --    0.14872   0.15482   0.15857   0.16304   0.16801

 Mulliken charges:
               1
     1  C   -0.380206
     2  C   -0.163247
     3  C   -0.175437
     4  C   -0.185823
     5  C   -0.025343
     6  C   -0.257994
     7  C   -0.084655
     8  O   -0.251506
     9  C   -0.156773
    10  C   -0.085209
    11  C   -0.073259
    12  C    0.282765
    13  O   -0.482227
    14  C   -0.194115
    15  C   -0.391080
    16  H    0.110311
    17  H    0.110779
    18  H    0.112392
    19  H    0.093117
    20  H    0.095950
    21  H    0.089797
    22  H    0.088504
    23  H    0.094861
    24  H    0.106172
    25  H    0.065790
    26  H    0.106658
    27  H    0.100457
    28  H    0.097241
    29  H    0.117692
    30  H    0.106975
    31  H    0.129000
    32  H    0.088930
    33  H    0.087970
    34  H    0.289215
    35  H    0.096351
    36  H    0.087284
    37  H    0.138816
    38  H    0.101218
    39  H    0.108630
 Sum of Mulliken charges =  -0.00000

 Dipole moment (field-independent basis, Debye):
    X=              0.2082    Y=             -1.8386    Z=             -1.8632  Tot=              2.6259
 Quadrupole moment (field-independent basis, Debye-Ang):
   XX=            -91.2330   YY=            -91.9045   ZZ=            -97.1262
   XY=             -3.6870   XZ=             -3.3767   YZ=             -1.3321

  Exact polarizability: 170.644  -6.036 153.157  -3.068  -1.218 117.633
 Approx polarizability: 211.259 -14.009 218.065  -3.283  -3.673 193.090

                      1                      2                      3
                      A                      A                      A
 Frequencies --     21.3786                51.5767                61.5071
 Red. masses --      2.3875                 2.2191                 2.5824
 Frc consts  --      0.0006                 0.0035                 0.0058
 IR Inten    --      0.0126                 0.1410                 0.1683

                      4                      5                      6
                      A                      A                      A
 Frequencies --     97.6359               115.6944               118.3282
 Red. masses --      2.2599                 2.7800                 2.5170
 Frc consts  --      0.0127                 0.0219                 0.0208
 IR Inten    --      0.0582                 0.3175                 0.1731

                      7                      8                      9
                      A                      A                      A
 Frequencies --    137.6404               182.5570               216.0194
 Red. masses --      2.3152                 1.9718                 1.8585
 Frc consts  --      0.0258                 0.0387                 0.0511
 IR Inten    --      0.6108                 0.7016                 1.2475

                     10                     11                     12
                      A                      A                      A
 Frequencies --    220.5195               239.8133               253.7778
 Red. masses --      2.8980                 1.4294                 2.0961
 Frc consts  --      0.0830                 0.0484                 0.0795
 IR Inten    --      0.9813                 0.8187                 2.6336

                     13                     14                     15
                      A                      A                      A
 Frequencies --    266.0110               280.5116               297.1935
 Red. masses --      3.1423                 5.6496                 2.9243
 Frc consts  --      0.1310                 0.2619                 0.1522
 IR Inten    --      0.9822                 3.5415                 1.8022

                     16                     17                     18
                      A                      A                      A
 Frequencies --    343.4531               355.2987               382.5285
 Red. masses --      3.4367                 2.8482                 2.6585
 Frc consts  --      0.2389                 0.2118                 0.2292
 IR Inten    --      1.0859                 0.6022                 1.8657

                     19                     20                     21
                      A                      A                      A
 Frequencies --    407.2633               418.1434               454.0536
 Red. masses --      2.3644                 2.4629                 2.4779
 Frc consts  --      0.2311                 0.2537                 0.3010
 IR Inten    --      5.1593                 3.4780                 0.2866

                     22                     23                     24
                      A                      A                      A
 Frequencies --    497.4539               529.9482               574.9108
 Red. masses --      2.4104                 3.0649                 2.8550
 Frc consts  --      0.3514                 0.5072                 0.5560
 IR Inten    --      1.6655                 0.5189                 4.3545

                     25                     26                     27
                      A                      A                      A
 Frequencies --    631.8005               691.8459               700.7339
 Red. masses --      2.1570                 1.0913                 2.0625
 Frc consts  --      0.5073                 0.3078                 0.5967
 IR Inten    --      8.2514                52.9704                18.0954

                     28                     29                     30
                      A                      A                      A
 Frequencies --    714.2253               728.6813               774.3307
 Red. masses --      2.3262                 1.1385                 1.4301
 Frc consts  --      0.6991                 0.3562                 0.5052
 IR Inten    --      8.4335                 4.1167                 1.5711

                     31                     32                     33
                      A                      A                      A
 Frequencies --    788.9712               812.3723               825.4134
 Red. masses --      1.2766                 3.2671                 2.6270
 Frc consts  --      0.4682                 1.2704                 1.0545
 IR Inten    --      1.1944                 3.5992                 2.5749

                     34                     35                     36
                      A                      A                      A
 Frequencies --    853.5255               881.5127               906.4404
 Red. masses --      2.5006                 2.8687                 1.8891
 Frc consts  --      1.0733                 1.3134                 0.9145
 IR Inten    --      3.2251                 0.4980                 0.9420

                     37                     38                     39
                      A                      A                      A
 Frequencies --    931.6783               953.9448               972.3724
 Red. masses --      1.4399                 2.0818                 2.0738
 Frc consts  --      0.7364                 1.1162                 1.1553
 IR Inten    --      2.8333                 5.0422                24.3812

                     40                     41                     42
                      A                      A                      A
 Frequencies --    987.7237               998.7650              1008.3129
 Red. masses --      2.1733                 1.9251                 1.5624
 Frc consts  --      1.2492                 1.1314                 0.9359
 IR Inten    --     22.6798                 7.2529                13.8213

                     43                     44                     45
                      A                      A                      A
 Frequencies --   1015.1545              1028.7408              1039.2602
 Red. masses --      2.1190                 2.3558                 1.9639
 Frc consts  --      1.2866                 1.4689                 1.2497
 IR Inten    --      3.8252                 8.0433                 3.7592

                     46                     47                     48
                      A                      A                      A
 Frequencies --   1061.7295              1067.2491              1076.8148
 Red. masses --      1.7186                 2.2446                 2.5851
 Frc consts  --      1.1414                 1.5064                 1.7661
 IR Inten    --     10.7698                 3.5438                11.8952

                     49                     50                     51
                      A                      A                      A
 Frequencies --   1093.1817              1125.6255              1138.3043
 Red. masses --      2.1255                 2.2163                 2.8348
 Frc consts  --      1.4965                 1.6545                 2.1641
 IR Inten    --      3.1265                38.6309                86.2266

                     52                     53                     54
                      A                      A                      A
 Frequencies --   1147.2622              1175.7166              1187.1294
 Red. masses --      2.6727                 2.3597                 2.3508
 Frc consts  --      2.0727                 1.9218                 1.9519
 IR Inten    --     22.4829                12.0390                 5.2992

                     55                     56                     57
                      A                      A                      A
 Frequencies --   1236.6687              1251.1763              1268.8175
 Red. masses --      1.4886                 1.2090                 1.1616
 Frc consts  --      1.3413                 1.1151                 1.1018
 IR Inten    --      5.5281                 9.4041                 7.8107

                     58                     59                     60
                      A                      A                      A
 Frequencies --   1274.4428              1280.4911              1306.4931
 Red. masses --      1.2371                 1.2670                 1.2338
 Frc consts  --      1.1839                 1.2240                 1.2408
 IR Inten    --     12.5316                 4.4075                 1.7977

                     61                     62                     63
                      A                      A                      A
 Frequencies --   1309.7249              1328.9580              1330.5556
 Red. masses --      1.2548                 1.1537                 1.1237
 Frc consts  --      1.2682                 1.2006                 1.1721
 IR Inten    --      2.3512                 2.1791                 2.5722

                     64                     65                     66
                      A                      A                      A
 Frequencies --   1338.2529              1359.1560              1361.8287
 Red. masses --      1.3407                 1.2497                 1.3229
 Frc consts  --      1.4146                 1.3602                 1.4455
 IR Inten    --     10.1545                 5.3560                 7.5726

                     67                     68                     69
                      A                      A                      A
 Frequencies --   1379.2895              1388.7924              1396.3996
 Red. masses --      1.4223                 1.2786                 1.5584
 Frc consts  --      1.5943                 1.4530                 1.7904
 IR Inten    --      3.9552                 9.0031                 0.7413

                     70                     71                     72
                      A                      A                      A
 Frequencies --   1403.4171              1406.1218              1411.6347
 Red. masses --      1.3486                 1.2897                 1.3220
 Frc consts  --      1.5650                 1.5024                 1.5521
 IR Inten    --      5.2940                 3.3273                21.5253

                     73                     74                     75
                      A                      A                      A
 Frequencies --   1412.8450              1422.7820              1445.6965
 Red. masses --      1.2492                 1.2849                 1.4233
 Frc consts  --      1.4692                 1.5325                 1.7527
 IR Inten    --      0.2818                 1.7569                37.1617

                     76                     77                     78
                      A                      A                      A
 Frequencies --   1474.4110              1480.0051              1480.8857
 Red. masses --      1.0788                 1.0921                 1.0780
 Frc consts  --      1.3817                 1.4095                 1.3929
 IR Inten    --      1.8805                 2.6284                 8.4700

                     79                     80                     81
                      A                      A                      A
 Frequencies --   1483.1736              1486.4413              1494.5186
 Red. masses --      1.0803                 1.0697                 1.0451
 Frc consts  --      1.4002                 1.3925                 1.3754
 IR Inten    --      0.9709                 5.0086                 4.6243

                     82                     83                     84
                      A                      A                      A
 Frequencies --   1497.0404              1499.8260              1503.5468
 Red. masses --      1.0798                 1.0406                 1.0853
 Frc consts  --      1.4259                 1.3791                 1.4456
 IR Inten    --      7.3343                 4.5265                 5.4321

                     85                     86                     87
                      A                      A                      A
 Frequencies --   1510.1008              1512.9532              1722.8731
 Red. masses --      1.0626                 1.0886                 7.4901
 Frc consts  --      1.4277                 1.4681                13.0991
 IR Inten    --      3.8179                 4.3843                 2.1230

                     88                     89                     90
                      A                      A                      A
 Frequencies --   2964.0403              2989.8038              2996.9209
 Red. masses --      1.0690                 1.0701                 1.0784
 Frc consts  --      5.5333                 5.6357                 5.7064
 IR Inten    --     47.9893                59.1474                 7.5745

                     91                     92                     93
                      A                      A                      A
 Frequencies --   3002.0383              3014.7514              3025.8100
 Red. masses --      1.0617                 1.0596                 1.0950
 Frc consts  --      5.6373                 5.6741                 5.9065
 IR Inten    --     11.9585                28.7655                 4.0068

                     94                     95                     96
                      A                      A                      A
 Frequencies --   3027.2006              3031.3783              3031.9985
 Red. masses --      1.0373                 1.0656                 1.0905
 Frc consts  --      5.6007                 5.7693                 5.9067
 IR Inten    --     34.0429                19.7305                33.5427

                     97                     98                     99
                      A                      A                      A
 Frequencies --   3040.5820              3041.9373              3045.7981
 Red. masses --      1.0393                 1.0715                 1.0719
 Frc consts  --      5.6610                 5.8417                 5.8587
 IR Inten    --     36.1283                24.9640                33.1635

                    100                    101                    102
                      A                      A                      A
 Frequencies --   3052.1301              3077.3403              3078.6626
 Red. masses --      1.0919                 1.0967                 1.0930
 Frc consts  --      5.9929                 6.1193                 6.1037
 IR Inten    --     25.7722                13.9537                 7.0496

                    103                    104                    105
                      A                      A                      A
 Frequencies --   3089.2167              3093.4807              3098.4492
 Red. masses --      1.0967                 1.1012                 1.0950
 Frc consts  --      6.1665                 6.2088                 6.1938
 IR Inten    --      5.7639                61.8376                54.8816

                    106                    107                    108
                      A                      A                      A
 Frequencies --   3099.2088              3102.4886              3118.7962
 Red. masses --      1.1008                 1.0990                 1.0837
 Frc consts  --      6.2297                 6.2328                 6.2104
 IR Inten    --     33.3337                76.1156                 7.4898

                    109                    110                    111
                      A                      A                      A
 Frequencies --   3135.7217              3148.4399              3664.4141
 Red. masses --      1.0993                 1.0923                 1.0657
 Frc consts  --      6.3687                 6.3797                 8.4316
 IR Inten    --     13.4055                30.9700               214.4317

 - Thermochemistry -
 -------------------
 Temperature   298.150 Kelvin.  Pressure   1.00000 Atm.
 Atom     1 has atomic number  6 and mass  12.00000

 Molecular mass:   212.17763 amu.
 Principal axes and moments of inertia in atomic units:
                           1         2         3
     Eigenvalues --  2196.192594928.999606341.90260
           X            0.99995   0.00997  -0.00306
           Y           -0.00995   0.99994   0.00550
           Z            0.00312  -0.00547   0.99998
 This molecule is an asymmetric top.
 Rotational symmetry number  1.
 Warning -- assumption of classical behavior for rotation
           may cause significant error
 Rotational temperatures (Kelvin)      0.03944     0.01757     0.01366
 Rotational constants (GHZ):           0.82176     0.36615     0.28457
 Zero-point vibrational energy     928732.6 (Joules/Mol)
                                  221.97242 (Kcal/Mol)
 Warning -- explicit consideration of  24 degrees of freedom as
           vibrations may cause significant error
 Vibrational temperatures:     30.76    74.21    88.50   140.48   166.46
          (Kelvin)            170.25   198.03   262.66   310.80   317.28
                              345.04   365.13   382.73   403.59   427.60
                              494.15   511.20   550.37   585.96   601.62
                              653.28   715.73   762.48   827.17   909.02
                              995.41  1008.20  1027.61  1048.41  1114.09
                             1135.15  1168.82  1187.59  1228.03  1268.30
                             1304.17  1340.48  1372.51  1399.03  1421.11
                             1437.00  1450.74  1460.58  1480.13  1495.26
                             1527.59  1535.53  1549.30  1572.84  1619.52
                             1637.77  1650.65  1691.59  1708.01  1779.29
                             1800.16  1825.55  1833.64  1842.34  1879.75
                             1884.40  1912.07  1914.37  1925.45  1955.52
                             1959.37  1984.49  1998.16  2009.11  2019.20
                             2023.10  2031.03  2032.77  2047.07  2080.03
                             2121.35  2129.40  2130.66  2133.96  2138.66
                             2150.28  2153.91  2157.92  2163.27  2172.70
                             2176.80  2478.83  4264.59  4301.66  4311.90
                             4319.26  4337.55  4353.47  4355.47  4361.48
                             4362.37  4374.72  4376.67  4382.22  4391.33
                             4427.61  4429.51  4444.69  4450.83  4457.98
                             4459.07  4463.79  4487.25  4511.60  4529.90
                             5272.27

 Zero-point correction=                           0.353736 (Hartree/Particle)
 Thermal correction to Energy=                    0.370275
 Thermal correction to Enthalpy=                  0.371219
 Thermal correction to Gibbs Free Energy=         0.309535
 Sum of electronic and zero-point Energies=           -659.950854
 Sum of electronic and thermal Energies=              -659.934314
 Sum of electronic and thermal Enthalpies=            -659.933370
 Sum of electronic and thermal Free Energies=         -659.995054

                     E (Thermal)             CV                S
                      KCal/Mol        Cal/Mol-Kelvin    Cal/Mol-Kelvin
 Total                  232.351             64.062            129.824
 Electronic               0.000              0.000              0.000
 Translational            0.889              2.981             41.960
 Rotational               0.889              2.981             32.596
 Vibrational            230.574             58.100             55.268
 Vibration     1          0.593              1.985              6.502
 Vibration     2          0.596              1.977              4.756
 Vibration     3          0.597              1.973              4.408
 Vibration     4          0.603              1.951              3.501
 Vibration     5          0.608              1.936              3.171
 Vibration     6          0.608              1.934              3.127
 Vibration     7          0.614              1.916              2.836
 Vibration     8          0.630              1.864              2.302
 Vibration     9          0.645              1.817              1.992
 Vibration    10          0.647              1.810              1.955
 Vibration    11          0.657              1.780              1.804
 Vibration    12          0.665              1.756              1.704
 Vibration    13          0.672              1.735              1.622
 Vibration    14          0.680              1.710              1.531
 Vibration    15          0.691              1.679              1.433
 Vibration    16          0.722              1.589              1.196
 Vibration    17          0.731              1.564              1.143
 Vibration    18          0.752              1.507              1.029
 Vibration    19          0.772              1.454              0.936
 Vibration    20          0.781              1.431              0.898
 Vibration    21          0.812              1.352              0.784
 Vibration    22          0.853              1.256              0.665
 Vibration    23          0.885              1.184              0.587
 Vibration    24          0.931              1.086              0.495

 Optimization completed.
    -- Stationary point found.
 Normal termination of Gaussian 16 at Mon May 22 19:41:38 2023.
