 Gaussian 16, Revision A.03,
 Gaussian 16:  ES64L-G16RevA.03 25-Dec-2016

 -----------------------------
 # opt freq b3lyp/6-31g(2df,p)
 -----------------------------

 -------------------
 Title Card Required
 -------------------
 Symbolic Z-matrix:
 Charge =  0 Multiplicity = 1

 SCF Done:  E(RB3LYP) =  -355.038382442     A.U. after   12 cycles
 SCF Done:  E(RB3LYP) =  -355.039057283     A.U. after   10 cycles
 SCF Done:  E(RB3LYP) =  -355.042124197     A.U. after   10 cycles
 SCF Done:  E(RB3LYP) =  -355.043233114     A.U. after    9 cycles
 SCF Done:  E(RB3LYP) =  -355.043648270     A.U. after   10 cycles
 SCF Done:  E(RB3LYP) =  -355.043893069     A.U. after   10 cycles
 SCF Done:  E(RB3LYP) =  -355.044649736     A.U. after   10 cycles
 SCF Done:  E(RB3LYP) =  -355.044311302     A.U. after   12 cycles
 SCF Done:  E(RB3LYP) =  -355.045531174     A.U. after    9 cycles
 SCF Done:  E(RB3LYP) =  -355.045856471     A.U. after   10 cycles
 SCF Done:  E(RB3LYP) =  -355.047516288     A.U. after    9 cycles
 SCF Done:  E(RB3LYP) =  -355.047596646     A.U. after    9 cycles
 SCF Done:  E(RB3LYP) =  -355.047606996     A.U. after    8 cycles
 SCF Done:  E(RB3LYP) =  -355.047611369     A.U. after    7 cycles
 SCF Done:  E(RB3LYP) =  -355.047612449     A.U. after    6 cycles
 SCF Done:  E(RB3LYP) =  -355.047613008     A.U. after    6 cycles
 SCF Done:  E(RB3LYP) =  -355.047613311     A.U. after    7 cycles
 SCF Done:  E(RB3LYP) =  -355.047613369     A.U. after    6 cycles
 SCF Done:  E(RB3LYP) =  -355.047613382     A.U. after    5 cycles
 Optimization completed.
    -- Stationary point found.
 Normal termination of Gaussian 16 at Sun May 28 23:15:13 2023.

 ----------------------------------------------------------------------
 #N Geom=AllCheck Guess=TCheck SCRF=Check GenChk RB3LYP/6-31G(2df,p) Fr
 eq
 ----------------------------------------------------------------------

 Structure from the checkpoint file:  "CCCCqCCrCqCrC.chk"
 -------------------
 Title Card Required
 -------------------
 Charge =  0 Multiplicity = 1

                         Standard orientation:
 ---------------------------------------------------------------------
 Center     Atomic      Atomic             Coordinates (Angstroms)
 Number     Number       Type             X           Y           Z
 ---------------------------------------------------------------------
      1          6           0        3.380108   -0.936540   -0.152756
      2          6           0        2.067540   -0.483400    0.491782
      3          6           0        0.945736   -0.246306   -0.527964
      4          6           0       -0.398971    0.237428    0.087101
      5          6           0       -0.660580    1.720439   -0.247633
      6          6           0        0.417661    2.685760    0.258657
      7          6           0       -1.571506   -0.694807   -0.327961
      8          6           0       -1.391212   -2.102516    0.264958
      9          6           0       -2.959034   -0.163723    0.065814
     10          1           0        4.158689   -1.105445    0.597953
     11          1           0        3.755175   -0.185923   -0.857740
     12          1           0        3.246295   -1.871100   -0.709419
     13          1           0        2.239122    0.434455    1.067955
     14          1           0        1.736417   -1.236121    1.219471
     15          1           0        0.788848   -1.173999   -1.090891
     16          1           0        1.290228    0.482999   -1.272670
     17          1           0       -0.316912    0.166930    1.183444
     18          1           0       -1.617369    2.029991    0.183754
     19          1           0       -0.766383    1.828187   -1.336703
     20          1           0        0.526459    2.618221    1.347174
     21          1           0        0.156095    3.720928    0.016708
     22          1           0        1.397795    2.484886   -0.184691
     23          1           0       -1.547201   -0.781787   -1.424809
     24          1           0       -1.467430   -2.070619    1.358774
     25          1           0       -0.423291   -2.545321    0.014370
     26          1           0       -2.168480   -2.782298   -0.099440
     27          1           0       -3.010720    0.046947    1.141335
     28          1           0       -3.728932   -0.909839   -0.157987
     29          1           0       -3.226862    0.750903   -0.468574
 ---------------------------------------------------------------------

 SCF Done:  E(RB3LYP) =  -355.047613382     A.U. after    1 cycles

 The electronic state is 1-A.
 Alpha  occ. eigenvalues --  -10.18079 -10.17657 -10.17391 -10.17207 -10.16921
 Alpha  occ. eigenvalues --  -10.16862 -10.16851 -10.16659 -10.16650  -0.81912
 Alpha  occ. eigenvalues --   -0.77123  -0.75325  -0.69636  -0.67505  -0.64024
 Alpha  occ. eigenvalues --   -0.58859  -0.57370  -0.54423  -0.47044  -0.45109
 Alpha  occ. eigenvalues --   -0.43607  -0.43238  -0.41576  -0.40475  -0.39267
 Alpha  occ. eigenvalues --   -0.37970  -0.37389  -0.36633  -0.36278  -0.35118
 Alpha  occ. eigenvalues --   -0.34125  -0.33178  -0.32462  -0.32161  -0.30619
 Alpha  occ. eigenvalues --   -0.29460  -0.29134
 Alpha virt. eigenvalues --    0.08269   0.09702   0.10892   0.11119   0.13330
 Alpha virt. eigenvalues --    0.13847   0.14542   0.15516   0.16206   0.16606
 Alpha virt. eigenvalues --    0.16923   0.17360   0.17676   0.18654   0.19004

 Mulliken charges:
               1
     1  C   -0.380472
     2  C   -0.165087
     3  C   -0.184997
     4  C    0.064028
     5  C   -0.195132
     6  C   -0.387919
     7  C    0.031041
     8  C   -0.391961
     9  C   -0.401030
    10  H    0.109438
    11  H    0.112276
    12  H    0.112134
    13  H    0.097542
    14  H    0.094957
    15  H    0.089081
    16  H    0.087286
    17  H    0.058803
    18  H    0.095598
    19  H    0.088998
    20  H    0.111927
    21  H    0.108758
    22  H    0.117447
    23  H    0.067489
    24  H    0.109326
    25  H    0.113023
    26  H    0.107893
    27  H    0.109464
    28  H    0.105671
    29  H    0.114418
 Sum of Mulliken charges =  -0.00000

 Dipole moment (field-independent basis, Debye):
    X=             -0.0726    Y=              0.0273    Z=             -0.0328  Tot=              0.0843
 Quadrupole moment (field-independent basis, Debye-Ang):
   XX=            -62.2308   YY=            -61.6161   ZZ=            -61.0477
   XY=              0.0724   XZ=              0.1997   YZ=              0.0072

  Exact polarizability: 111.243   0.477 103.221   0.273  -0.222  85.068
 Approx polarizability: 137.022   0.675 137.079  -0.126  -0.070 135.541

                      1                      2                      3
                      A                      A                      A
 Frequencies --     28.4090                74.6115                92.1941
 Red. masses --      2.5800                 2.5938                 1.7934
 Frc consts  --      0.0012                 0.0085                 0.0090
 IR Inten    --      0.0044                 0.0056                 0.0100

                      4                      5                      6
                      A                      A                      A
 Frequencies --    127.7132               170.6678               196.4617
 Red. masses --      1.8083                 2.1944                 2.0628
 Frc consts  --      0.0174                 0.0377                 0.0469
 IR Inten    --      0.0213                 0.0293                 0.0342

                      7                      8                      9
                      A                      A                      A
 Frequencies --    228.6073               241.3585               251.3938
 Red. masses --      1.0586                 1.1347                 1.3676
 Frc consts  --      0.0326                 0.0389                 0.0509
 IR Inten    --      0.0019                 0.0018                 0.0107

                     10                     11                     12
                      A                      A                      A
 Frequencies --    260.0355               322.4781               334.1677
 Red. masses --      1.1983                 2.1322                 2.5595
 Frc consts  --      0.0477                 0.1306                 0.1684
 IR Inten    --      0.0084                 0.0358                 0.0774

                     13                     14                     15
                      A                      A                      A
 Frequencies --    360.0361               387.4981               446.0937
 Red. masses --      2.5186                 2.2207                 2.3700
 Frc consts  --      0.1924                 0.1965                 0.2779
 IR Inten    --      0.0366                 0.0691                 0.0471

                     16                     17                     18
                      A                      A                      A
 Frequencies --    465.5924               514.8592               733.2819
 Red. masses --      2.6410                 2.1917                 1.1048
 Frc consts  --      0.3373                 0.3423                 0.3500
 IR Inten    --      0.0272                 0.0910                 3.3488

                     19                     20                     21
                      A                      A                      A
 Frequencies --    783.8153               828.1031               851.8587
 Red. masses --      1.2840                 1.9489                 1.5727
 Frc consts  --      0.4648                 0.7874                 0.6724
 IR Inten    --      1.6556                 0.7970                 0.2262

                     22                     23                     24
                      A                      A                      A
 Frequencies --    888.3736               904.4605               928.1369
 Red. masses --      1.6089                 1.8882                 1.1805
 Frc consts  --      0.7481                 0.9101                 0.5992
 IR Inten    --      0.3715                 1.4813                 0.5949

                     25                     26                     27
                      A                      A                      A
 Frequencies --    949.2830               969.5158               991.3283
 Red. masses --      1.7010                 1.5413                 2.1090
 Frc consts  --      0.9031                 0.8536                 1.2211
 IR Inten    --      2.0090                 0.4406                 0.7250

                     28                     29                     30
                      A                      A                      A
 Frequencies --   1038.5175              1052.2107              1058.0850
 Red. masses --      1.6115                 2.3265                 1.9862
 Frc consts  --      1.0240                 1.5176                 1.3101
 IR Inten    --      0.3575                 0.9490                 0.0472

                     31                     32                     33
                      A                      A                      A
 Frequencies --   1085.6466              1096.8208              1162.3546
 Red. masses --      1.6690                 1.9901                 2.0871
 Frc consts  --      1.1590                 1.4106                 1.6614
 IR Inten    --      2.9275                 0.2171                 2.9792

                     34                     35                     36
                      A                      A                      A
 Frequencies --   1177.2045              1186.8363              1193.9442
 Red. masses --      2.0473                 2.2279                 1.8009
 Frc consts  --      1.6716                 1.8490                 1.5125
 IR Inten    --      1.7804                 0.5947                 2.1760

                     37                     38                     39
                      A                      A                      A
 Frequencies --   1265.0917              1277.3407              1287.3453
 Red. masses --      1.3052                 1.3123                 1.3038
 Frc consts  --      1.2308                 1.2615                 1.2731
 IR Inten    --      0.4417                 3.3517                 6.3448

                     40                     41                     42
                      A                      A                      A
 Frequencies --   1325.9647              1331.1463              1348.1442
 Red. masses --      1.2236                 1.1020                 1.3212
 Frc consts  --      1.2675                 1.1505                 1.4148
 IR Inten    --      3.9708                 0.9986                 1.3216

                     43                     44                     45
                      A                      A                      A
 Frequencies --   1354.7732              1372.9006              1384.5654
 Red. masses --      1.3074                 1.3610                 1.4507
 Frc consts  --      1.4138                 1.5115                 1.6385
 IR Inten    --      0.3187                 2.1810                 1.1559

                     46                     47                     48
                      A                      A                      A
 Frequencies --   1394.3357              1400.6394              1411.1988
 Red. masses --      1.4734                 1.2510                 1.2403
 Frc consts  --      1.6877                 1.4459                 1.4554
 IR Inten    --      2.4460                 1.7316                 1.3216

                     49                     50                     51
                      A                      A                      A
 Frequencies --   1411.8950              1420.8394              1483.3764
 Red. masses --      1.2367                 1.2219                 1.0574
 Frc consts  --      1.4525                 1.4534                 1.3709
 IR Inten    --      0.6202                 4.7109                 0.5155

                     52                     53                     54
                      A                      A                      A
 Frequencies --   1485.5372              1487.7676              1493.5478
 Red. masses --      1.0623                 1.0530                 1.0482
 Frc consts  --      1.3813                 1.3732                 1.3776
 IR Inten    --      1.2514                 1.0548                 0.4300

                     55                     56                     57
                      A                      A                      A
 Frequencies --   1498.3332              1499.2215              1502.9667
 Red. masses --      1.0472                 1.0416                 1.0567
 Frc consts  --      1.3851                 1.3793                 1.4064
 IR Inten    --      1.1762                 6.4499                 3.1415

                     58                     59                     60
                      A                      A                      A
 Frequencies --   1506.2444              1510.4601              1516.1306
 Red. masses --      1.0674                 1.0650                 1.0494
 Frc consts  --      1.4268                 1.4315                 1.4213
 IR Inten    --      2.0434                 1.7893                 6.4080

                     61                     62                     63
                      A                      A                      A
 Frequencies --   1518.7630              2970.0925              2990.4543
 Red. masses --      1.0699                 1.0798                 1.0827
 Frc consts  --      1.4541                 5.6121                 5.7049
 IR Inten    --     12.0353                 2.8027                16.9982

                     64                     65                     66
                      A                      A                      A
 Frequencies --   3009.3331              3014.1090              3023.3463
 Red. masses --      1.0680                 1.0612                 1.0386
 Frc consts  --      5.6983                 5.6803                 5.5934
 IR Inten    --     22.1999                 3.6854                18.7596

                     67                     68                     69
                      A                      A                      A
 Frequencies --   3023.4859              3027.6858              3028.7889
 Red. masses --      1.0537                 1.0436                 1.0387
 Frc consts  --      5.6753                 5.6366                 5.6140
 IR Inten    --     31.3896                65.6451                26.7648

                     70                     71                     72
                      A                      A                      A
 Frequencies --   3030.3976              3039.0248              3059.7244
 Red. masses --      1.0373                 1.0957                 1.1022
 Frc consts  --      5.6122                 5.9624                 6.0794
 IR Inten    --     26.2811                 0.4786                39.0887

                     73                     74                     75
                      A                      A                      A
 Frequencies --   3070.5626              3084.4463              3091.5135
 Red. masses --      1.0926                 1.0998                 1.0991
 Frc consts  --      6.0696                 6.1647                 6.1890
 IR Inten    --     15.6896                 3.0644                58.9162

                     76                     77                     78
                      A                      A                      A
 Frequencies --   3092.6349              3094.5781              3098.4971
 Red. masses --      1.1020                 1.1009                 1.1008
 Frc consts  --      6.2102                 6.2118                 6.2266
 IR Inten    --     73.6550                30.9958                43.5621

                     79                     80                     81
                      A                      A                      A
 Frequencies --   3104.8074              3107.5579              3113.9158
 Red. masses --      1.1007                 1.0991                 1.0981
 Frc consts  --      6.2513                 6.2538                 6.2733
 IR Inten    --     34.1209                51.1714                32.2371

 - Thermochemistry -
 -------------------
 Temperature   298.150 Kelvin.  Pressure   1.00000 Atm.
 Atom     1 has atomic number  6 and mass  12.00000

 Molecular mass:   128.15650 amu.
 Principal axes and moments of inertia in atomic units:
                           1         2         3
     Eigenvalues --  1026.477931770.237762596.64990
           X            1.00000   0.00017  -0.00256
           Y           -0.00017   1.00000   0.00039
           Z            0.00256  -0.00039   1.00000
 This molecule is an asymmetric top.
 Rotational symmetry number  1.
 Warning -- assumption of classical behavior for rotation
           may cause significant error
 Rotational temperatures (Kelvin)      0.08438     0.04893     0.03336
 Rotational constants (GHZ):           1.75819     1.01949     0.69503
 Zero-point vibrational energy     717433.1 (Joules/Mol)
                                  171.47061 (Kcal/Mol)
 Warning -- explicit consideration of  17 degrees of freedom as
           vibrations may cause significant error
 Vibrational temperatures:     40.87   107.35   132.65   183.75   245.55
          (Kelvin)            282.66   328.91   347.26   361.70   374.13
                              463.97   480.79   518.01   557.52   641.83
                              669.88   740.77  1055.03  1127.74  1191.46
                             1225.63  1278.17  1301.32  1335.38  1365.81
                             1394.92  1426.30  1494.20  1513.90  1522.35
                             1562.00  1578.08  1672.37  1693.73  1707.59
                             1717.82  1820.18  1837.81  1852.20  1907.77
                             1915.22  1939.68  1949.22  1975.30  1992.08
                             2006.14  2015.21  2030.40  2031.40  2044.27
                             2134.25  2137.36  2140.57  2148.88  2155.77
                             2157.05  2162.43  2167.15  2173.22  2181.37
                             2185.16  4273.30  4302.60  4329.76  4336.63
                             4349.92  4350.12  4356.16  4357.75  4360.07
                             4372.48  4402.26  4417.85  4437.83  4448.00
                             4449.61  4452.41  4458.05  4467.13  4471.08
                             4480.23

 Zero-point correction=                           0.273256 (Hartree/Particle)
 Thermal correction to Energy=                    0.285507
 Thermal correction to Enthalpy=                  0.286451
 Thermal correction to Gibbs Free Energy=         0.235134
 Sum of electronic and zero-point Energies=           -354.774358
 Sum of electronic and thermal Energies=              -354.762106
 Sum of electronic and thermal Enthalpies=            -354.761162
 Sum of electronic and thermal Free Energies=         -354.812480

                     E (Thermal)             CV                S
                      KCal/Mol        Cal/Mol-Kelvin    Cal/Mol-Kelvin
 Total                  179.158             45.121            108.007
 Electronic               0.000              0.000              0.000
 Translational            0.889              2.981             40.457
 Rotational               0.889              2.981             29.935
 Vibrational            177.381             39.159             37.614
 Vibration     1          0.593              1.984              5.938
 Vibration     2          0.599              1.966              4.028
 Vibration     3          0.602              1.955              3.613
 Vibration     4          0.611              1.925              2.980
 Vibration     5          0.626              1.879              2.428
 Vibration     6          0.636              1.845              2.166
 Vibration     7          0.651              1.797              1.890
 Vibration     8          0.658              1.777              1.793
 Vibration     9          0.663              1.760              1.721
 Vibration    10          0.668              1.746              1.662
 Vibration    11          0.707              1.630              1.298
 Vibration    12          0.716              1.607              1.240
 Vibration    13          0.735              1.555              1.122
 Vibration    14          0.756              1.497              1.010
 Vibration    15          0.805              1.370              0.808
 Vibration    16          0.823              1.326              0.750
 Vibration    17          0.870              1.217              0.622

 Optimization completed.
    -- Stationary point found.
 Normal termination of Gaussian 16 at Mon May 29 00:02:18 2023.
