 Gaussian 16, Revision A.03,
 Gaussian 16:  ES64L-G16RevA.03 25-Dec-2016

 -----------------------------
 # opt freq b3lyp/6-31g(2df,p)
 -----------------------------

 -------------------
 Title Card Required
 -------------------
 Symbolic Z-matrix:
 Charge =  0 Multiplicity = 1

 SCF Done:  E(RB3LYP) =  -630.259708205     A.U. after   11 cycles
 SCF Done:  E(RB3LYP) =  -630.268969465     A.U. after   10 cycles
 SCF Done:  E(RB3LYP) =  -630.270277014     A.U. after    9 cycles
 SCF Done:  E(RB3LYP) =  -630.270429235     A.U. after    9 cycles
 SCF Done:  E(RB3LYP) =  -630.270446808     A.U. after    8 cycles
 SCF Done:  E(RB3LYP) =  -630.270453002     A.U. after    7 cycles
 SCF Done:  E(RB3LYP) =  -630.270453655     A.U. after    6 cycles
 SCF Done:  E(RB3LYP) =  -630.270453784     A.U. after    5 cycles
 SCF Done:  E(RB3LYP) =  -630.270453830     A.U. after    5 cycles
 SCF Done:  E(RB3LYP) =  -630.270453837     A.U. after    5 cycles
 Optimization completed.
    -- Stationary point found.
 Normal termination of Gaussian 16 at Mon May 22 14:15:57 2023.

 ----------------------------------------------------------------------
 #N Geom=AllCheck Guess=TCheck SCRF=Check GenChk RB3LYP/6-31G(2df,p) Fr
 eq
 ----------------------------------------------------------------------

 Structure from the checkpoint file:  "CCCCCCqCrCCCCCCqCrCC.chk"
 -------------------
 Title Card Required
 -------------------
 Charge =  0 Multiplicity = 1

                         Standard orientation:
 ---------------------------------------------------------------------
 Center     Atomic      Atomic             Coordinates (Angstroms)
 Number     Number       Type             X           Y           Z
 ---------------------------------------------------------------------
      1          6           0       -8.442800   -1.114172   -0.037761
      2          6           0       -7.270109   -0.247401   -0.504467
      3          6           0       -5.938881   -0.626588    0.153245
      4          6           0       -4.758657    0.235408   -0.309595
      5          6           0       -3.433348   -0.152700    0.357609
      6          6           0       -2.189808    0.606646   -0.145533
      7          6           0       -2.271122    2.108643    0.166469
      8          6           0       -0.912496   -0.032357    0.434410
      9          6           0        0.408161    0.484647   -0.149485
     10          6           0        1.634649   -0.264217    0.385206
     11          6           0        2.961721    0.245295   -0.189405
     12          6           0        4.180830   -0.510220    0.353869
     13          6           0        5.535637   -0.115759   -0.265730
     14          6           0        5.905642    1.342442    0.044108
     15          6           0        6.631935   -1.095714    0.196752
     16          6           0        7.982995   -0.940397   -0.509184
     17          1           0       -9.378118   -0.819724   -0.524278
     18          1           0       -8.590361   -1.030809    1.044898
     19          1           0       -8.268290   -2.171904   -0.264949
     20          1           0       -7.488834    0.808359   -0.295612
     21          1           0       -7.169023   -0.324036   -1.595353
     22          1           0       -5.720933   -1.683991   -0.053365
     23          1           0       -6.039596   -0.549003    1.245136
     24          1           0       -4.989979    1.289064   -0.109249
     25          1           0       -4.653913    0.149602   -1.400628
     26          1           0       -3.269313   -1.228057    0.203501
     27          1           0       -3.520448   -0.015697    1.445584
     28          1           0       -2.150869    0.489422   -1.239706
     29          1           0       -2.310820    2.277527    1.249941
     30          1           0       -3.161565    2.566155   -0.273693
     31          1           0       -1.404617    2.650687   -0.222480
     32          1           0       -0.962640   -1.117680    0.271293
     33          1           0       -0.906439    0.106734    1.525584
     34          1           0        0.524811    1.554205    0.065445
     35          1           0        0.379395    0.396347   -1.244943
     36          1           0        1.530726   -1.336072    0.165490
     37          1           0        1.659353   -0.183558    1.481122
     38          1           0        3.052885    1.317106    0.026653
     39          1           0        2.939348    0.157179   -1.285021
     40          1           0        4.024022   -1.585302    0.190254
     41          1           0        4.233976   -0.377660    1.444596
     42          1           0        5.442713   -0.216823   -1.358398
     43          1           0        6.006030    1.495286    1.126044
     44          1           0        5.146306    2.039787   -0.320611
     45          1           0        6.853885    1.626929   -0.420656
     46          1           0        6.269133   -2.119717    0.039869
     47          1           0        6.770964   -0.988754    1.281871
     48          1           0        7.872915   -1.028120   -1.596243
     49          1           0        8.683933   -1.716063   -0.184495
     50          1           0        8.449264    0.027238   -0.300645
 ---------------------------------------------------------------------

 SCF Done:  E(RB3LYP) =  -630.270453838     A.U. after    1 cycles

 The electronic state is 1-A.
 Alpha  occ. eigenvalues --  -10.17879 -10.17872 -10.17409 -10.17249 -10.17174
 Alpha  occ. eigenvalues --  -10.17173 -10.17121 -10.17120 -10.17111 -10.16994
 Alpha  occ. eigenvalues --  -10.16987 -10.16981 -10.16849 -10.16826 -10.16588
 Alpha  occ. eigenvalues --  -10.16572  -0.81611  -0.80937  -0.79072  -0.77396
 Alpha  occ. eigenvalues --   -0.74178  -0.72436  -0.70417  -0.67115  -0.66495
 Alpha  occ. eigenvalues --   -0.63515  -0.60701  -0.58130  -0.57069  -0.56685
 Alpha  occ. eigenvalues --   -0.54922  -0.54747  -0.47583  -0.47050  -0.45773
 Alpha  occ. eigenvalues --   -0.44835  -0.44418  -0.43202  -0.42372  -0.42270
 Alpha  occ. eigenvalues --   -0.41333  -0.40671  -0.40299  -0.38753  -0.38423
 Alpha  occ. eigenvalues --   -0.37755  -0.37504  -0.36866  -0.35854  -0.35692
 Alpha  occ. eigenvalues --   -0.34978  -0.34219  -0.33858  -0.33700  -0.32818
 Alpha  occ. eigenvalues --   -0.32409  -0.32099  -0.31713  -0.31460  -0.31279
 Alpha  occ. eigenvalues --   -0.31123  -0.30758  -0.30613  -0.30197  -0.28068
 Alpha virt. eigenvalues --    0.08499   0.08729   0.09657   0.10582   0.10843
 Alpha virt. eigenvalues --    0.11416   0.11812   0.12294   0.12477   0.13275
 Alpha virt. eigenvalues --    0.13552   0.14132   0.15033   0.15624   0.15832

 Mulliken charges:
               1
     1  C   -0.379001
     2  C   -0.163716
     3  C   -0.156002
     4  C   -0.192444
     5  C   -0.180899
     6  C    0.024093
     7  C   -0.389799
     8  C   -0.180334
     9  C   -0.195678
    10  C   -0.175561
    11  C   -0.195565
    12  C   -0.178675
    13  C    0.044851
    14  C   -0.389428
    15  C   -0.164655
    16  C   -0.391539
    17  H    0.109258
    18  H    0.112261
    19  H    0.112244
    20  H    0.092609
    21  H    0.092549
    22  H    0.089298
    23  H    0.089800
    24  H    0.094929
    25  H    0.088983
    26  H    0.085934
    27  H    0.087311
    28  H    0.064556
    29  H    0.107809
    30  H    0.113269
    31  H    0.113374
    32  H    0.085978
    33  H    0.087320
    34  H    0.095014
    35  H    0.089028
    36  H    0.089809
    37  H    0.090724
    38  H    0.094957
    39  H    0.089079
    40  H    0.085759
    41  H    0.087189
    42  H    0.064199
    43  H    0.108073
    44  H    0.113833
    45  H    0.112038
    46  H    0.088904
    47  H    0.089724
    48  H    0.111382
    49  H    0.110070
    50  H    0.117090
 Sum of Mulliken charges =  -0.00000

 Dipole moment (field-independent basis, Debye):
    X=             -0.0105    Y=             -0.0268    Z=             -0.0833  Tot=              0.0882
 Quadrupole moment (field-independent basis, Debye-Ang):
   XX=           -110.1464   YY=           -108.0776   ZZ=           -107.0141
   XY=             -0.6155   XZ=              0.3079   YZ=              0.9261

  Exact polarizability: 235.239   0.478 159.567  -0.532  -0.951 148.770
 Approx polarizability: 243.422  -0.376 238.386   0.166   1.249 238.911

                      1                      2                      3
                      A                      A                      A
 Frequencies --     15.6842                21.5554                30.7817
 Red. masses --      3.1905                 2.5327                 2.7624
 Frc consts  --      0.0005                 0.0007                 0.0015
 IR Inten    --      0.0014                 0.0002                 0.0010

                      4                      5                      6
                      A                      A                      A
 Frequencies --     44.8052                48.6465                69.1606
 Red. masses --      2.7166                 2.0187                 2.0409
 Frc consts  --      0.0032                 0.0028                 0.0058
 IR Inten    --      0.0012                 0.0012                 0.0036

                      7                      8                      9
                      A                      A                      A
 Frequencies --     77.3220                79.8548                94.9132
 Red. masses --      2.4246                 2.6833                 2.0502
 Frc consts  --      0.0085                 0.0101                 0.0109
 IR Inten    --      0.0058                 0.0034                 0.0143

                     10                     11                     12
                      A                      A                      A
 Frequencies --    125.6529               134.5383               140.4416
 Red. masses --      1.7694                 2.1504                 2.4880
 Frc consts  --      0.0165                 0.0229                 0.0289
 IR Inten    --      0.0094                 0.0119                 0.0060

                     13                     14                     15
                      A                      A                      A
 Frequencies --    144.6142               148.2500               157.4852
 Red. masses --      2.2085                 2.0145                 3.4516
 Frc consts  --      0.0272                 0.0261                 0.0504
 IR Inten    --      0.0020                 0.0076                 0.0167

                     16                     17                     18
                      A                      A                      A
 Frequencies --    211.1009               221.3656               239.1709
 Red. masses --      1.1072                 2.7268                 1.2371
 Frc consts  --      0.0291                 0.0787                 0.0417
 IR Inten    --      0.0645                 0.0064                 0.0064

                     19                     20                     21
                      A                      A                      A
 Frequencies --    248.1870               257.0933               262.1248
 Red. masses --      1.1372                 1.3458                 2.2627
 Frc consts  --      0.0413                 0.0524                 0.0916
 IR Inten    --      0.0009                 0.0072                 0.0154

                     22                     23                     24
                      A                      A                      A
 Frequencies --    291.6594               338.5277               354.1843
 Red. masses --      2.6614                 2.8635                 2.6325
 Frc consts  --      0.1334                 0.1933                 0.1946
 IR Inten    --      0.0307                 0.1296                 0.0098

                     25                     26                     27
                      A                      A                      A
 Frequencies --    381.8849               412.5539               425.0719
 Red. masses --      2.4955                 2.0298                 2.2875
 Frc consts  --      0.2144                 0.2036                 0.2435
 IR Inten    --      0.0142                 0.1164                 0.0498

                     28                     29                     30
                      A                      A                      A
 Frequencies --    450.8172               489.2334               518.1023
 Red. masses --      2.7243                 2.4343                 2.9084
 Frc consts  --      0.3262                 0.3433                 0.4600
 IR Inten    --      0.0935                 0.0378                 0.5301

                     31                     32                     33
                      A                      A                      A
 Frequencies --    537.5947               731.0675               732.7568
 Red. masses --      2.5330                 1.0720                 1.0729
 Frc consts  --      0.4313                 0.3376                 0.3394
 IR Inten    --      0.3828                 0.1118                 6.0198

                     34                     35                     36
                      A                      A                      A
 Frequencies --    747.9634               756.7735               773.6353
 Red. masses --      1.1402                 1.1600                 1.3345
 Frc consts  --      0.3758                 0.3914                 0.4706
 IR Inten    --      0.5286                 0.0904                 2.2383

                     37                     38                     39
                      A                      A                      A
 Frequencies --    803.4660               828.6200               835.3926
 Red. masses --      1.5800                 1.5501                 1.5482
 Frc consts  --      0.6009                 0.6271                 0.6366
 IR Inten    --      0.2997                 0.7445                 0.1735

                     40                     41                     42
                      A                      A                      A
 Frequencies --    862.0098               900.5082               911.7030
 Red. masses --      1.6450                 1.9685                 2.1454
 Frc consts  --      0.7202                 0.9405                 1.0507
 IR Inten    --      0.8238                 2.1399                 0.8399

                     43                     44                     45
                      A                      A                      A
 Frequencies --    916.6573               938.1372               953.6329
 Red. masses --      1.3142                 1.5622                 1.4978
 Frc consts  --      0.6506                 0.8101                 0.8025
 IR Inten    --      1.9442                 1.1988                 0.1527

                     46                     47                     48
                      A                      A                      A
 Frequencies --    970.9711               993.5248              1001.2993
 Red. masses --      1.2146                 1.5910                 2.7633
 Frc consts  --      0.6747                 0.9253                 1.6323
 IR Inten    --      2.9124                 1.4056                 2.9655

                     49                     50                     51
                      A                      A                      A
 Frequencies --   1010.9915              1016.2231              1034.5531
 Red. masses --      1.9811                 2.3852                 1.9490
 Frc consts  --      1.1930                 1.4513                 1.2290
 IR Inten    --      0.2773                 0.5275                 0.0301

                     52                     53                     54
                      A                      A                      A
 Frequencies --   1041.1045              1048.7263              1056.3872
 Red. masses --      2.6173                 1.7627                 2.1962
 Frc consts  --      1.6714                 1.1422                 1.4440
 IR Inten    --      0.7008                 0.2597                 0.1412

                     55                     56                     57
                      A                      A                      A
 Frequencies --   1067.1351              1071.8739              1073.6122
 Red. masses --      2.3243                 2.2448                 1.3248
 Frc consts  --      1.5595                 1.5195                 0.8997
 IR Inten    --      0.2660                 0.0757                 0.1336

                     58                     59                     60
                      A                      A                      A
 Frequencies --   1074.2160              1098.6831              1138.9402
 Red. masses --      2.3429                 2.2162                 2.2078
 Frc consts  --      1.5929                 1.5762                 1.6874
 IR Inten    --      0.0543                 0.3322                 0.6427

                     61                     62                     63
                      A                      A                      A
 Frequencies --   1160.5344              1176.5178              1177.9781
 Red. masses --      2.8393                 1.8521                 1.8042
 Frc consts  --      2.2531                 1.5105                 1.4751
 IR Inten    --      0.1049                 1.5194                16.8343

                     64                     65                     66
                      A                      A                      A
 Frequencies --   1201.1691              1212.3670              1232.5718
 Red. masses --      2.0664                 1.7733                 1.4063
 Frc consts  --      1.7566                 1.5357                 1.2588
 IR Inten    --      0.1111                 2.8243                 1.1993

                     67                     68                     69
                      A                      A                      A
 Frequencies --   1242.6907              1256.5730              1271.6061
 Red. masses --      1.3687                 1.3375                 1.3524
 Frc consts  --      1.2454                 1.2443                 1.2884
 IR Inten    --      0.9539                 0.0715                 1.6280

                     70                     71                     72
                      A                      A                      A
 Frequencies --   1290.3676              1295.5014              1303.1850
 Red. masses --      1.2642                 1.2719                 1.2169
 Frc consts  --      1.2402                 1.2577                 1.2177
 IR Inten    --      1.4259                 0.1136                 1.6377

                     73                     74                     75
                      A                      A                      A
 Frequencies --   1312.9933              1319.4211              1330.5184
 Red. masses --      1.2577                 1.1454                 1.0653
 Frc consts  --      1.2775                 1.1749                 1.1111
 IR Inten    --      0.4554                 0.1538                 0.2836

                     76                     77                     78
                      A                      A                      A
 Frequencies --   1331.2751              1333.2399              1335.4103
 Red. masses --      1.0853                 1.1185                 1.1979
 Frc consts  --      1.1333                 1.1714                 1.2586
 IR Inten    --      0.8792                 0.2999                 0.7711

                     79                     80                     81
                      A                      A                      A
 Frequencies --   1336.9165              1357.2584              1375.8047
 Red. masses --      1.2277                 1.3471                 1.4056
 Frc consts  --      1.2928                 1.4621                 1.5676
 IR Inten    --      1.3416                 0.5114                 3.0804

                     82                     83                     84
                      A                      A                      A
 Frequencies --   1380.6213              1380.9467              1385.1690
 Red. masses --      1.3163                 1.3265                 1.4995
 Frc consts  --      1.4783                 1.4905                 1.6951
 IR Inten    --      3.1730                 1.2402                 0.3110

                     85                     86                     87
                      A                      A                      A
 Frequencies --   1392.3320              1396.7715              1399.1406
 Red. masses --      1.5191                 1.5279                 1.5613
 Frc consts  --      1.7351                 1.7563                 1.8008
 IR Inten    --      0.1742                 0.2871                 0.2839

                     88                     89                     90
                      A                      A                      A
 Frequencies --   1402.2211              1412.0107              1413.1630
 Red. masses --      1.5198                 1.2946                 1.2480
 Frc consts  --      1.7607                 1.5208                 1.4684
 IR Inten    --      0.3057                 1.6880                 0.3524

                     91                     92                     93
                      A                      A                      A
 Frequencies --   1414.5570              1414.7230              1474.0109
 Red. masses --      1.2403                 1.3014                 1.0778
 Frc consts  --      1.4622                 1.5346                 1.3797
 IR Inten    --      0.8438                11.6253                 0.5865

                     94                     95                     96
                      A                      A                      A
 Frequencies --   1475.9518              1483.2446              1483.5154
 Red. masses --      1.0769                 1.0720                 1.0713
 Frc consts  --      1.3822                 1.3896                 1.3891
 IR Inten    --      0.0346                 0.2332                 0.0922

                     97                     98                     99
                      A                      A                      A
 Frequencies --   1484.1171              1487.1602              1491.0965
 Red. masses --      1.0786                 1.0737                 1.0726
 Frc consts  --      1.3998                 1.3991                 1.4051
 IR Inten    --      0.0249                 0.2662                 0.0427

                    100                    101                    102
                      A                      A                      A
 Frequencies --   1496.2503              1498.2946              1498.8270
 Red. masses --      1.0545                 1.0600                 1.0634
 Frc consts  --      1.3910                 1.4020                 1.4075
 IR Inten    --      3.9130                 1.5678                 0.1224

                    103                    104                    105
                      A                      A                      A
 Frequencies --   1499.2262              1499.8218              1503.4290
 Red. masses --      1.0745                 1.0404                 1.0760
 Frc consts  --      1.4229                 1.3789                 1.4330
 IR Inten    --      0.8656                 4.9665                 1.0771

                    106                    107                    108
                      A                      A                      A
 Frequencies --   1507.5973              1509.2551              1512.7694
 Red. masses --      1.0675                 1.0572                 1.0830
 Frc consts  --      1.4295                 1.4188                 1.4603
 IR Inten    --      6.1384                 0.8099                 1.0648

                    109                    110                    111
                      A                      A                      A
 Frequencies --   1514.3471              1514.8658              2979.8453
 Red. masses --      1.0706                 1.0728                 1.0804
 Frc consts  --      1.4465                 1.4505                 5.6522
 IR Inten    --      1.8080                11.3390                 7.8817

                    112                    113                    114
                      A                      A                      A
 Frequencies --   2980.5868              2993.0733              2994.9229
 Red. masses --      1.0801                 1.0589                 1.0593
 Frc consts  --      5.6535                 5.5892                 5.5980
 IR Inten    --      6.7092                 0.1258                 2.9600

                    115                    116                    117
                      A                      A                      A
 Frequencies --   2998.2434              2999.5011              3000.3320
 Red. masses --      1.0596                 1.0587                 1.0596
 Frc consts  --      5.6119                 5.6118                 5.6197
 IR Inten    --      3.0246                 2.2525                 5.9154

                    118                    119                    120
                      A                      A                      A
 Frequencies --   3005.1288              3007.5292              3009.0299
 Red. masses --      1.0623                 1.0619                 1.0614
 Frc consts  --      5.6522                 5.6591                 5.6620
 IR Inten    --      0.8869                15.4120                 4.1107

                    121                    122                    123
                      A                      A                      A
 Frequencies --   3013.5842              3015.5805              3023.2424
 Red. masses --      1.0676                 1.0640                 1.0917
 Frc consts  --      5.7125                 5.7008                 5.8790
 IR Inten    --     86.2359               128.2131                 7.2108

                    124                    125                    126
                      A                      A                      A
 Frequencies --   3024.7272              3025.5461              3027.5879
 Red. masses --      1.0941                 1.0883                 1.0388
 Frc consts  --      5.8976                 5.8696                 5.6102
 IR Inten    --      9.5830                27.3273                40.0426

                    127                    128                    129
                      A                      A                      A
 Frequencies --   3027.8623              3028.2134              3029.1956
 Red. masses --      1.0690                 1.0442                 1.0663
 Frc consts  --      5.7745                 5.6414                 5.7648
 IR Inten    --     11.6105                 7.3565                 9.2291

                    130                    131                    132
                      A                      A                      A
 Frequencies --   3031.3188              3033.0693              3042.8125
 Red. masses --      1.0445                 1.0959                 1.0992
 Frc consts  --      5.6549                 5.9400                 5.9962
 IR Inten    --     28.8262                13.1223                25.6235

                    133                    134                    135
                      A                      A                      A
 Frequencies --   3045.6513              3054.3637              3063.6972
 Red. masses --      1.1026                 1.1023                 1.1037
 Frc consts  --      6.0260                 6.0588                 6.1038
 IR Inten    --      1.9024                 3.9101                38.5251

                    136                    137                    138
                      A                      A                      A
 Frequencies --   3067.9541              3093.7286              3094.9926
 Red. masses --      1.1033                 1.1020                 1.1004
 Frc consts  --      6.1182                 6.2144                 6.2105
 IR Inten    --    205.2002                60.9208                34.1993

                    139                    140                    141
                      A                      A                      A
 Frequencies --   3095.8552              3096.8964              3098.9455
 Red. masses --      1.0963                 1.0951                 1.1009
 Frc consts  --      6.1907                 6.1878                 6.2293
 IR Inten    --     35.5155                32.5362                42.4911

                    142                    143                    144
                      A                      A                      A
 Frequencies --   3104.2068              3111.0869              3112.1661
 Red. masses --      1.1001                 1.1003                 1.1000
 Frc consts  --      6.2458                 6.2746                 6.2772
 IR Inten    --     53.5125                49.9876                27.8479

 - Thermochemistry -
 -------------------
 Temperature   298.150 Kelvin.  Pressure   1.00000 Atm.
 Atom     1 has atomic number  6 and mass  12.00000

 Molecular mass:   226.26605 amu.
 Principal axes and moments of inertia in atomic units:
                           1         2         3
     Eigenvalues --   868.59430********************
           X            1.00000   0.00092  -0.00040
           Y           -0.00093   0.99998  -0.00585
           Z            0.00039   0.00585   0.99998
 This molecule is an asymmetric top.
 Rotational symmetry number  1.
 Warning -- assumption of classical behavior for rotation
           may cause significant error
 Rotational temperatures (Kelvin)      0.09972     0.00409     0.00399
 Rotational constants (GHZ):           2.07777     0.08522     0.08316
 Zero-point vibrational energy    1237373.9 (Joules/Mol)
                                  295.73945 (Kcal/Mol)
 Warning -- explicit consideration of  31 degrees of freedom as
           vibrations may cause significant error
 Vibrational temperatures:     22.57    31.01    44.29    64.46    69.99
          (Kelvin)             99.51   111.25   114.89   136.56   180.79
                              193.57   202.06   208.07   213.30   226.59
                              303.73   318.50   344.11   357.09   369.90
                              377.14   419.63   487.07   509.59   549.45
                              593.57   611.58   648.63   703.90   745.43
                              773.48  1051.84  1054.27  1076.15  1088.83
                             1113.09  1156.01  1192.20  1201.94  1240.24
                             1295.63  1311.74  1318.87  1349.77  1372.07
                             1397.01  1429.46  1440.65  1454.59  1462.12
                             1488.49  1497.92  1508.88  1519.91  1535.37
                             1542.19  1544.69  1545.56  1580.76  1638.68
                             1669.75  1692.75  1694.85  1728.21  1744.33
                             1773.40  1787.95  1807.93  1829.56  1856.55
                             1863.94  1874.99  1889.10  1898.35  1914.32
                             1915.41  1918.23  1921.36  1923.52  1952.79
                             1979.48  1986.41  1986.87  1992.95  2003.26
                             2009.64  2013.05  2017.48  2031.57  2033.23
                             2035.23  2035.47  2120.77  2123.57  2134.06
                             2134.45  2135.31  2139.69  2145.36  2152.77
                             2155.71  2156.48  2157.05  2157.91  2163.10
                             2169.10  2171.48  2176.54  2178.81  2179.55
                             4287.33  4288.40  4306.36  4309.03  4313.80
                             4315.61  4316.81  4323.71  4327.16  4329.32
                             4335.88  4338.75  4349.77  4351.91  4353.09
                             4356.02  4356.42  4356.92  4358.34  4361.39
                             4363.91  4377.93  4382.01  4394.55  4407.98
                             4414.10  4451.19  4453.00  4454.25  4455.74
                             4458.69  4466.26  4476.16  4477.71

 Zero-point correction=                           0.471291 (Hartree/Particle)
 Thermal correction to Energy=                    0.493416
 Thermal correction to Enthalpy=                  0.494360
 Thermal correction to Gibbs Free Energy=         0.416848
 Sum of electronic and zero-point Energies=           -629.799163
 Sum of electronic and thermal Energies=              -629.777038
 Sum of electronic and thermal Enthalpies=            -629.776094
 Sum of electronic and thermal Free Energies=         -629.853606

                     E (Thermal)             CV                S
                      KCal/Mol        Cal/Mol-Kelvin    Cal/Mol-Kelvin
 Total                  309.623             79.439            163.138
 Electronic               0.000              0.000              0.000
 Translational            0.889              2.981             42.152
 Rotational               0.889              2.981             34.345
 Vibrational            307.846             73.478             86.641
 Vibration     1          0.593              1.986              7.117
 Vibration     2          0.593              1.985              6.485
 Vibration     3          0.594              1.984              5.778
 Vibration     4          0.595              1.979              5.034
 Vibration     5          0.595              1.978              4.872
 Vibration     6          0.598              1.969              4.177
 Vibration     7          0.599              1.964              3.958
 Vibration     8          0.600              1.963              3.894
 Vibration     9          0.603              1.953              3.556
 Vibration    10          0.611              1.927              3.012
 Vibration    11          0.613              1.919              2.880
 Vibration    12          0.615              1.913              2.798
 Vibration    13          0.616              1.908              2.742
 Vibration    14          0.618              1.905              2.695
 Vibration    15          0.621              1.894              2.580
 Vibration    16          0.643              1.824              2.034
 Vibration    17          0.648              1.809              1.948
 Vibration    18          0.657              1.781              1.809
 Vibration    19          0.662              1.766              1.743
 Vibration    20          0.667              1.751              1.681
 Vibration    21          0.669              1.742              1.648
 Vibration    22          0.687              1.689              1.464
 Vibration    23          0.719              1.599              1.219
 Vibration    24          0.730              1.567              1.148
 Vibration    25          0.751              1.509              1.032
 Vibration    26          0.776              1.443              0.918
 Vibration    27          0.787              1.416              0.875
 Vibration    28          0.810              1.359              0.793
 Vibration    29          0.845              1.274              0.686
 Vibration    30          0.873              1.210              0.614
 Vibration    31          0.893              1.167              0.570

 Optimization completed.
    -- Stationary point found.
 Normal termination of Gaussian 16 at Mon May 22 18:46:46 2023.
