 Gaussian 16, Revision A.03,
 Gaussian 16:  ES64L-G16RevA.03 25-Dec-2016

 -----------------------------
 # opt freq b3lyp/6-31g(2df,p)
 -----------------------------

 -------------------
 Title Card Required
 -------------------
 Symbolic Z-matrix:
 Charge =  0 Multiplicity = 1

 SCF Done:  E(RB3LYP) =  -315.737023243     A.U. after   11 cycles
 SCF Done:  E(RB3LYP) =  -315.739801535     A.U. after    9 cycles
 SCF Done:  E(RB3LYP) =  -315.740117458     A.U. after    8 cycles
 SCF Done:  E(RB3LYP) =  -315.740129632     A.U. after    6 cycles
 Optimization completed.
    -- Stationary point found.
 Normal termination of Gaussian 16 at Sun May 28 01:01:36 2023.

 ----------------------------------------------------------------------
 #N Geom=AllCheck Guess=TCheck SCRF=Check GenChk RB3LYP/6-31G(2df,p) Fr
 eq
 ----------------------------------------------------------------------

 Structure from the checkpoint file:  "CCCCCCCC.chk"
 -------------------
 Title Card Required
 -------------------
 Charge =  0 Multiplicity = 1

                         Standard orientation:
 ---------------------------------------------------------------------
 Center     Atomic      Atomic             Coordinates (Angstroms)
 Number     Number       Type             X           Y           Z
 ---------------------------------------------------------------------
      1          6           0        4.494125   -0.256305   -0.000000
      2          6           0        3.187094    0.541615    0.000000
      3          6           0        1.937573   -0.346045   -0.000000
      4          6           0        0.624500    0.444237    0.000000
      5          6           0       -0.624500   -0.444236    0.000000
      6          6           0       -1.937573    0.346045    0.000000
      7          6           0       -3.187094   -0.541615    0.000000
      8          6           0       -4.494125    0.256304   -0.000000
      9          1           0        5.367265    0.403898    0.000000
     10          1           0        4.564209   -0.900786   -0.883477
     11          1           0        4.564209   -0.900788    0.883475
     12          1           0        3.161052    1.202220   -0.876806
     13          1           0        3.161052    1.202220    0.876807
     14          1           0        1.963680   -1.007832    0.877190
     15          1           0        1.963680   -1.007832   -0.877191
     16          1           0        0.599134    1.105751   -0.877269
     17          1           0        0.599135    1.105751    0.877269
     18          1           0       -0.599134   -1.105751    0.877269
     19          1           0       -0.599134   -1.105751   -0.877268
     20          1           0       -1.963680    1.007832   -0.877190
     21          1           0       -1.963680    1.007832    0.877190
     22          1           0       -3.161052   -1.202220    0.876806
     23          1           0       -3.161051   -1.202220   -0.876806
     24          1           0       -4.564210    0.900787    0.883475
     25          1           0       -5.367265   -0.403899   -0.000001
     26          1           0       -4.564209    0.900787   -0.883476
 ---------------------------------------------------------------------

 SCF Done:  E(RB3LYP) =  -315.740129632     A.U. after    1 cycles

 The electronic state is 1-A.
 Alpha  occ. eigenvalues --  -10.17409 -10.17409 -10.17182 -10.17171 -10.17158
 Alpha  occ. eigenvalues --  -10.17148 -10.16848 -10.16848  -0.80428  -0.78092
 Alpha  occ. eigenvalues --   -0.74324  -0.69392  -0.63809  -0.58790  -0.57054
 Alpha  occ. eigenvalues --   -0.56669  -0.47689  -0.45587  -0.43026  -0.42404
 Alpha  occ. eigenvalues --   -0.41182  -0.40638  -0.38675  -0.37849  -0.35182
 Alpha  occ. eigenvalues --   -0.34867  -0.34650  -0.32720  -0.32551  -0.31732
 Alpha  occ. eigenvalues --   -0.31621  -0.31499  -0.29536
 Alpha virt. eigenvalues --    0.09038   0.09812   0.11283   0.11655   0.12586
 Alpha virt. eigenvalues --    0.14310   0.14453   0.15217   0.16996   0.17965
 Alpha virt. eigenvalues --    0.18049   0.19328   0.19451   0.19635   0.19884

 Mulliken charges:
               1
     1  C   -0.378860
     2  C   -0.162638
     3  C   -0.157788
     4  C   -0.178205
     5  C   -0.178205
     6  C   -0.157788
     7  C   -0.162638
     8  C   -0.378860
     9  H    0.109253
    10  H    0.112208
    11  H    0.112208
    12  H    0.092623
    13  H    0.092623
    14  H    0.089387
    15  H    0.089387
    16  H    0.089901
    17  H    0.089901
    18  H    0.089901
    19  H    0.089901
    20  H    0.089387
    21  H    0.089387
    22  H    0.092623
    23  H    0.092623
    24  H    0.112208
    25  H    0.109253
    26  H    0.112208
 Sum of Mulliken charges =  -0.00000

 Dipole moment (field-independent basis, Debye):
    X=              0.0000    Y=              0.0000    Z=              0.0000  Tot=              0.0000
 Quadrupole moment (field-independent basis, Debye-Ang):
   XX=            -56.1599   YY=            -55.0526   ZZ=            -53.5573
   XY=              0.4773   XZ=             -0.0000   YZ=             -0.0000

  Exact polarizability: 113.839  -0.322  80.522  -0.000  -0.000  77.668
 Approx polarizability: 120.243   0.366 118.717  -0.000  -0.000 120.314

                      1                      2                      3
                      A                      A                      A
 Frequencies --     47.4630                69.6861                76.7814
 Red. masses --      2.9532                 1.5058                 3.1665
 Frc consts  --      0.0039                 0.0043                 0.0110
 IR Inten    --      0.0072                 0.0017                 0.0051

                      4                      5                      6
                      A                      A                      A
 Frequencies --    111.0452               138.2237               161.7951
 Red. masses --      2.3645                 1.6681                 2.0455
 Frc consts  --      0.0172                 0.0188                 0.0315
 IR Inten    --      0.0000                 0.0000                 0.0019

                      7                      8                      9
                      A                      A                      A
 Frequencies --    192.4475               245.7762               248.9188
 Red. masses --      2.8535                 1.1060                 1.1326
 Frc consts  --      0.0623                 0.0394                 0.0413
 IR Inten    --      0.0000                 0.0024                 0.0000

                     10                     11                     12
                      A                      A                      A
 Frequencies --    273.3596               334.6897               467.5184
 Red. masses --      3.8846                 2.6302                 3.1985
 Frc consts  --      0.1710                 0.1736                 0.4119
 IR Inten    --      0.0000                 0.0538                 0.1295

                     13                     14                     15
                      A                      A                      A
 Frequencies --    467.6243               730.7555               733.5724
 Red. masses --      2.6254                 1.0586                 1.0752
 Frc consts  --      0.3382                 0.3331                 0.3409
 IR Inten    --      0.0000                 5.3478                 0.0000

                     16                     17                     18
                      A                      A                      A
 Frequencies --    753.3425               803.3577               877.6761
 Red. masses --      1.1125                 1.1620                 1.1890
 Frc consts  --      0.3720                 0.4418                 0.5396
 IR Inten    --      1.1483                 0.0000                 0.7018

                     19                     20                     21
                      A                      A                      A
 Frequencies --    889.5813               906.0289               959.9539
 Red. masses --      1.9437                 1.9481                 1.1707
 Frc consts  --      0.9063                 0.9422                 0.6356
 IR Inten    --      2.4001                 0.0000                 0.0000

                     22                     23                     24
                      A                      A                      A
 Frequencies --   1003.5345              1014.5287              1033.4933
 Red. masses --      3.0601                 3.8746                 1.0915
 Frc consts  --      1.8157                 2.3496                 0.6869
 IR Inten    --      0.0000                 0.3239                 0.1958

                     25                     26                     27
                      A                      A                      A
 Frequencies --   1054.8577              1067.5513              1070.7712
 Red. masses --      2.8367                 2.4012                 2.1357
 Frc consts  --      1.8597                 1.6124                 1.4427
 IR Inten    --      0.0000                 0.1110                 0.0000

                     28                     29                     30
                      A                      A                      A
 Frequencies --   1099.0424              1154.2063              1209.3969
 Red. masses --      1.7984                 2.7731                 1.9163
 Frc consts  --      1.2799                 2.1766                 1.6514
 IR Inten    --      2.8803                 0.0000                 0.0000

                     31                     32                     33
                      A                      A                      A
 Frequencies --   1236.7930              1249.7581              1280.4127
 Red. masses --      1.5329                 1.3104                 1.3238
 Frc consts  --      1.3815                 1.2059                 1.2787
 IR Inten    --      0.0135                 8.6076                 0.0000

                     34                     35                     36
                      A                      A                      A
 Frequencies --   1303.2051              1316.9614              1324.9030
 Red. masses --      1.3184                 1.2016                 1.0247
 Frc consts  --      1.3192                 1.2279                 1.0598
 IR Inten    --      0.0000                 0.2944                 0.0000

                     37                     38                     39
                      A                      A                      A
 Frequencies --   1335.9653              1336.7230              1351.1263
 Red. masses --      1.0701                 1.1251                 1.3720
 Frc consts  --      1.1253                 1.1845                 1.4757
 IR Inten    --      0.4296                 0.0000                 3.5730

                     40                     41                     42
                      A                      A                      A
 Frequencies --   1386.5415              1399.8226              1401.4105
 Red. masses --      1.4685                 1.6203                 1.5831
 Frc consts  --      1.6634                 1.8707                 1.8318
 IR Inten    --      0.0000                 0.0000                 2.1978

                     43                     44                     45
                      A                      A                      A
 Frequencies --   1412.5714              1413.3300              1481.2702
 Red. masses --      1.2409                 1.2695                 1.0725
 Frc consts  --      1.4589                 1.4941                 1.3864
 IR Inten    --      1.0043                 0.0000                 0.2654

                     46                     47                     48
                      A                      A                      A
 Frequencies --   1482.0131              1484.9388              1489.4329
 Red. masses --      1.0729                 1.0664                 1.0668
 Frc consts  --      1.3884                 1.3854                 1.3943
 IR Inten    --      0.0000                 0.0000                 0.6623

                     49                     50                     51
                      A                      A                      A
 Frequencies --   1497.1701              1499.7715              1499.7879
 Red. masses --      1.0697                 1.0403                 1.0403
 Frc consts  --      1.4127                 1.3787                 1.3787
 IR Inten    --      0.0000                 0.0000                 9.7401

                     52                     53                     54
                      A                      A                      A
 Frequencies --   1504.9918              1511.6504              1516.0484
 Red. masses --      1.0772                 1.0863                 1.0952
 Frc consts  --      1.4375                 1.4625                 1.4831
 IR Inten    --      1.1004                 0.0000                 4.2712

                     55                     56                     57
                      A                      A                      A
 Frequencies --   2997.8089              2999.2399              3001.2624
 Red. masses --      1.0573                 1.0574                 1.0581
 Frc consts  --      5.5984                 5.6042                 5.6157
 IR Inten    --      1.2754                 0.0000                 0.0000

                     58                     59                     60
                      A                      A                      A
 Frequencies --   3007.8592              3014.8720              3017.7721
 Red. masses --      1.0591                 1.0597                 1.0594
 Frc consts  --      5.6452                 5.6748                 5.6841
 IR Inten    --      6.2596                 0.0000               154.6852

                     61                     62                     63
                      A                      A                      A
 Frequencies --   3018.7160              3022.1388              3027.6677
 Red. masses --      1.0977                 1.0994                 1.0357
 Frc consts  --      5.8937                 5.9159                 5.5938
 IR Inten    --      0.0001                 0.1083                83.9127

                     64                     65                     66
                      A                      A                      A
 Frequencies --   3027.7623              3031.0599              3043.0002
 Red. masses --      1.0355                 1.1018                 1.1039
 Frc consts  --      5.5932                 5.9641                 6.0224
 IR Inten    --      0.0005                 0.0000                 1.1742

                     67                     68                     69
                      A                      A                      A
 Frequencies --   3054.1969              3063.7662              3094.0500
 Red. masses --      1.1049                 1.1051                 1.1021
 Frc consts  --      6.0727                 6.1118                 6.2160
 IR Inten    --      0.0000               132.4142                 0.0000

                     70                     71                     72
                      A                      A                      A
 Frequencies --   3094.2323              3098.9409              3098.9623
 Red. masses --      1.1021                 1.1010                 1.1010
 Frc consts  --      6.2167                 6.2296                 6.2295
 IR Inten    --    122.6834                79.7943                 0.0044

 - Thermochemistry -
 -------------------
 Temperature   298.150 Kelvin.  Pressure   1.00000 Atm.
 Atom     1 has atomic number  6 and mass  12.00000

 Molecular mass:   114.14085 amu.
 Principal axes and moments of inertia in atomic units:
                           1         2         3
     Eigenvalues --   168.278703713.010043792.36784
           X            1.00000  -0.00217  -0.00000
           Y            0.00217   1.00000   0.00000
           Z            0.00000  -0.00000   1.00000
 This molecule is an asymmetric top.
 Rotational symmetry number  1.
 Rotational temperatures (Kelvin)      0.51471     0.02333     0.02284
 Rotational constants (GHZ):          10.72472     0.48606     0.47589
 Zero-point vibrational energy     643751.7 (Joules/Mol)
                                  153.86036 (Kcal/Mol)
 Warning -- explicit consideration of  13 degrees of freedom as
           vibrations may cause significant error
 Vibrational temperatures:     68.29   100.26   110.47   159.77   198.87
          (Kelvin)            232.79   276.89   353.62   358.14   393.30
                              481.54   672.65   672.81  1051.39  1055.45
                             1083.89  1155.85  1262.78  1279.91  1303.57
                             1381.16  1443.86  1459.68  1486.97  1517.71
                             1535.97  1540.60  1581.28  1660.65  1740.05
                             1779.47  1798.12  1842.23  1875.02  1894.81
                             1906.24  1922.16  1923.25  1943.97  1994.92
                             2014.03  2016.32  2032.38  2033.47  2131.22
                             2132.29  2136.50  2142.96  2154.09  2157.84
                             2157.86  2165.35  2174.93  2181.26  4313.18
                             4315.24  4318.15  4327.64  4337.73  4341.90
                             4343.26  4348.18  4356.14  4356.27  4361.02
                             4378.20  4394.31  4408.08  4451.65  4451.91
                             4458.68  4458.72

 Zero-point correction=                           0.245192 (Hartree/Particle)
 Thermal correction to Energy=                    0.256344
 Thermal correction to Enthalpy=                  0.257289
 Thermal correction to Gibbs Free Energy=         0.208041
 Sum of electronic and zero-point Energies=           -315.494938
 Sum of electronic and thermal Energies=              -315.483785
 Sum of electronic and thermal Enthalpies=            -315.482841
 Sum of electronic and thermal Free Energies=         -315.532089

                     E (Thermal)             CV                S
                      KCal/Mol        Cal/Mol-Kelvin    Cal/Mol-Kelvin
 Total                  160.859             39.189            103.651
 Electronic               0.000              0.000              0.000
 Translational            0.889              2.981             40.112
 Rotational               0.889              2.981             29.251
 Vibrational            159.081             33.228             34.288
 Vibration     1          0.595              1.979              4.920
 Vibration     2          0.598              1.969              4.162
 Vibration     3          0.599              1.965              3.972
 Vibration     4          0.607              1.940              3.251
 Vibration     5          0.614              1.915              2.828
 Vibration     6          0.622              1.889              2.529
 Vibration     7          0.634              1.850              2.204
 Vibration     8          0.660              1.770              1.761
 Vibration     9          0.662              1.765              1.738
 Vibration    10          0.676              1.722              1.575
 Vibration    11          0.716              1.606              1.237
 Vibration    12          0.825              1.322              0.745
 Vibration    13          0.825              1.322              0.744

 Optimization completed.
    -- Stationary point found.
 Normal termination of Gaussian 16 at Sun May 28 01:31:08 2023.
