 Gaussian 16, Revision A.03,
 Gaussian 16:  ES64L-G16RevA.03 25-Dec-2016

 -----------------------------
 # opt freq b3lyp/6-31g(2df,p)
 -----------------------------

 -------------------
 Title Card Required
 -------------------
 Symbolic Z-matrix:
 Charge =  0 Multiplicity = 1

 SCF Done:  E(RB3LYP) =  -352.570263087     A.U. after   12 cycles
 SCF Done:  E(RB3LYP) =  -352.578903936     A.U. after   10 cycles
 SCF Done:  E(RB3LYP) =  -352.581068800     A.U. after   10 cycles
 SCF Done:  E(RB3LYP) =  -352.583355908     A.U. after   10 cycles
 SCF Done:  E(RB3LYP) =  -352.585130429     A.U. after   13 cycles
 SCF Done:  E(RB3LYP) =  -352.587472669     A.U. after   10 cycles
 SCF Done:  E(RB3LYP) =  -352.588294675     A.U. after    9 cycles
 SCF Done:  E(RB3LYP) =  -352.588569241     A.U. after    9 cycles
 SCF Done:  E(RB3LYP) =  -352.588595545     A.U. after    8 cycles
 SCF Done:  E(RB3LYP) =  -352.588604033     A.U. after    8 cycles
 SCF Done:  E(RB3LYP) =  -352.588604724     A.U. after    6 cycles
 SCF Done:  E(RB3LYP) =  -352.588604790     A.U. after    5 cycles
 SCF Done:  E(RB3LYP) =  -352.588604793     A.U. after    5 cycles
 Optimization completed.
    -- Stationary point found.
 Normal termination of Gaussian 16 at Sun May 28 08:12:41 2023.

 ----------------------------------------------------------------------
 #N Geom=AllCheck Guess=TCheck SCRF=Check GenChk RB3LYP/6-31G(2df,p) Fr
 eq
 ----------------------------------------------------------------------

 Structure from the checkpoint file:  "CCCC1CC2CC1C2.chk"
 -------------------
 Title Card Required
 -------------------
 Charge =  0 Multiplicity = 1

                         Standard orientation:
 ---------------------------------------------------------------------
 Center     Atomic      Atomic             Coordinates (Angstroms)
 Number     Number       Type             X           Y           Z
 ---------------------------------------------------------------------
      1          6           0        3.720795   -0.125726    0.256727
      2          6           0        2.355256   -0.375341   -0.389757
      3          6           0        1.263097    0.566229    0.133186
      4          6           0       -0.102065    0.377813   -0.534823
      5          6           0       -1.207682    1.387236   -0.061616
      6          6           0       -2.304317    0.390517    0.362101
      7          6           0       -2.264289   -0.645638   -0.798367
      8          6           0       -0.851407   -0.940577   -0.214721
      9          6           0       -1.490330   -0.654290    1.176904
     10          1           0        4.481549   -0.807544   -0.136467
     11          1           0        3.676748   -0.267265    1.342502
     12          1           0        4.064395    0.898517    0.072858
     13          1           0        2.057596   -1.417330   -0.218404
     14          1           0        2.438930   -0.260145   -1.478842
     15          1           0        1.586931    1.605314   -0.020617
     16          1           0        1.167955    0.443520    1.220723
     17          1           0        0.039520    0.456690   -1.620292
     18          1           0       -1.535743    2.058292   -0.861155
     19          1           0       -0.866977    2.005930    0.775546
     20          1           0       -3.241972    0.806385    0.733138
     21          1           0       -2.329194   -0.274091   -1.826348
     22          1           0       -2.963564   -1.472424   -0.651622
     23          1           0       -0.332804   -1.876149   -0.426809
     24          1           0       -0.851723   -0.295415    1.989308
     25          1           0       -2.105992   -1.485625    1.528678
 ---------------------------------------------------------------------

 SCF Done:  E(RB3LYP) =  -352.588604793     A.U. after    1 cycles

 The electronic state is 1-A.
 Alpha  occ. eigenvalues --  -10.18302 -10.18163 -10.17738 -10.17449 -10.17428
 Alpha  occ. eigenvalues --  -10.17404 -10.17102 -10.17066 -10.16872  -0.88062
 Alpha  occ. eigenvalues --   -0.78455  -0.72565  -0.68865  -0.65390  -0.64024
 Alpha  occ. eigenvalues --   -0.58145  -0.53886  -0.52498  -0.49469  -0.46832
 Alpha  occ. eigenvalues --   -0.44733  -0.43827  -0.40304  -0.38856  -0.38162
 Alpha  occ. eigenvalues --   -0.36203  -0.35471  -0.33900  -0.33507  -0.32839
 Alpha  occ. eigenvalues --   -0.31142  -0.30055  -0.29592  -0.29180  -0.29094
 Alpha virt. eigenvalues --    0.09081   0.10140   0.11552   0.12424   0.12954
 Alpha virt. eigenvalues --    0.14021   0.14747   0.15787   0.16317   0.16868
 Alpha virt. eigenvalues --    0.17055   0.17930   0.18616   0.19548   0.19972

 Mulliken charges:
               1
     1  C   -0.379377
     2  C   -0.167698
     3  C   -0.197227
     4  C    0.051732
     5  C   -0.245183
     6  C   -0.004894
     7  C   -0.224870
     8  C   -0.017302
     9  C   -0.221551
    10  H    0.109126
    11  H    0.112516
    12  H    0.112128
    13  H    0.097340
    14  H    0.092292
    15  H    0.088867
    16  H    0.090717
    17  H    0.060483
    18  H    0.090301
    19  H    0.090883
    20  H    0.053846
    21  H    0.082739
    22  H    0.090887
    23  H    0.055534
    24  H    0.086540
    25  H    0.092171
 Sum of Mulliken charges =  -0.00000

 Dipole moment (field-independent basis, Debye):
    X=             -0.0320    Y=             -0.0506    Z=             -0.0470  Tot=              0.0761
 Quadrupole moment (field-independent basis, Debye-Ang):
   XX=            -58.7262   YY=            -57.8661   ZZ=            -57.9016
   XY=              0.2453   XZ=             -0.2842   YZ=             -0.3256

  Exact polarizability: 107.719   0.948  86.280   0.416  -0.385  84.189
 Approx polarizability: 131.735   0.997 129.356   0.152  -0.587 130.695

                      1                      2                      3
                      A                      A                      A
 Frequencies --     77.6493                80.4146               131.5503
 Red. masses --      1.6724                 2.7966                 2.9576
 Frc consts  --      0.0059                 0.0107                 0.0302
 IR Inten    --      0.0037                 0.0016                 0.0108

                      4                      5                      6
                      A                      A                      A
 Frequencies --    220.1254               250.5175               300.8027
 Red. masses --      2.0322                 1.1841                 2.7175
 Frc consts  --      0.0580                 0.0438                 0.1449
 IR Inten    --      0.0216                 0.0013                 0.0259

                      7                      8                      9
                      A                      A                      A
 Frequencies --    350.5440               417.4316               501.7555
 Red. masses --      3.0922                 1.8697                 1.8550
 Frc consts  --      0.2239                 0.1920                 0.2752
 IR Inten    --      0.3049                 0.0938                 0.0543

                     10                     11                     12
                      A                      A                      A
 Frequencies --    527.9830               645.6053               740.5262
 Red. masses --      2.2178                 3.2810                 1.1814
 Frc consts  --      0.3643                 0.8057                 0.3817
 IR Inten    --      0.5343                 0.1240                 2.0287

                     13                     14                     15
                      A                      A                      A
 Frequencies --    795.4841               833.9057               839.2373
 Red. masses --      2.1385                 2.3613                 3.1941
 Frc consts  --      0.7973                 0.9675                 1.3255
 IR Inten    --      1.1788                 0.2556                 2.0528

                     16                     17                     18
                      A                      A                      A
 Frequencies --    850.9759               873.7398               882.0678
 Red. masses --      2.0132                 2.0480                 1.5433
 Frc consts  --      0.8590                 0.9212                 0.7075
 IR Inten    --      0.6447                 0.5794                 0.7174

                     19                     20                     21
                      A                      A                      A
 Frequencies --    902.2628               945.2642               949.5375
 Red. masses --      2.0568                 1.9259                 1.3469
 Frc consts  --      0.9865                 1.0139                 0.7155
 IR Inten    --      1.3677                 0.5354                 0.1020

                     22                     23                     24
                      A                      A                      A
 Frequencies --    973.8622              1003.4338              1027.6901
 Red. masses --      1.8941                 1.6416                 1.9046
 Frc consts  --      1.0584                 0.9738                 1.1852
 IR Inten    --      0.3546                 0.3968                 0.1494

                     25                     26                     27
                      A                      A                      A
 Frequencies --   1043.4857              1048.0034              1073.3531
 Red. masses --      1.9206                 1.8222                 1.4493
 Frc consts  --      1.2321                 1.1792                 0.9838
 IR Inten    --      0.2508                 0.1186                 1.1024

                     28                     29                     30
                      A                      A                      A
 Frequencies --   1083.0075              1088.8753              1119.0623
 Red. masses --      1.1181                 1.7216                 1.3656
 Frc consts  --      0.7727                 1.2027                 1.0076
 IR Inten    --      0.2086                 0.4538                 1.3693

                     31                     32                     33
                      A                      A                      A
 Frequencies --   1131.5879              1166.3167              1192.4589
 Red. masses --      1.7507                 1.7636                 1.6527
 Frc consts  --      1.3208                 1.4135                 1.3846
 IR Inten    --      0.7886                 0.5023                 0.2811

                     34                     35                     36
                      A                      A                      A
 Frequencies --   1225.1323              1243.4208              1245.2184
 Red. masses --      1.4341                 1.6185                 1.4884
 Frc consts  --      1.2683                 1.4743                 1.3597
 IR Inten    --      0.1242                 0.7577                 1.5360

                     37                     38                     39
                      A                      A                      A
 Frequencies --   1260.6398              1281.0563              1288.0796
 Red. masses --      1.5037                 1.5109                 1.3230
 Frc consts  --      1.4080                 1.4609                 1.2933
 IR Inten    --      2.7843                 0.7551                 1.2619

                     40                     41                     42
                      A                      A                      A
 Frequencies --   1295.1867              1324.5349              1333.7143
 Red. masses --      1.5464                 1.2535                 1.4244
 Frc consts  --      1.5284                 1.2957                 1.4928
 IR Inten    --      1.0235                 2.6342                 1.9848

                     43                     44                     45
                      A                      A                      A
 Frequencies --   1341.8182              1381.8223              1399.4586
 Red. masses --      1.3467                 1.3928                 1.5643
 Frc consts  --      1.4286                 1.5669                 1.8051
 IR Inten    --      2.3417                 2.1623                 2.3953

                     46                     47                     48
                      A                      A                      A
 Frequencies --   1412.4547              1480.7739              1488.4914
 Red. masses --      1.2391                 1.0788                 1.0843
 Frc consts  --      1.4565                 1.3938                 1.4154
 IR Inten    --      0.4765                 0.2505                 1.4867

                     49                     50                     51
                      A                      A                      A
 Frequencies --   1493.9967              1496.4393              1499.7257
 Red. masses --      1.0690                 1.0922                 1.0407
 Frc consts  --      1.4058                 1.4411                 1.3791
 IR Inten    --      1.3636                 0.8914                 4.8090

                     52                     53                     54
                      A                      A                      A
 Frequencies --   1510.1461              1525.8493              3003.0313
 Red. masses --      1.0822                 1.1224                 1.0590
 Frc consts  --      1.4541                 1.5396                 5.6268
 IR Inten    --      2.5871                 1.1660                 8.7897

                     55                     56                     57
                      A                      A                      A
 Frequencies --   3011.1367              3016.6337              3027.2486
 Red. masses --      1.0807                 1.0678                 1.0364
 Frc consts  --      5.7734                 5.7254                 5.5962
 IR Inten    --      6.6578                34.1886                36.4071

                     58                     59                     60
                      A                      A                      A
 Frequencies --   3033.4696              3040.6994              3043.1425
 Red. masses --      1.0923                 1.0594                 1.0593
 Frc consts  --      5.9220                 5.7712                 5.7800
 IR Inten    --      8.9592                48.5019                53.0439

                     61                     62                     63
                      A                      A                      A
 Frequencies --   3053.2194              3056.6762              3084.7829
 Red. masses --      1.0623                 1.0974                 1.1052
 Frc consts  --      5.8346                 6.0408                 6.1965
 IR Inten    --     12.2507                54.6625                34.3191

                     64                     65                     66
                      A                      A                      A
 Frequencies --   3093.7754              3098.8910              3102.1324
 Red. masses --      1.1019                 1.1008                 1.0900
 Frc consts  --      6.2141                 6.2286                 6.1801
 IR Inten    --     57.3963                27.7598                90.9662

                     67                     68                     69
                      A                      A                      A
 Frequencies --   3104.8241              3107.3576              3114.0740
 Red. masses --      1.0982                 1.1052                 1.0999
 Frc consts  --      6.2372                 6.2873                 6.2841
 IR Inten    --     31.7694                15.3300                65.1634

 - Thermochemistry -
 -------------------
 Temperature   298.150 Kelvin.  Pressure   1.00000 Atm.
 Atom     1 has atomic number  6 and mass  12.00000

 Molecular mass:   124.12520 amu.
 Principal axes and moments of inertia in atomic units:
                           1         2         3
     Eigenvalues --   464.268602074.949272159.63402
           X            0.99999   0.00017   0.00334
           Y           -0.00018   1.00000   0.00237
           Z           -0.00334  -0.00237   0.99999
 This molecule is an asymmetric top.
 Rotational symmetry number  1.
 Warning -- assumption of classical behavior for rotation
           may cause significant error
 Rotational temperatures (Kelvin)      0.18656     0.04174     0.04011
 Rotational constants (GHZ):           3.88728     0.86978     0.83567
 Zero-point vibrational energy     607628.6 (Joules/Mol)
                                  145.22672 (Kcal/Mol)
 Warning -- explicit consideration of  10 degrees of freedom as
           vibrations may cause significant error
 Vibrational temperatures:    111.72   115.70   189.27   316.71   360.44
          (Kelvin)            432.79   504.35   600.59   721.91   759.65
                              928.88  1065.45  1144.52  1199.80  1207.48
                             1224.36  1257.12  1269.10  1298.15  1360.02
                             1366.17  1401.17  1443.72  1478.62  1501.34
                             1507.84  1544.32  1558.21  1566.65  1610.08
                             1628.10  1678.07  1715.68  1762.69  1789.01
                             1791.59  1813.78  1843.15  1853.26  1863.48
                             1905.71  1918.92  1930.58  1988.13  2013.51
                             2032.21  2130.50  2141.61  2149.53  2153.04
                             2157.77  2172.76  2195.36  4320.69  4332.35
                             4340.26  4355.54  4364.49  4374.89  4378.40
                             4392.90  4397.88  4438.31  4451.25  4458.61
                             4463.28  4467.15  4470.79  4480.46

 Zero-point correction=                           0.231434 (Hartree/Particle)
 Thermal correction to Energy=                    0.240297
 Thermal correction to Enthalpy=                  0.241241
 Thermal correction to Gibbs Free Energy=         0.197543
 Sum of electronic and zero-point Energies=           -352.357171
 Sum of electronic and thermal Energies=              -352.348308
 Sum of electronic and thermal Enthalpies=            -352.347364
 Sum of electronic and thermal Free Energies=         -352.391062

                     E (Thermal)             CV                S
                      KCal/Mol        Cal/Mol-Kelvin    Cal/Mol-Kelvin
 Total                  150.789             35.087             91.970
 Electronic               0.000              0.000              0.000
 Translational            0.889              2.981             40.362
 Rotational               0.889              2.981             29.121
 Vibrational            149.011             29.126             22.487
 Vibration     1          0.599              1.964              3.949
 Vibration     2          0.600              1.962              3.881
 Vibration     3          0.612              1.922              2.923
 Vibration     4          0.647              1.810              1.958
 Vibration     5          0.663              1.762              1.727
 Vibration     6          0.693              1.672              1.412
 Vibration     7          0.727              1.574              1.164
 Vibration     8          0.780              1.432              0.901
 Vibration     9          0.857              1.246              0.654
 Vibration    10          0.883              1.188              0.592

 Optimization completed.
    -- Stationary point found.
 Normal termination of Gaussian 16 at Sun May 28 08:56:05 2023.
