 Gaussian 16, Revision A.03,
 Gaussian 16:  ES64L-G16RevA.03 25-Dec-2016

 -----------------------------
 # opt freq b3lyp/6-31g(2df,p)
 -----------------------------

 -------------------
 Title Card Required
 -------------------
 Symbolic Z-matrix:
 Charge =  0 Multiplicity = 1

 SCF Done:  E(RB3LYP) =  -586.052389491     A.U. after   13 cycles
 SCF Done:  E(RB3LYP) =  -586.059884773     A.U. after   11 cycles
 SCF Done:  E(RB3LYP) =  -586.062278899     A.U. after   11 cycles
 SCF Done:  E(RB3LYP) =  -586.064345981     A.U. after   13 cycles
 SCF Done:  E(RB3LYP) =  -586.064737557     A.U. after   11 cycles
 SCF Done:  E(RB3LYP) =  -586.064821209     A.U. after    9 cycles
 SCF Done:  E(RB3LYP) =  -586.064832347     A.U. after    9 cycles
 SCF Done:  E(RB3LYP) =  -586.064846161     A.U. after    9 cycles
 SCF Done:  E(RB3LYP) =  -586.064893512     A.U. after   10 cycles
 SCF Done:  E(RB3LYP) =  -586.064915763     A.U. after   12 cycles
 SCF Done:  E(RB3LYP) =  -586.065508344     A.U. after   11 cycles
 SCF Done:  E(RB3LYP) =  -586.066376456     A.U. after   11 cycles
 SCF Done:  E(RB3LYP) =  -586.067519681     A.U. after   13 cycles
 SCF Done:  E(RB3LYP) =  -586.067919045     A.U. after   11 cycles
 SCF Done:  E(RB3LYP) =  -586.068118233     A.U. after   11 cycles
 SCF Done:  E(RB3LYP) =  -586.068132663     A.U. after    9 cycles
 SCF Done:  E(RB3LYP) =  -586.068134306     A.U. after    8 cycles
 SCF Done:  E(RB3LYP) =  -586.068134475     A.U. after    6 cycles
 SCF Done:  E(RB3LYP) =  -586.068134483     A.U. after    6 cycles
 Optimization completed.
    -- Stationary point found.
 Normal termination of Gaussian 16 at Sun May 28 13:12:06 2023.

 ----------------------------------------------------------------------
 #N Geom=AllCheck Guess=TCheck SCRF=Check GenChk RB3LYP/6-31G(2df,p) Fr
 eq
 ----------------------------------------------------------------------

 Structure from the checkpoint file:  "CCCCCCCCdCC1dCCCCdC1.chk"
 -------------------
 Title Card Required
 -------------------
 Charge =  0 Multiplicity = 1

                         Standard orientation:
 ---------------------------------------------------------------------
 Center     Atomic      Atomic             Coordinates (Angstroms)
 Number     Number       Type             X           Y           Z
 ---------------------------------------------------------------------
      1          6           0        7.777074    0.196910    0.484879
      2          6           0        6.358345    0.756419    0.620462
      3          6           0        5.286799   -0.161662    0.022532
      4          6           0        3.863632    0.391023    0.153427
      5          6           0        2.792857   -0.528230   -0.444016
      6          6           0        1.370601    0.026246   -0.312710
      7          6           0        0.298514   -0.903439   -0.912241
      8          6           0       -1.087010   -0.333384   -0.829073
      9          6           0       -2.103190   -0.888509   -0.157465
     10          6           0       -3.467799   -0.379635   -0.026497
     11          6           0       -4.361193   -1.009030    0.766003
     12          6           0       -5.784545   -0.532786    0.890439
     13          6           0       -5.896144    0.988840    0.703266
     14          6           0       -5.039613    1.457381   -0.446993
     15          6           0       -3.909259    0.817979   -0.765292
     16          1           0        8.518720    0.873884    0.920592
     17          1           0        8.043544    0.044111   -0.567030
     18          1           0        7.871313   -0.770248    0.991418
     19          1           0        6.304020    1.739676    0.134336
     20          1           0        6.133148    0.931749    1.680922
     21          1           0        5.340930   -1.146014    0.508760
     22          1           0        5.512375   -0.338296   -1.038713
     23          1           0        3.810032    1.374943   -0.333436
     24          1           0        3.638891    0.567962    1.214558
     25          1           0        2.845757   -1.511927    0.043321
     26          1           0        3.016788   -0.705874   -1.505343
     27          1           0        1.314027    1.007182   -0.804341
     28          1           0        1.137958    0.203891    0.745178
     29          1           0        0.330459   -1.876494   -0.406552
     30          1           0        0.555377   -1.092259   -1.965633
     31          1           0       -1.234078    0.613154   -1.346692
     32          1           0       -1.917522   -1.826424    0.366651
     33          1           0       -4.071955   -1.914714    1.292695
     34          1           0       -6.207570   -0.827513    1.856526
     35          1           0       -6.396361   -1.041075    0.126141
     36          1           0       -5.568843    1.501692    1.621967
     37          1           0       -6.941934    1.275900    0.552839
     38          1           0       -5.336799    2.352586   -0.985557
     39          1           0       -3.292695    1.175369   -1.582932
 ---------------------------------------------------------------------

 SCF Done:  E(RB3LYP) =  -586.068134483     A.U. after    1 cycles

 The electronic state is 1-A.
 Alpha  occ. eigenvalues --  -10.18273 -10.18256 -10.18251 -10.17882 -10.17856
 Alpha  occ. eigenvalues --  -10.17584 -10.17571 -10.17529 -10.17476 -10.17468
 Alpha  occ. eigenvalues --  -10.17440 -10.17376 -10.17292 -10.17250 -10.16892
 Alpha  occ. eigenvalues --   -0.83956  -0.80853  -0.79188  -0.76847  -0.74114
 Alpha  occ. eigenvalues --   -0.73564  -0.70675  -0.66532  -0.62408  -0.60487
 Alpha  occ. eigenvalues --   -0.57937  -0.57193  -0.56994  -0.54498  -0.49750
 Alpha  occ. eigenvalues --   -0.48287  -0.47411  -0.45182  -0.44284  -0.43554
 Alpha  occ. eigenvalues --   -0.42448  -0.41977  -0.40915  -0.40355  -0.39553
 Alpha  occ. eigenvalues --   -0.39381  -0.37589  -0.36623  -0.36410  -0.36164
 Alpha  occ. eigenvalues --   -0.34369  -0.33741  -0.33196  -0.32827  -0.32365
 Alpha  occ. eigenvalues --   -0.31959  -0.31883  -0.31616  -0.30903  -0.30029
 Alpha  occ. eigenvalues --   -0.24625  -0.19583
 Alpha virt. eigenvalues --   -0.02501   0.02427   0.09067   0.10085   0.10270
 Alpha virt. eigenvalues --    0.10759   0.11736   0.12066   0.12396   0.13041
 Alpha virt. eigenvalues --    0.14201   0.14497   0.15176   0.15254   0.15810

 Mulliken charges:
               1
     1  C   -0.379003
     2  C   -0.162938
     3  C   -0.157753
     4  C   -0.179540
     5  C   -0.178178
     6  C   -0.170082
     7  C   -0.245789
     8  C   -0.093474
     9  C   -0.130436
    10  C    0.328121
    11  C   -0.182446
    12  C   -0.253464
    13  C   -0.261265
    14  C   -0.077394
    15  C   -0.142778
    16  H    0.109575
    17  H    0.112303
    18  H    0.112371
    19  H    0.092839
    20  H    0.093058
    21  H    0.089768
    22  H    0.089576
    23  H    0.090540
    24  H    0.091500
    25  H    0.091604
    26  H    0.090579
    27  H    0.092175
    28  H    0.098672
    29  H    0.093855
    30  H    0.099560
    31  H    0.080912
    32  H    0.073811
    33  H    0.083091
    34  H    0.101478
    35  H    0.110416
    36  H    0.110573
    37  H    0.100766
    38  H    0.088696
    39  H    0.088704
 Sum of Mulliken charges =  -0.00000

 Dipole moment (field-independent basis, Debye):
    X=             -0.1401    Y=              0.1354    Z=              0.1640  Tot=              0.2547
 Quadrupole moment (field-independent basis, Debye-Ang):
   XX=            -90.1855   YY=            -93.5338   ZZ=            -93.9861
   XY=             -1.1125   XZ=             -2.5405   YZ=             -2.6545

  Exact polarizability: 250.298  -4.346 140.999 -23.874 -12.271 130.574
 Approx polarizability: 292.644   2.499 223.110 -46.632 -28.410 214.038

                      1                      2                      3
                      A                      A                      A
 Frequencies --     21.2057                30.4235                35.1227
 Red. masses --      3.7428                 3.0850                 1.9629
 Frc consts  --      0.0010                 0.0017                 0.0014
 IR Inten    --      0.0253                 0.0394                 0.0040

                      4                      5                      6
                      A                      A                      A
 Frequencies --     62.5118                77.0840                93.7764
 Red. masses --      2.8017                 3.5566                 1.9538
 Frc consts  --      0.0065                 0.0125                 0.0101
 IR Inten    --      0.0973                 0.2666                 0.0075

                      7                      8                      9
                      A                      A                      A
 Frequencies --    111.5538               132.7143               150.3927
 Red. masses --      2.6242                 2.5999                 1.8657
 Frc consts  --      0.0192                 0.0270                 0.0249
 IR Inten    --      0.0461                 0.2678                 0.0441

                     10                     11                     12
                      A                      A                      A
 Frequencies --    164.6285               175.6455               209.7752
 Red. masses --      2.7023                 2.1355                 2.8660
 Frc consts  --      0.0432                 0.0388                 0.0743
 IR Inten    --      0.4258                 0.2088                 0.5202

                     13                     14                     15
                      A                      A                      A
 Frequencies --    219.4575               247.3109               294.6615
 Red. masses --      3.0041                 1.1209                 2.1633
 Frc consts  --      0.0852                 0.0404                 0.1107
 IR Inten    --      0.2613                 0.0008                 0.3651

                     16                     17                     18
                      A                      A                      A
 Frequencies --    313.1362               353.2984               382.8492
 Red. masses --      2.5613                 3.7398                 2.9945
 Frc consts  --      0.1480                 0.2750                 0.2586
 IR Inten    --      0.7936                 1.0229                 0.9610

                     19                     20                     21
                      A                      A                      A
 Frequencies --    405.6179               467.3820               484.7000
 Red. masses --      3.2235                 3.2835                 2.7727
 Frc consts  --      0.3125                 0.4226                 0.3838
 IR Inten    --      0.6116                 0.6206                 1.1042

                     22                     23                     24
                      A                      A                      A
 Frequencies --    538.1066               588.1900               603.3829
 Red. masses --      2.8977                 4.6489                 2.1275
 Frc consts  --      0.4944                 0.9476                 0.4564
 IR Inten    --      2.7204                 0.2903                 7.3791

                     25                     26                     27
                      A                      A                      A
 Frequencies --    710.5285               731.1782               737.7199
 Red. masses --      1.9182                 1.0617                 1.1039
 Frc consts  --      0.5706                 0.3344                 0.3540
 IR Inten    --      4.0797                 4.3999                 0.6259

                     28                     29                     30
                      A                      A                      A
 Frequencies --    766.9983               772.2753               807.3539
 Red. masses --      1.1902                 1.8273                 1.4925
 Frc consts  --      0.4125                 0.6421                 0.5732
 IR Inten    --      2.2322                14.6255                 6.2117

                     31                     32                     33
                      A                      A                      A
 Frequencies --    815.7131               840.3079               876.7030
 Red. masses --      1.5721                 1.5588                 2.1118
 Frc consts  --      0.6163                 0.6485                 0.9563
 IR Inten    --      3.6829                 2.3434                 2.3776

                     34                     35                     36
                      A                      A                      A
 Frequencies --    885.7753               898.5897               924.6440
 Red. masses --      2.1367                 1.9296                 1.3341
 Frc consts  --      0.9877                 0.9180                 0.6720
 IR Inten    --      0.8979                 2.0353                 1.4946

                     37                     38                     39
                      A                      A                      A
 Frequencies --    956.3318               980.6546               989.3573
 Red. masses --      2.3915                 1.5532                 3.3900
 Frc consts  --      1.2887                 0.8801                 1.9550
 IR Inten    --      6.1647                 0.1752                 0.6319

                     40                     41                     42
                      A                      A                      A
 Frequencies --    996.9273              1002.5244              1015.4666
 Red. masses --      2.2008                 1.6168                 1.1302
 Frc consts  --      1.2887                 0.9574                 0.6867
 IR Inten    --      1.0998                 5.5217                20.0201

                     43                     44                     45
                      A                      A                      A
 Frequencies --   1026.7276              1039.4836              1042.6392
 Red. masses --      2.1090                 2.8733                 2.0937
 Frc consts  --      1.3099                 1.8293                 1.3410
 IR Inten    --      0.2012                 4.0526                 3.9208

                     46                     47                     48
                      A                      A                      A
 Frequencies --   1062.2261              1064.2075              1071.8597
 Red. masses --      1.8659                 2.4724                 2.2130
 Frc consts  --      1.2405                 1.6498                 1.4980
 IR Inten    --      7.8801                 0.6871                 0.5104

                     49                     50                     51
                      A                      A                      A
 Frequencies --   1091.4389              1133.9334              1148.8178
 Red. masses --      1.5770                 2.2879                 1.9637
 Frc consts  --      1.1068                 1.7333                 1.5270
 IR Inten    --      1.8232                 0.6405                 1.2621

                     52                     53                     54
                      A                      A                      A
 Frequencies --   1182.8125              1192.1822              1213.1916
 Red. masses --      1.1536                 1.1518                 1.6950
 Frc consts  --      0.9509                 0.9645                 1.4698
 IR Inten    --      3.6984                 0.7355                 1.9255

                     55                     56                     57
                      A                      A                      A
 Frequencies --   1218.6343              1236.4570              1260.7497
 Red. masses --      1.7162                 1.2805                 1.4063
 Frc consts  --      1.5016                 1.1534                 1.3170
 IR Inten    --      0.0063                10.5291                 0.4683

                     58                     59                     60
                      A                      A                      A
 Frequencies --   1272.2985              1287.2503              1301.8669
 Red. masses --      1.2994                 1.3299                 1.2987
 Frc consts  --      1.2393                 1.2983                 1.2968
 IR Inten    --      6.4388                 0.5338                 0.3422

                     61                     62                     63
                      A                      A                      A
 Frequencies --   1320.5338              1321.9241              1329.1681
 Red. masses --      1.4236                 1.0804                 1.2110
 Frc consts  --      1.4626                 1.1123                 1.2605
 IR Inten    --      0.0939                 0.2883                 1.3338

                     64                     65                     66
                      A                      A                      A
 Frequencies --   1333.1109              1336.3801              1343.4459
 Red. masses --      1.1519                 1.1067                 1.3166
 Frc consts  --      1.2061                 1.1645                 1.4000
 IR Inten    --      0.2766                 0.3202                 7.6977

                     67                     68                     69
                      A                      A                      A
 Frequencies --   1354.3735              1362.3209              1379.3941
 Red. masses --      1.4440                 1.4198                 1.5139
 Frc consts  --      1.5606                 1.5525                 1.6972
 IR Inten    --      1.1777                 6.6515                 1.9478

                     70                     71                     72
                      A                      A                      A
 Frequencies --   1384.7918              1397.2543              1401.0893
 Red. masses --      1.5677                 1.5576                 1.6138
 Frc consts  --      1.7713                 1.7917                 1.8665
 IR Inten    --      3.3387                 0.8483                 0.7657

                     73                     74                     75
                      A                      A                      A
 Frequencies --   1413.4300              1439.3110              1467.3734
 Red. masses --      1.2568                 1.7847                 1.0852
 Frc consts  --      1.4793                 2.1783                 1.3767
 IR Inten    --      0.4446                 0.9403                 2.1624

                     76                     77                     78
                      A                      A                      A
 Frequencies --   1476.0852              1479.0185              1482.2795
 Red. masses --      1.0865                 1.1076                 1.0735
 Frc consts  --      1.3948                 1.4276                 1.3897
 IR Inten    --      2.1591                 1.5769                 0.0666

                     79                     80                     81
                      A                      A                      A
 Frequencies --   1483.4268              1489.1517              1498.8309
 Red. masses --      1.0711                 1.0749                 1.0813
 Frc consts  --      1.3888                 1.4044                 1.4313
 IR Inten    --      0.8435                 0.1175                 0.9761

                     82                     83                     84
                      A                      A                      A
 Frequencies --   1499.8031              1508.3328              1515.3200
 Red. masses --      1.0404                 1.0881                 1.0953
 Frc consts  --      1.3788                 1.4586                 1.4818
 IR Inten    --      4.9117                 0.0523                 3.5536

                     85                     86                     87
                      A                      A                      A
 Frequencies --   1642.5492              1697.9511              1718.2368
 Red. masses --      7.1176                 6.3807                 6.0758
 Frc consts  --     11.3142                10.8385                10.5687
 IR Inten    --      2.0105                 0.9135                 0.3079

                     88                     89                     90
                      A                      A                      A
 Frequencies --   2963.3440              2981.7799              2990.7245
 Red. masses --      1.0732                 1.0699                 1.0645
 Frc consts  --      5.5524                 5.6045                 5.6098
 IR Inten    --     33.4095                44.9905                25.0156

                     91                     92                     93
                      A                      A                      A
 Frequencies --   2998.5034              2999.4559              3005.5172
 Red. masses --      1.0576                 1.0577                 1.0590
 Frc consts  --      5.6024                 5.6065                 5.6364
 IR Inten    --      0.2231                 3.0138                 6.6922

                     94                     95                     96
                      A                      A                      A
 Frequencies --   3013.1638              3017.0419              3019.1861
 Red. masses --      1.0619                 1.0650                 1.0940
 Frc consts  --      5.6802                 5.7115                 5.8756
 IR Inten    --      0.5739               113.5429                13.2442

                     97                     98                     99
                      A                      A                      A
 Frequencies --   3025.8666              3027.7268              3037.3511
 Red. masses --      1.0979                 1.0357                 1.0971
 Frc consts  --      5.9228                 5.5939                 5.9632
 IR Inten    --      4.6239                43.8832                 7.2922

                    100                    101                    102
                      A                      A                      A
 Frequencies --   3044.9098              3056.7889              3062.7596
 Red. masses --      1.0995                 1.1041                 1.0881
 Frc consts  --      6.0063                 6.0785                 6.0138
 IR Inten    --      4.4722                16.2147                31.5969

                    103                    104                    105
                      A                      A                      A
 Frequencies --   3065.7764              3067.4563              3093.8072
 Red. masses --      1.0887                 1.1043                 1.1020
 Frc consts  --      6.0291                 6.1221                 6.2148
 IR Inten    --     39.8275               120.0470                60.3793

                    106                    107                    108
                      A                      A                      A
 Frequencies --   3099.1976              3120.3492              3139.2313
 Red. masses --      1.1009                 1.0881                 1.0865
 Frc consts  --      6.2304                 6.2418                 6.3088
 IR Inten    --     40.0789                11.4746                26.8790

                    109                    110                    111
                      A                      A                      A
 Frequencies --   3158.4598              3162.6982              3190.2186
 Red. masses --      1.0894                 1.0853                 1.0949
 Frc consts  --      6.4029                 6.3961                 6.5657
 IR Inten    --     23.7452                 3.3277                21.5271

 - Thermochemistry -
 -------------------
 Temperature   298.150 Kelvin.  Pressure   1.00000 Atm.
 Atom     1 has atomic number  6 and mass  12.00000

 Molecular mass:   204.18780 amu.
 Principal axes and moments of inertia in atomic units:
                           1         2         3
     Eigenvalues --   801.99041********************
           X            1.00000   0.00008  -0.00057
           Y           -0.00010   0.99931  -0.03713
           Z            0.00056   0.03713   0.99931
 This molecule is an asymmetric top.
 Rotational symmetry number  1.
 Warning -- assumption of classical behavior for rotation
           may cause significant error
 Rotational temperatures (Kelvin)      0.10800     0.00566     0.00560
 Rotational constants (GHZ):           2.25033     0.11792     0.11675
 Zero-point vibrational energy     927913.1 (Joules/Mol)
                                  221.77655 (Kcal/Mol)
 Warning -- explicit consideration of  24 degrees of freedom as
           vibrations may cause significant error
 Vibrational temperatures:     30.51    43.77    50.53    89.94   110.91
          (Kelvin)            134.92   160.50   190.95   216.38   236.86
                              252.71   301.82   315.75   355.83   423.95
                              450.53   508.32   550.83   583.59   672.46
                              697.38   774.22   846.27   868.13  1022.29
                             1052.00  1061.41  1103.54  1111.13  1161.60
                             1173.63  1209.02  1261.38  1274.43  1292.87
                             1330.36  1375.95  1410.94  1423.46  1434.36
                             1442.41  1461.03  1477.23  1495.59  1500.13
                             1528.31  1531.16  1542.17  1570.34  1631.48
                             1652.89  1701.80  1715.28  1745.51  1753.34
                             1778.99  1813.94  1830.55  1852.07  1873.10
                             1899.95  1901.95  1912.38  1918.05  1922.75
                             1932.92  1948.64  1960.08  1984.64  1992.41
                             2010.34  2015.86  2033.61  2070.85  2111.22
                             2123.76  2127.98  2132.67  2134.32  2142.56
                             2156.48  2157.88  2170.15  2180.21  2363.26
                             2442.97  2472.16  4263.59  4290.12  4302.99
                             4314.18  4315.55  4324.27  4335.27  4340.85
                             4343.94  4353.55  4356.22  4370.07  4380.95
                             4398.04  4406.63  4410.97  4413.39  4451.30
                             4459.05  4489.49  4516.65  4544.32  4550.42
                             4590.01

 Zero-point correction=                           0.353423 (Hartree/Particle)
 Thermal correction to Energy=                    0.370580
 Thermal correction to Enthalpy=                  0.371524
 Thermal correction to Gibbs Free Energy=         0.306006
 Sum of electronic and zero-point Energies=           -585.714711
 Sum of electronic and thermal Energies=              -585.697555
 Sum of electronic and thermal Enthalpies=            -585.696610
 Sum of electronic and thermal Free Energies=         -585.762129

                     E (Thermal)             CV                S
                      KCal/Mol        Cal/Mol-Kelvin    Cal/Mol-Kelvin
 Total                  232.542             63.327            137.895
 Electronic               0.000              0.000              0.000
 Translational            0.889              2.981             41.846
 Rotational               0.889              2.981             33.606
 Vibrational            230.765             57.366             62.443
 Vibration     1          0.593              1.985              6.518
 Vibration     2          0.594              1.984              5.802
 Vibration     3          0.594              1.982              5.517
 Vibration     4          0.597              1.972              4.376
 Vibration     5          0.599              1.964              3.964
 Vibration     6          0.603              1.954              3.580
 Vibration     7          0.607              1.940              3.242
 Vibration     8          0.613              1.921              2.906
 Vibration     9          0.618              1.902              2.667
 Vibration    10          0.623              1.886              2.496
 Vibration    11          0.628              1.872              2.374
 Vibration    12          0.642              1.826              2.046
 Vibration    13          0.647              1.811              1.964
 Vibration    14          0.661              1.767              1.750
 Vibration    15          0.689              1.684              1.447
 Vibration    16          0.701              1.649              1.346
 Vibration    17          0.729              1.568              1.151
 Vibration    18          0.752              1.507              1.028
 Vibration    19          0.771              1.458              0.942
 Vibration    20          0.825              1.322              0.745
 Vibration    21          0.841              1.284              0.698
 Vibration    22          0.893              1.166              0.569
 Vibration    23          0.945              1.057              0.470
 Vibration    24          0.962              1.025              0.444

 Optimization completed.
    -- Stationary point found.
 Normal termination of Gaussian 16 at Sun May 28 15:35:31 2023.
