 Gaussian 16, Revision A.03,
 Gaussian 16:  ES64L-G16RevA.03 25-Dec-2016

 -----------------------------
 # opt freq b3lyp/6-31g(2df,p)
 -----------------------------

 -------------------
 Title Card Required
 -------------------
 Symbolic Z-matrix:
 Charge =  0 Multiplicity = 1

 SCF Done:  E(RB3LYP) =  -1035.98330102     A.U. after   12 cycles
 SCF Done:  E(RB3LYP) =  -1035.99195824     A.U. after   10 cycles
 SCF Done:  E(RB3LYP) =  -1035.99324836     A.U. after   10 cycles
 SCF Done:  E(RB3LYP) =  -1035.99377638     A.U. after   10 cycles
 SCF Done:  E(RB3LYP) =  -1035.99468984     A.U. after   11 cycles
 SCF Done:  E(RB3LYP) =  -1035.99472152     A.U. after   12 cycles
 SCF Done:  E(RB3LYP) =  -1035.99589099     A.U. after   10 cycles
 SCF Done:  E(RB3LYP) =  -1035.99709790     A.U. after   10 cycles
 SCF Done:  E(RB3LYP) =  -1035.99755338     A.U. after   11 cycles
 SCF Done:  E(RB3LYP) =  -1035.99766215     A.U. after   10 cycles
 SCF Done:  E(RB3LYP) =  -1035.99985689     A.U. after   10 cycles
 SCF Done:  E(RB3LYP) =  -1036.00069769     A.U. after   11 cycles
 SCF Done:  E(RB3LYP) =  -1036.00090963     A.U. after   10 cycles
 SCF Done:  E(RB3LYP) =  -1036.00098121     A.U. after    9 cycles
 SCF Done:  E(RB3LYP) =  -1036.00098897     A.U. after    9 cycles
 SCF Done:  E(RB3LYP) =  -1036.00099025     A.U. after    8 cycles
 SCF Done:  E(RB3LYP) =  -1036.00099045     A.U. after    7 cycles
 SCF Done:  E(RB3LYP) =  -1036.00099057     A.U. after    7 cycles
 SCF Done:  E(RB3LYP) =  -1036.00099060     A.U. after    6 cycles
 Optimization completed.
    -- Stationary point found.
 Normal termination of Gaussian 16 at Mon May 29 15:01:03 2023.

 ----------------------------------------------------------------------
 #N Geom=AllCheck Guess=TCheck SCRF=Check GenChk RB3LYP/6-31G(2df,p) Fr
 eq
 ----------------------------------------------------------------------

 Structure from the checkpoint file:  "CCCCCNCCdCCCNCCqNrS.chk"
 -------------------
 Title Card Required
 -------------------
 Charge =  0 Multiplicity = 1

                         Standard orientation:
 ---------------------------------------------------------------------
 Center     Atomic      Atomic             Coordinates (Angstroms)
 Number     Number       Type             X           Y           Z
 ---------------------------------------------------------------------
      1          6           0       -8.898945    1.748000    0.034776
      2          6           0       -7.434335    1.711792   -0.409621
      3          6           0       -6.665366    0.507387    0.144368
      4          6           0       -5.200435    0.463657   -0.300891
      5          6           0       -4.434920   -0.733597    0.261711
      6          7           0       -3.058402   -0.757526   -0.220881
      7          6           0       -2.267041   -1.862709    0.316909
      8          6           0       -0.871668   -1.836487   -0.235202
      9          6           0        0.238501   -1.809588    0.498851
     10          6           0        1.639456   -1.784976   -0.040305
     11          6           0        2.408900   -0.522343    0.372614
     12          7           0        3.797181   -0.588479   -0.077006
     13          6           0        4.577958    0.601250    0.240975
     14          6           0        6.073417    0.352499   -0.023077
     15          7           0        6.415676   -0.088097   -1.367793
     16         16           0        7.065067    1.825179    0.471922
     17          1           0       -9.420877    2.618061   -0.375825
     18          1           0       -8.980549    1.795665    1.126518
     19          1           0       -9.435305    0.851580   -0.296141
     20          1           0       -6.932524    2.636567   -0.095008
     21          1           0       -7.383613    1.699101   -1.506394
     22          1           0       -7.168764   -0.417997   -0.169043
     23          1           0       -6.715193    0.520399    1.242218
     24          1           0       -4.698865    1.391190    0.011934
     25          1           0       -5.138894    0.436156   -1.395654
     26          1           0       -4.919555   -1.664338   -0.064336
     27          1           0       -4.500185   -0.726237    1.367845
     28          1           0       -2.601354    0.117443    0.020450
     29          1           0       -2.766112   -2.794759    0.011792
     30          1           0       -2.231814   -1.879284    1.422714
     31          1           0       -0.802983   -1.832006   -1.322593
     32          1           0        0.148843   -1.802166    1.586314
     33          1           0        1.615377   -1.858843   -1.135253
     34          1           0        2.204167   -2.653450    0.324152
     35          1           0        2.412571   -0.438742    1.467251
     36          1           0        1.874206    0.368645   -0.005449
     37          1           0        3.805975   -0.729159   -1.083030
     38          1           0        4.439806    0.831225    1.302391
     39          1           0        4.253232    1.498419   -0.322233
     40          1           0        6.413719   -0.426867    0.666005
     41          1           0        6.055730    0.557857   -2.065005
     42          1           0        6.006644   -1.001717   -1.544360
     43          1           0        6.350915    2.729792   -0.226905
 ---------------------------------------------------------------------

 SCF Done:  E(RB3LYP) =  -1036.00099060     A.U. after    1 cycles

 The electronic state is 1-A.
 Alpha  occ. eigenvalues --  -88.86319 -14.32068 -14.31996 -14.30893 -10.24495
 Alpha  occ. eigenvalues --  -10.21246 -10.21083 -10.20524 -10.20013 -10.18786
 Alpha  occ. eigenvalues --  -10.18404 -10.17977 -10.17784 -10.17695 -10.17619
 Alpha  occ. eigenvalues --  -10.17135  -7.92953  -5.89395  -5.89066  -5.88467
 Alpha  occ. eigenvalues --   -0.92051  -0.90028  -0.88608  -0.80416  -0.79386
 Alpha  occ. eigenvalues --   -0.76238  -0.74860  -0.72686  -0.68551  -0.66119
 Alpha  occ. eigenvalues --   -0.63411  -0.60425  -0.59564  -0.59410  -0.57500
 Alpha  occ. eigenvalues --   -0.55029  -0.50681  -0.48976  -0.48770  -0.47145
 Alpha  occ. eigenvalues --   -0.46608  -0.45899  -0.45088  -0.44606  -0.43359
 Alpha  occ. eigenvalues --   -0.43026  -0.41357  -0.40661  -0.39916  -0.38969
 Alpha  occ. eigenvalues --   -0.38588  -0.37623  -0.36965  -0.36684  -0.35826
 Alpha  occ. eigenvalues --   -0.35096  -0.34545  -0.34059  -0.33342  -0.32854
 Alpha  occ. eigenvalues --   -0.32637  -0.32040  -0.31258  -0.25310  -0.24725
 Alpha  occ. eigenvalues --   -0.23612  -0.22993  -0.22036
 Alpha virt. eigenvalues --    0.01774   0.03038   0.06464   0.07344   0.08819
 Alpha virt. eigenvalues --    0.09671   0.10075   0.10390   0.11233   0.11967
 Alpha virt. eigenvalues --    0.12217   0.12719   0.12821   0.13206   0.14208

 Mulliken charges:
               1
     1  C   -0.379626
     2  C   -0.163124
     3  C   -0.156640
     4  C   -0.195778
     5  C   -0.118157
     6  N   -0.298333
     7  C   -0.179004
     8  C   -0.059619
     9  C   -0.041857
    10  C   -0.255957
    11  C   -0.114559
    12  N   -0.306502
    13  C   -0.141811
    14  C    0.020760
    15  N   -0.494298
    16  S   -0.262763
    17  H    0.110636
    18  H    0.112689
    19  H    0.113208
    20  H    0.093097
    21  H    0.094988
    22  H    0.092558
    23  H    0.091444
    24  H    0.086425
    25  H    0.104799
    26  H    0.098765
    27  H    0.071660
    28  H    0.208488
    29  H    0.106360
    30  H    0.075908
    31  H    0.086153
    32  H    0.079970
    33  H    0.091521
    34  H    0.114902
    35  H    0.104946
    36  H    0.082237
    37  H    0.201962
    38  H    0.122189
    39  H    0.071188
    40  H    0.128038
    41  H    0.222989
    42  H    0.235121
    43  H    0.145025
 Sum of Mulliken charges =  -0.00000

 Dipole moment (field-independent basis, Debye):
    X=             -2.8874    Y=             -0.0511    Z=             -0.6086  Tot=              2.9513
 Quadrupole moment (field-independent basis, Debye-Ang):
   XX=           -142.7638   YY=           -108.9410   ZZ=           -107.5909
   XY=             -5.0651   XZ=             -6.5817   YZ=             -1.7241

  Exact polarizability: 241.245   5.625 157.797   5.903   2.563 146.276
 Approx polarizability: 264.300   8.508 233.903  14.615   2.943 234.877

                      1                      2                      3
                      A                      A                      A
 Frequencies --     11.8810                20.9859                31.1824
 Red. masses --      5.2528                 3.4436                 1.9364
 Frc consts  --      0.0004                 0.0009                 0.0011
 IR Inten    --      0.3054                 0.5924                 0.6209

                      4                      5                      6
                      A                      A                      A
 Frequencies --     39.3292                45.2230                69.0990
 Red. masses --      4.5394                 3.0945                 2.8213
 Frc consts  --      0.0041                 0.0037                 0.0079
 IR Inten    --      0.6174                 0.4725                 0.4138

                      7                      8                      9
                      A                      A                      A
 Frequencies --     74.7632                91.2807               109.2610
 Red. masses --      3.6011                 2.5292                 1.8264
 Frc consts  --      0.0119                 0.0124                 0.0128
 IR Inten    --      0.2552                 2.5163                 2.5128

                     10                     11                     12
                      A                      A                      A
 Frequencies --    120.1293               131.9044               149.6475
 Red. masses --      2.9931                 2.2803                 2.5684
 Frc consts  --      0.0254                 0.0234                 0.0339
 IR Inten    --      1.2696                 1.2564                 2.2664

                     13                     14                     15
                      A                      A                      A
 Frequencies --    156.3909               159.7815               177.8251
 Red. masses --      1.1683                 2.1875                 2.3161
 Frc consts  --      0.0168                 0.0329                 0.0432
 IR Inten    --     12.1743                 1.6921                 1.4186

                     16                     17                     18
                      A                      A                      A
 Frequencies --    185.8471               203.8046               247.3609
 Red. masses --      3.7141                 2.3887                 1.1173
 Frc consts  --      0.0756                 0.0585                 0.0403
 IR Inten    --      2.6148                 1.9698                 0.0140

                     19                     20                     21
                      A                      A                      A
 Frequencies --    251.5613               260.2447               272.2770
 Red. masses --      3.1091                 1.9900                 2.8835
 Frc consts  --      0.1159                 0.0794                 0.1259
 IR Inten    --      0.6259                13.8009                 7.1355

                     22                     23                     24
                      A                      A                      A
 Frequencies --    299.4182               376.0846               391.4352
 Red. masses --      2.2956                 2.7809                 3.2945
 Frc consts  --      0.1213                 0.2317                 0.2974
 IR Inten    --     10.8833                 0.9376                12.5734

                     25                     26                     27
                      A                      A                      A
 Frequencies --    409.9674               424.4443               465.5474
 Red. masses --      3.0350                 2.8114                 2.4648
 Frc consts  --      0.3005                 0.2984                 0.3148
 IR Inten    --     14.6635                 8.7906                 5.9281

                     28                     29                     30
                      A                      A                      A
 Frequencies --    483.8141               509.5676               566.5670
 Red. masses --      3.5206                 3.0279                 2.5614
 Frc consts  --      0.4855                 0.4632                 0.4844
 IR Inten    --      0.3647                 1.8827                 0.9474

                     31                     32                     33
                      A                      A                      A
 Frequencies --    673.5216               735.4848               769.5394
 Red. masses --      2.4960                 1.0681                 1.1126
 Frc consts  --      0.6671                 0.3404                 0.3882
 IR Inten    --     58.8933                 2.9098                 0.0774

                     34                     35                     36
                      A                      A                      A
 Frequencies --    785.4908               795.1700               801.8506
 Red. masses --      1.2975                 1.1879                 1.3968
 Frc consts  --      0.4717                 0.4425                 0.5291
 IR Inten    --     69.4775                54.6197                52.9221

                     37                     38                     39
                      A                      A                      A
 Frequencies --    818.6314               840.6358               861.4941
 Red. masses --      1.5475                 1.5122                 1.2243
 Frc consts  --      0.6110                 0.6296                 0.5354
 IR Inten    --     89.3948                20.8603                 2.4109

                     40                     41                     42
                      A                      A                      A
 Frequencies --    890.7524               899.0563               913.0676
 Red. masses --      1.3134                 1.8929                 1.7058
 Frc consts  --      0.6140                 0.9015                 0.8379
 IR Inten    --      7.4819                 5.0569                53.6929

                     43                     44                     45
                      A                      A                      A
 Frequencies --    940.8576               983.8644              1005.8405
 Red. masses --      1.8014                 1.2361                 2.8999
 Frc consts  --      0.9395                 0.7050                 1.7286
 IR Inten    --      3.1386                 5.0092                 2.4163

                     46                     47                     48
                      A                      A                      A
 Frequencies --   1012.5078              1022.4342              1028.0100
 Red. masses --      1.5146                 3.2365                 1.2923
 Frc consts  --      0.9148                 1.9934                 0.8046
 IR Inten    --     21.7174                 7.3553                12.8475

                     49                     50                     51
                      A                      A                      A
 Frequencies --   1049.3988              1057.8905              1067.0353
 Red. masses --      2.9389                 2.5224                 2.2341
 Frc consts  --      1.9068                 1.6632                 1.4987
 IR Inten    --      1.4484                 0.5569                 1.5440

                     52                     53                     54
                      A                      A                      A
 Frequencies --   1076.1503              1079.9350              1095.5930
 Red. masses --      2.0200                 2.7954                 2.7472
 Frc consts  --      1.3783                 1.9208                 1.9428
 IR Inten    --      6.0079                 7.9777                15.8054

                     55                     56                     57
                      A                      A                      A
 Frequencies --   1117.5626              1142.1377              1145.5614
 Red. masses --      2.4298                 2.0008                 1.9182
 Frc consts  --      1.7880                 1.5378                 1.4831
 IR Inten    --     19.7835                34.3067                10.5058

                     58                     59                     60
                      A                      A                      A
 Frequencies --   1150.1379              1151.8206              1160.9308
 Red. masses --      3.9190                 3.1781                 1.2077
 Frc consts  --      3.0544                 2.4842                 0.9590
 IR Inten    --     97.7700                33.1071                 1.3566

                     61                     62                     63
                      A                      A                      A
 Frequencies --   1195.9127              1219.8646              1228.1860
 Red. masses --      1.7695                 1.4297                 1.4626
 Frc consts  --      1.4910                 1.2535                 1.2999
 IR Inten    --      3.0373                22.6034                 4.4864

                     64                     65                     66
                      A                      A                      A
 Frequencies --   1256.3869              1259.8615              1270.0265
 Red. masses --      1.3886                 1.3133                 1.2879
 Frc consts  --      1.2915                 1.2282                 1.2240
 IR Inten    --      3.6948                10.1870                16.9050

                     67                     68                     69
                      A                      A                      A
 Frequencies --   1280.1688              1293.6560              1307.3498
 Red. masses --      1.3121                 1.2516                 1.2106
 Frc consts  --      1.2669                 1.2341                 1.2191
 IR Inten    --      2.2018                 2.3867                 5.4462

                     70                     71                     72
                      A                      A                      A
 Frequencies --   1320.9201              1322.2762              1326.9454
 Red. masses --      1.2024                 1.0932                 1.1878
 Frc consts  --      1.2361                 1.1261                 1.2322
 IR Inten    --      2.2617                 1.8550                 3.1541

                     73                     74                     75
                      A                      A                      A
 Frequencies --   1332.2401              1335.3850              1348.9431
 Red. masses --      1.1524                 1.1997                 1.2827
 Frc consts  --      1.2051                 1.2605                 1.3752
 IR Inten    --      0.7220                 4.1075                 2.1144

                     76                     77                     78
                      A                      A                      A
 Frequencies --   1364.8420              1380.2657              1397.4225
 Red. masses --      1.3579                 1.3961                 1.2072
 Frc consts  --      1.4903                 1.5671                 1.3890
 IR Inten    --     24.6153                15.7028                15.0732

                     79                     80                     81
                      A                      A                      A
 Frequencies --   1399.6665              1412.5106              1413.6246
 Red. masses --      1.5969                 1.2768                 1.3986
 Frc consts  --      1.8432                 1.5009                 1.6466
 IR Inten    --      0.1860                 1.9979                 0.6237

                     82                     83                     84
                      A                      A                      A
 Frequencies --   1425.3463              1482.2364              1484.2232
 Red. masses --      1.5322                 1.1069                 1.0729
 Frc consts  --      1.8341                 1.4328                 1.3926
 IR Inten    --      0.5732                 3.8457                 5.8007

                     85                     86                     87
                      A                      A                      A
 Frequencies --   1484.8300              1487.2454              1488.0901
 Red. masses --      1.1945                 1.1247                 1.1605
 Frc consts  --      1.5516                 1.4657                 1.5142
 IR Inten    --     37.3217                11.7391                33.0586

                     88                     89                     90
                      A                      A                      A
 Frequencies --   1494.2768              1497.7023              1499.9042
 Red. masses --      1.0946                 1.0727                 1.0403
 Frc consts  --      1.4400                 1.4177                 1.3789
 IR Inten    --     18.0359                 5.2584                 4.9559

                     91                     92                     93
                      A                      A                      A
 Frequencies --   1502.2968              1511.9279              1520.3930
 Red. masses --      1.0818                 1.0863                 1.0884
 Frc consts  --      1.4385                 1.4630                 1.4824
 IR Inten    --      1.1656                 1.7603                 2.8418

                     94                     95                     96
                      A                      A                      A
 Frequencies --   1523.1563              1643.6537              1744.2527
 Red. masses --      1.0910                 1.0967                 6.4328
 Frc consts  --      1.4913                 1.7456                11.5310
 IR Inten    --      2.8257                15.2003                 0.9816

                     97                     98                     99
                      A                      A                      A
 Frequencies --   2660.5377              2903.6642              2906.2417
 Red. masses --      1.0383                 1.0728                 1.0721
 Frc consts  --      4.3303                 5.3294                 5.3353
 IR Inten    --      7.0929                60.1203                53.5235

                    100                    101                    102
                      A                      A                      A
 Frequencies --   2921.8991              2931.0758              2999.4518
 Red. masses --      1.0713                 1.0721                 1.0634
 Frc consts  --      5.3889                 5.4266                 5.6366
 IR Inten    --     79.9941                66.8558                 2.1953

                    103                    104                    105
                      A                      A                      A
 Frequencies --   3002.2889              3003.2262              3012.9674
 Red. masses --      1.0842                 1.0638                 1.0584
 Frc consts  --      5.7581                 5.6533                 5.6609
 IR Inten    --     30.7163                 6.9756                26.1808

                    106                    107                    108
                      A                      A                      A
 Frequencies --   3015.1657              3022.6402              3026.8044
 Red. masses --      1.0627                 1.0831                 1.0900
 Frc consts  --      5.6921                 5.8303                 5.8834
 IR Inten    --     30.9860                48.2374                11.9421

                    109                    110                    111
                      A                      A                      A
 Frequencies --   3028.2708              3030.9188              3047.2871
 Red. masses --      1.0384                 1.0870                 1.1007
 Frc consts  --      5.6103                 5.8835                 6.0220
 IR Inten    --     49.1430                12.3599                 4.1561

                    112                    113                    114
                      A                      A                      A
 Frequencies --   3057.0934              3065.9937              3067.2856
 Red. masses --      1.1021                 1.1018                 1.0836
 Frc consts  --      6.0687                 6.1025                 6.0066
 IR Inten    --     32.4417                68.4115                 5.5393

                    115                    116                    117
                      A                      A                      A
 Frequencies --   3078.4096              3094.3640              3100.1454
 Red. masses --      1.0881                 1.1021                 1.1009
 Frc consts  --      6.0752                 6.2173                 6.2340
 IR Inten    --     19.5381                59.9663                38.6012

                    118                    119                    120
                      A                      A                      A
 Frequencies --   3116.6622              3137.2256              3476.1672
 Red. masses --      1.0887                 1.0878                 1.0473
 Frc consts  --      6.2306                 6.3079                 7.4565
 IR Inten    --     20.1111                22.2011                 0.8147

                    121                    122                    123
                      A                      A                      A
 Frequencies --   3498.8356              3500.8383              3568.3622
 Red. masses --      1.0734                 1.0726                 1.0940
 Frc consts  --      7.7423                 7.7453                 8.2074
 IR Inten    --      0.3892                 0.8019                 0.7757

 - Thermochemistry -
 -------------------
 Temperature   298.150 Kelvin.  Pressure   1.00000 Atm.
 Atom     1 has atomic number  6 and mass  12.00000

 Molecular mass:   245.19257 amu.
 Principal axes and moments of inertia in atomic units:
                           1         2         3
     Eigenvalues --  1838.44692********************
           X            0.99996  -0.00839  -0.00221
           Y            0.00836   0.99990  -0.01166
           Z            0.00231   0.01164   0.99993
 This molecule is an asymmetric top.
 Rotational symmetry number  1.
 Warning -- assumption of classical behavior for rotation
           may cause significant error
 Rotational temperatures (Kelvin)      0.04711     0.00349     0.00332
 Rotational constants (GHZ):           0.98167     0.07272     0.06909
 Zero-point vibrational energy    1014067.2 (Joules/Mol)
                                  242.36788 (Kcal/Mol)
 Warning -- explicit consideration of  30 degrees of freedom as
           vibrations may cause significant error
 Vibrational temperatures:     17.09    30.19    44.86    56.59    65.07
          (Kelvin)             99.42   107.57   131.33   157.20   172.84
                              189.78   215.31   225.01   229.89   255.85
                              267.39   293.23   355.90   361.94   374.43
                              391.75   430.80   541.10   563.19   589.85
                              610.68   669.82   696.10   733.15   815.16
                              969.05  1058.20  1107.20  1130.15  1144.07
                             1153.68  1177.83  1209.49  1239.50  1281.59
                             1293.54  1313.70  1353.68  1415.56  1447.18
                             1456.77  1471.05  1479.08  1509.85  1522.07
                             1535.23  1548.34  1553.79  1576.31  1607.92
                             1643.28  1648.21  1654.79  1657.21  1670.32
                             1720.65  1755.11  1767.09  1807.66  1812.66
                             1827.28  1841.88  1861.28  1880.98  1900.51
                             1902.46  1909.18  1916.80  1921.32  1940.83
                             1963.70  1985.89  2010.58  2013.81  2032.29
                             2033.89  2050.76  2132.61  2135.47  2136.34
                             2139.81  2141.03  2149.93  2154.86  2158.03
                             2161.47  2175.33  2187.51  2191.48  2364.85
                             2509.59  3827.92  4177.73  4181.43  4203.96
                             4217.16  4315.54  4319.62  4320.97  4334.99
                             4338.15  4348.91  4354.90  4357.01  4360.82
                             4384.37  4398.48  4411.28  4413.14  4429.14
                             4452.10  4460.42  4484.18  4513.77  5001.43
                             5034.04  5036.93  5134.08

 Zero-point correction=                           0.386238 (Hartree/Particle)
 Thermal correction to Energy=                    0.407693
 Thermal correction to Enthalpy=                  0.408637
 Thermal correction to Gibbs Free Energy=         0.331289
 Sum of electronic and zero-point Energies=          -1035.614753
 Sum of electronic and thermal Energies=             -1035.593297
 Sum of electronic and thermal Enthalpies=           -1035.592353
 Sum of electronic and thermal Free Energies=        -1035.669702

                     E (Thermal)             CV                S
                      KCal/Mol        Cal/Mol-Kelvin    Cal/Mol-Kelvin
 Total                  255.831             75.549            162.793
 Electronic               0.000              0.000              0.000
 Translational            0.889              2.981             42.391
 Rotational               0.889              2.981             35.431
 Vibrational            254.054             69.587             84.971
 Vibration     1          0.593              1.987              7.669
 Vibration     2          0.593              1.986              6.539
 Vibration     3          0.594              1.983              5.753
 Vibration     4          0.594              1.981              5.293
 Vibration     5          0.595              1.979              5.016
 Vibration     6          0.598              1.969              4.179
 Vibration     7          0.599              1.966              4.024
 Vibration     8          0.602              1.955              3.632
 Vibration     9          0.606              1.942              3.282
 Vibration    10          0.609              1.932              3.098
 Vibration    11          0.612              1.921              2.918
 Vibration    12          0.618              1.903              2.677
 Vibration    13          0.620              1.896              2.593
 Vibration    14          0.622              1.892              2.552
 Vibration    15          0.628              1.870              2.351
 Vibration    16          0.632              1.859              2.269
 Vibration    17          0.639              1.834              2.098
 Vibration    18          0.661              1.767              1.749
 Vibration    19          0.664              1.760              1.720
 Vibration    20          0.668              1.745              1.660
 Vibration    21          0.675              1.724              1.582
 Vibration    22          0.692              1.675              1.420
 Vibration    23          0.747              1.521              1.055
 Vibration    24          0.759              1.488              0.995
 Vibration    25          0.774              1.449              0.927
 Vibration    26          0.786              1.417              0.877
 Vibration    27          0.823              1.326              0.750
 Vibration    28          0.840              1.286              0.700
 Vibration    29          0.865              1.229              0.635
 Vibration    30          0.922              1.104              0.511

                           ! Non-Optimized Parameters !
 Normal termination of Gaussian 16 at Mon May 29 17:47:39 2023.
