 Gaussian 16, Revision A.03,
 Gaussian 16:  ES64L-G16RevA.03 25-Dec-2016

 -----------------------------
 # opt freq b3lyp/6-31g(2df,p)
 -----------------------------

 -------------------
 Title Card Required
 -------------------
 Symbolic Z-matrix:
 Charge =  0 Multiplicity = 1

 SCF Done:  E(RB3LYP) =  -511.110893297     A.U. after   12 cycles
 SCF Done:  E(RB3LYP) =  -511.115287458     A.U. after   10 cycles
 SCF Done:  E(RB3LYP) =  -511.116512498     A.U. after    9 cycles
 SCF Done:  E(RB3LYP) =  -511.117129238     A.U. after    9 cycles
 SCF Done:  E(RB3LYP) =  -511.117365015     A.U. after    9 cycles
 SCF Done:  E(RB3LYP) =  -511.117561480     A.U. after   10 cycles
 SCF Done:  E(RB3LYP) =  -511.117609885     A.U. after   10 cycles
 SCF Done:  E(RB3LYP) =  -511.117633511     A.U. after    9 cycles
 SCF Done:  E(RB3LYP) =  -511.117630093     A.U. after    8 cycles
 SCF Done:  E(RB3LYP) =  -511.117641162     A.U. after    8 cycles
 SCF Done:  E(RB3LYP) =  -511.117640423     A.U. after    8 cycles
 SCF Done:  E(RB3LYP) =  -511.117641083     A.U. after    7 cycles
 Optimization completed.
    -- Stationary point found.
 Normal termination of Gaussian 16 at Sun May 21 23:53:02 2023.

 ----------------------------------------------------------------------
 #N Geom=AllCheck Guess=TCheck SCRF=Check GenChk RB3LYP/6-31G(2df,p) Fr
 eq
 ----------------------------------------------------------------------

 Structure from the checkpoint file:  "CCCCCCC1CCCCqCrC1.chk"
 -------------------
 Title Card Required
 -------------------
 Charge =  0 Multiplicity = 1

                         Standard orientation:
 ---------------------------------------------------------------------
 Center     Atomic      Atomic             Coordinates (Angstroms)
 Number     Number       Type             X           Y           Z
 ---------------------------------------------------------------------
      1          6           0       -5.722785    0.973174   -0.494955
      2          6           0       -4.367958    0.368577   -0.873345
      3          6           0       -3.487441    0.051555    0.340219
      4          6           0       -2.129285   -0.555291   -0.028486
      5          6           0       -1.254799   -0.866057    1.192830
      6          6           0        0.071053   -1.575848    0.872224
      7          6           0        1.079713   -0.799359    0.005972
      8          6           0        2.287163   -1.687255   -0.344692
      9          6           0        3.324628   -0.947499   -1.198805
     10          6           0        3.782825    0.350969   -0.522917
     11          6           0        2.596291    1.264364   -0.175699
     12          6           0        3.054827    2.549623    0.520076
     13          6           0        1.560868    0.502808    0.670751
     14          1           0       -6.327913    1.188519   -1.381328
     15          1           0       -5.597178    1.910904    0.057992
     16          1           0       -6.296794    0.290741    0.141951
     17          1           0       -3.831794    1.058413   -1.538765
     18          1           0       -4.525829   -0.549454   -1.455067
     19          1           0       -4.024486   -0.637293    1.007604
     20          1           0       -3.329225    0.970514    0.922425
     21          1           0       -1.602926    0.133070   -0.702510
     22          1           0       -2.288256   -1.478323   -0.604278
     23          1           0       -1.825867   -1.505349    1.879240
     24          1           0       -1.062287    0.061780    1.746704
     25          1           0       -0.155489   -2.526795    0.369832
     26          1           0        0.562527   -1.845915    1.817403
     27          1           0        0.588862   -0.529468   -0.941084
     28          1           0        1.945035   -2.591377   -0.862974
     29          1           0        2.761315   -2.027048    0.588070
     30          1           0        2.885241   -0.710391   -2.177855
     31          1           0        4.185135   -1.597331   -1.395870
     32          1           0        4.491875    0.886310   -1.166139
     33          1           0        4.326528    0.107856    0.402038
     34          1           0        2.107927    1.546474   -1.121419
     35          1           0        3.550410    2.324591    1.472190
     36          1           0        2.208627    3.211053    0.735776
     37          1           0        3.766018    3.106425   -0.099731
     38          1           0        0.710814    1.163199    0.878825
     39          1           0        2.007134    0.260343    1.647940
 ---------------------------------------------------------------------

 SCF Done:  E(RB3LYP) =  -511.117641083     A.U. after    1 cycles

 The electronic state is 1-A.
 Alpha  occ. eigenvalues --  -10.17784 -10.17527 -10.17434 -10.17194 -10.17162
 Alpha  occ. eigenvalues --  -10.17140 -10.17129 -10.17026 -10.16977 -10.16948
 Alpha  occ. eigenvalues --  -10.16868 -10.16834 -10.16659  -0.83192  -0.80005
 Alpha  occ. eigenvalues --   -0.77466  -0.75208  -0.73385  -0.69134  -0.66803
 Alpha  occ. eigenvalues --   -0.63576  -0.59981  -0.57849  -0.57191  -0.55238
 Alpha  occ. eigenvalues --   -0.54282  -0.47299  -0.46145  -0.45264  -0.43678
 Alpha  occ. eigenvalues --   -0.43314  -0.42373  -0.41502  -0.40829  -0.40232
 Alpha  occ. eigenvalues --   -0.38656  -0.37632  -0.37246  -0.36897  -0.35808
 Alpha  occ. eigenvalues --   -0.35058  -0.34461  -0.33203  -0.32714  -0.32578
 Alpha  occ. eigenvalues --   -0.32067  -0.31611  -0.31480  -0.30641  -0.29836
 Alpha  occ. eigenvalues --   -0.28595  -0.28151
 Alpha virt. eigenvalues --    0.07951   0.09608   0.09899   0.10418   0.11102
 Alpha virt. eigenvalues --    0.12117   0.12765   0.13400   0.14952   0.15537
 Alpha virt. eigenvalues --    0.15920   0.16248   0.16601   0.16930   0.17532

 Mulliken charges:
               1
     1  C   -0.378460
     2  C   -0.164759
     3  C   -0.155968
     4  C   -0.166454
     5  C   -0.205967
     6  C   -0.211048
     7  C    0.030793
     8  C   -0.187659
     9  C   -0.220222
    10  C   -0.174336
    11  C    0.037751
    12  C   -0.402986
    13  C   -0.179003
    14  H    0.109296
    15  H    0.112211
    16  H    0.112376
    17  H    0.092434
    18  H    0.092691
    19  H    0.089463
    20  H    0.089366
    21  H    0.094399
    22  H    0.088945
    23  H    0.087654
    24  H    0.095674
    25  H    0.084752
    26  H    0.084843
    27  H    0.066985
    28  H    0.084605
    29  H    0.086768
    30  H    0.089538
    31  H    0.087002
    32  H    0.084283
    33  H    0.086308
    34  H    0.064638
    35  H    0.110038
    36  H    0.106658
    37  H    0.107009
    38  H    0.086737
    39  H    0.083642
 Sum of Mulliken charges =  -0.00000

 Dipole moment (field-independent basis, Debye):
    X=             -0.0214    Y=             -0.0395    Z=             -0.1033  Tot=              0.1127
 Quadrupole moment (field-independent basis, Debye-Ang):
   XX=            -87.4210   YY=            -86.4479   ZZ=            -86.1896
   XY=              0.2278   XZ=              0.1637   YZ=             -0.3591

  Exact polarizability: 164.338  -0.362 135.641  -2.406   0.975 123.621
 Approx polarizability: 194.267   0.317 192.266   0.638  -0.613 192.215

                      1                      2                      3
                      A                      A                      A
 Frequencies --     22.6252                44.9113                48.2414
 Red. masses --      3.1815                 1.9437                 2.5305
 Frc consts  --      0.0010                 0.0023                 0.0035
 IR Inten    --      0.0011                 0.0025                 0.0040

                      4                      5                      6
                      A                      A                      A
 Frequencies --     96.1340               115.7233               135.4183
 Red. masses --      2.5039                 2.7990                 1.8116
 Frc consts  --      0.0136                 0.0221                 0.0196
 IR Inten    --      0.0026                 0.0107                 0.0065

                      7                      8                      9
                      A                      A                      A
 Frequencies --    149.1993               165.0179               190.5917
 Red. masses --      2.3454                 2.6025                 2.4747
 Frc consts  --      0.0308                 0.0418                 0.0530
 IR Inten    --      0.0100                 0.0224                 0.0168

                     10                     11                     12
                      A                      A                      A
 Frequencies --    232.6067               247.4760               262.3404
 Red. masses --      1.0742                 1.1383                 2.2008
 Frc consts  --      0.0342                 0.0411                 0.0892
 IR Inten    --      0.0162                 0.0012                 0.0632

                     13                     14                     15
                      A                      A                      A
 Frequencies --    274.8477               323.4381               332.8806
 Red. masses --      1.8339                 2.3182                 2.8153
 Frc consts  --      0.0816                 0.1429                 0.1838
 IR Inten    --      0.0131                 0.0191                 0.0076

                     16                     17                     18
                      A                      A                      A
 Frequencies --    402.1601               412.8910               423.2359
 Red. masses --      3.0677                 3.4267                 1.9232
 Frc consts  --      0.2923                 0.3442                 0.2030
 IR Inten    --      0.1564                 0.0353                 0.1507

                     19                     20                     21
                      A                      A                      A
 Frequencies --    442.4485               450.1590               523.2699
 Red. masses --      2.4744                 2.2055                 2.5927
 Frc consts  --      0.2854                 0.2633                 0.4183
 IR Inten    --      0.0997                 0.0069                 0.0989

                     22                     23                     24
                      A                      A                      A
 Frequencies --    536.6619               729.7895               745.9564
 Red. masses --      1.9091                 1.0969                 1.2155
 Frc consts  --      0.3240                 0.3442                 0.3985
 IR Inten    --      0.2150                 4.6348                 0.6433

                     25                     26                     27
                      A                      A                      A
 Frequencies --    778.3453               808.1496               837.3946
 Red. masses --      1.7430                 1.4908                 1.8251
 Frc consts  --      0.6222                 0.5737                 0.7540
 IR Inten    --      0.0813                 2.2136                 0.8873

                     28                     29                     30
                      A                      A                      A
 Frequencies --    856.0931               864.8435               888.0399
 Red. masses --      1.4801                 1.4542                 2.3133
 Frc consts  --      0.6391                 0.6408                 1.0749
 IR Inten    --      0.5473                 0.4821                 0.6492

                     31                     32                     33
                      A                      A                      A
 Frequencies --    895.3196               911.8745               926.2184
 Red. masses --      1.9651                 1.7527                 1.8121
 Frc consts  --      0.9281                 0.8587                 0.9159
 IR Inten    --      2.1071                 0.6222                 0.2612

                     34                     35                     36
                      A                      A                      A
 Frequencies --    959.2222               977.7171               991.9641
 Red. masses --      1.7801                 1.5089                 1.4656
 Frc consts  --      0.9650                 0.8498                 0.8497
 IR Inten    --      3.3805                 0.1549                 0.3773

                     37                     38                     39
                      A                      A                      A
 Frequencies --    995.6710              1020.6836              1041.0512
 Red. masses --      1.5633                 3.2284                 2.1110
 Frc consts  --      0.9131                 1.9816                 1.3480
 IR Inten    --      0.5030                 0.0980                 0.4899

                     40                     41                     42
                      A                      A                      A
 Frequencies --   1055.4748              1067.6285              1077.6023
 Red. masses --      1.7101                 2.3279                 1.5306
 Frc consts  --      1.1224                 1.5634                 1.0472
 IR Inten    --      0.5355                 0.2504                 0.2850

                     43                     44                     45
                      A                      A                      A
 Frequencies --   1085.8643              1093.6667              1107.6389
 Red. masses --      2.2574                 1.1984                 1.9056
 Frc consts  --      1.5683                 0.8445                 1.3775
 IR Inten    --      0.1975                 0.5576                 0.4141

                     46                     47                     48
                      A                      A                      A
 Frequencies --   1127.0872              1138.7731              1172.9602
 Red. masses --      2.2189                 1.9870                 2.2647
 Frc consts  --      1.6608                 1.5182                 1.8358
 IR Inten    --      0.7909                 1.9406                 0.0611

                     49                     50                     51
                      A                      A                      A
 Frequencies --   1190.5901              1223.0725              1231.2941
 Red. masses --      2.1708                 1.5574                 1.5182
 Frc consts  --      1.8130                 1.3726                 1.3562
 IR Inten    --      1.4725                 0.1625                 0.1372

                     52                     53                     54
                      A                      A                      A
 Frequencies --   1248.8998              1276.5680              1289.5896
 Red. masses --      1.3791                 1.3315                 1.3141
 Frc consts  --      1.2673                 1.2785                 1.2876
 IR Inten    --      0.1598                 7.2062                 3.0957

                     55                     56                     57
                      A                      A                      A
 Frequencies --   1294.6852              1300.2430              1310.9496
 Red. masses --      1.2752                 1.2254                 1.2807
 Frc consts  --      1.2594                 1.2206                 1.2968
 IR Inten    --      1.9482                 2.3394                 1.4263

                     58                     59                     60
                      A                      A                      A
 Frequencies --   1321.8425              1331.0920              1335.8874
 Red. masses --      1.2149                 1.0540                 1.1789
 Frc consts  --      1.2507                 1.1003                 1.2395
 IR Inten    --      1.2336                 0.4395                 1.8356

                     61                     62                     63
                      A                      A                      A
 Frequencies --   1338.4528              1350.6110              1373.8331
 Red. masses --      1.2377                 1.2875                 1.3503
 Frc consts  --      1.3064                 1.3837                 1.5016
 IR Inten    --      2.0490                 0.5081                 0.3164

                     64                     65                     66
                      A                      A                      A
 Frequencies --   1376.2664              1379.8736              1386.6130
 Red. masses --      1.4121                 1.4253                 1.5051
 Frc consts  --      1.5759                 1.5990                 1.7050
 IR Inten    --      1.5772                 2.1705                 2.0983

                     67                     68                     69
                      A                      A                      A
 Frequencies --   1393.3991              1396.2472              1398.6556
 Red. masses --      1.5152                 1.5174                 1.5127
 Frc consts  --      1.7333                 1.7429                 1.7435
 IR Inten    --      5.3868                 1.3761                 3.7601

                     70                     71                     72
                      A                      A                      A
 Frequencies --   1402.1145              1412.2545              1413.4916
 Red. masses --      1.5346                 1.2600                 1.2619
 Frc consts  --      1.7775                 1.4807                 1.4854
 IR Inten    --      2.8631                 1.4347                 1.1191

                     73                     74                     75
                      A                      A                      A
 Frequencies --   1477.6785              1479.4681              1483.1947
 Red. masses --      1.0869                 1.0906                 1.0715
 Frc consts  --      1.3984                 1.4064                 1.3888
 IR Inten    --      0.5610                 0.5508                 0.1803

                     76                     77                     78
                      A                      A                      A
 Frequencies --   1483.6637              1486.8648              1490.1722
 Red. masses --      1.0783                 1.0865                 1.0869
 Frc consts  --      1.3985                 1.4153                 1.4221
 IR Inten    --      2.3198                 2.0627                 3.2218

                     79                     80                     81
                      A                      A                      A
 Frequencies --   1493.3530              1497.0779              1499.9126
 Red. masses --      1.0774                 1.0471                 1.0403
 Frc consts  --      1.4156                 1.3828                 1.3790
 IR Inten    --      1.4155                 4.1660                 4.8718

                     82                     83                     84
                      A                      A                      A
 Frequencies --   1500.4819              1502.1805              1504.6931
 Red. masses --      1.0609                 1.0918                 1.0818
 Frc consts  --      1.4073                 1.4516                 1.4431
 IR Inten    --      2.5512                 2.1774                 1.1623

                     85                     86                     87
                      A                      A                      A
 Frequencies --   1514.1223              2978.2764              2984.8691
 Red. masses --      1.0924                 1.0789                 1.0746
 Frc consts  --      1.4756                 5.6382                 5.6409
 IR Inten    --      3.0805                 4.2400                 6.0375

                     88                     89                     90
                      A                      A                      A
 Frequencies --   2992.9443              2995.7781              2998.9728
 Red. masses --      1.0690                 1.0610                 1.0581
 Frc consts  --      5.6419                 5.6102                 5.6070
 IR Inten    --     11.9237                 2.0706                 2.0655

                     91                     92                     93
                      A                      A                      A
 Frequencies --   3001.1427              3004.6075              3004.8986
 Red. masses --      1.0650                 1.0614                 1.0690
 Frc consts  --      5.6516                 5.6457                 5.6873
 IR Inten    --     22.7532                 6.8466                40.3188

                     94                     95                     96
                      A                      A                      A
 Frequencies --   3010.3330              3013.2402              3016.6152
 Red. masses --      1.0618                 1.0612                 1.0664
 Frc consts  --      5.6693                 5.6771                 5.7174
 IR Inten    --     42.5557                 7.1010                70.7567

                     97                     98                     99
                      A                      A                      A
 Frequencies --   3021.7087              3022.3755              3027.6859
 Red. masses --      1.0386                 1.0915                 1.0358
 Frc consts  --      5.5874                 5.8743                 5.5943
 IR Inten    --     35.5475                12.7726                41.3373

                    100                    101                    102
                      A                      A                      A
 Frequencies --   3031.0800              3038.5625              3046.7714
 Red. masses --      1.0985                 1.0966                 1.0996
 Frc consts  --      5.9463                 5.9654                 6.0138
 IR Inten    --     12.8968                28.7237                28.3240

                    103                    104                    105
                      A                      A                      A
 Frequencies --   3048.5396              3051.7888              3054.0562
 Red. masses --      1.0974                 1.0976                 1.0940
 Frc consts  --      6.0090                 6.0227                 6.0119
 IR Inten    --     57.0525                46.3816                24.9647

                    106                    107                    108
                      A                      A                      A
 Frequencies --   3059.1700              3065.0027              3087.1988
 Red. masses --      1.1030                 1.1031                 1.1005
 Frc consts  --      6.0817                 6.1057                 6.1796
 IR Inten    --     86.1180               110.4710                47.5043

                    109                    110                    111
                      A                      A                      A
 Frequencies --   3092.8235              3093.8071              3099.0451
 Red. masses --      1.1014                 1.1020                 1.1010
 Frc consts  --      6.2072                 6.2146                 6.2298
 IR Inten    --     37.8262                58.5052                39.0293

 - Thermochemistry -
 -------------------
 Temperature   298.150 Kelvin.  Pressure   1.00000 Atm.
 Atom     1 has atomic number  6 and mass  12.00000

 Molecular mass:   182.20345 amu.
 Principal axes and moments of inertia in atomic units:
                           1         2         3
     Eigenvalues --  1372.737646633.978797237.12469
           X            1.00000  -0.00050   0.00173
           Y            0.00048   0.99997   0.00732
           Z           -0.00173  -0.00732   0.99997
 This molecule is an asymmetric top.
 Rotational symmetry number  1.
 Warning -- assumption of classical behavior for rotation
           may cause significant error
 Rotational temperatures (Kelvin)      0.06310     0.01306     0.01197
 Rotational constants (GHZ):           1.31470     0.27205     0.24937
 Zero-point vibrational energy     964297.7 (Joules/Mol)
                                  230.47269 (Kcal/Mol)
 Warning -- explicit consideration of  22 degrees of freedom as
           vibrations may cause significant error
 Vibrational temperatures:     32.55    64.62    69.41   138.32   166.50
          (Kelvin)            194.84   214.66   237.42   274.22   334.67
                              356.06   377.45   395.44   465.36   478.94
                              578.62   594.06   608.94   636.58   647.68
                              752.87   772.14  1050.00  1073.26  1119.87
                             1162.75  1204.82  1231.73  1244.32  1277.69
                             1288.17  1311.98  1332.62  1380.11  1406.72
                             1427.22  1432.55  1468.54  1497.84  1518.59
                             1536.08  1550.43  1562.32  1573.54  1593.65
                             1621.63  1638.44  1687.63  1712.99  1759.73
                             1771.56  1796.89  1836.70  1855.43  1862.76
                             1870.76  1886.16  1901.84  1915.14  1922.04
                             1925.74  1943.23  1976.64  1980.14  1985.33
                             1995.03  2004.79  2008.89  2012.35  2017.33
                             2031.92  2033.70  2126.05  2128.62  2133.99
                             2134.66  2139.27  2144.03  2148.60  2153.96
                             2158.04  2158.86  2161.30  2164.92  2178.48
                             4285.08  4294.56  4306.18  4310.26  4314.85
                             4317.97  4322.96  4323.38  4331.20  4335.38
                             4340.24  4347.56  4348.52  4356.16  4361.05
                             4371.81  4383.62  4386.17  4390.84  4394.11
                             4401.46  4409.86  4441.79  4449.88  4451.30
                             4458.83

 Zero-point correction=                           0.367282 (Hartree/Particle)
 Thermal correction to Energy=                    0.382694
 Thermal correction to Enthalpy=                  0.383638
 Thermal correction to Gibbs Free Energy=         0.323713
 Sum of electronic and zero-point Energies=           -510.750359
 Sum of electronic and thermal Energies=              -510.734947
 Sum of electronic and thermal Enthalpies=            -510.734003
 Sum of electronic and thermal Free Energies=         -510.793928

                     E (Thermal)             CV                S
                      KCal/Mol        Cal/Mol-Kelvin    Cal/Mol-Kelvin
 Total                  240.144             58.615            126.122
 Electronic               0.000              0.000              0.000
 Translational            0.889              2.981             41.506
 Rotational               0.889              2.981             32.555
 Vibrational            238.366             52.653             52.061
 Vibration     1          0.593              1.985              6.389
 Vibration     2          0.595              1.979              5.030
 Vibration     3          0.595              1.978              4.888
 Vibration     4          0.603              1.952              3.531
 Vibration     5          0.608              1.936              3.171
 Vibration     6          0.613              1.918              2.868
 Vibration     7          0.618              1.904              2.682
 Vibration     8          0.623              1.885              2.491
 Vibration     9          0.634              1.853              2.222
 Vibration    10          0.653              1.791              1.859
 Vibration    11          0.661              1.767              1.748
 Vibration    12          0.670              1.742              1.646
 Vibration    13          0.677              1.720              1.566
 Vibration    14          0.708              1.629              1.293
 Vibration    15          0.715              1.610              1.246
 Vibration    16          0.768              1.465              0.955
 Vibration    17          0.777              1.442              0.916
 Vibration    18          0.785              1.420              0.881
 Vibration    19          0.802              1.378              0.819
 Vibration    20          0.809              1.361              0.795
 Vibration    21          0.878              1.198              0.602
 Vibration    22          0.892              1.169              0.573

                           ! Non-Optimized Parameters !
 Normal termination of Gaussian 16 at Mon May 22 02:28:11 2023.
