 Gaussian 16, Revision A.03,
 Gaussian 16:  ES64L-G16RevA.03 25-Dec-2016

 -----------------------------
 # opt freq b3lyp/6-31g(2df,p)
 -----------------------------

 -------------------
 Title Card Required
 -------------------
 Symbolic Z-matrix:
 Charge =  0 Multiplicity = 1

 SCF Done:  E(RB3LYP) =  -432.453734201     A.U. after   12 cycles
 SCF Done:  E(RB3LYP) =  -432.460641782     A.U. after   10 cycles
 SCF Done:  E(RB3LYP) =  -432.463569120     A.U. after   10 cycles
 SCF Done:  E(RB3LYP) =  -432.465300849     A.U. after   10 cycles
 SCF Done:  E(RB3LYP) =  -432.466315867     A.U. after   10 cycles
 SCF Done:  E(RB3LYP) =  -432.466766202     A.U. after   10 cycles
 SCF Done:  E(RB3LYP) =  -432.467011280     A.U. after    8 cycles
 SCF Done:  E(RB3LYP) =  -432.467078867     A.U. after    8 cycles
 SCF Done:  E(RB3LYP) =  -432.467087230     A.U. after    8 cycles
 SCF Done:  E(RB3LYP) =  -432.467089681     A.U. after    7 cycles
 SCF Done:  E(RB3LYP) =  -432.467306585     A.U. after    9 cycles
 SCF Done:  E(RB3LYP) =  -432.467264535     A.U. after    9 cycles
 SCF Done:  E(RB3LYP) =  -432.467322896     A.U. after    9 cycles
 SCF Done:  E(RB3LYP) =  -432.467327684     A.U. after    8 cycles
 SCF Done:  E(RB3LYP) =  -432.467325808     A.U. after    8 cycles
 SCF Done:  E(RB3LYP) =  -432.467330928     A.U. after    8 cycles
 SCF Done:  E(RB3LYP) =  -432.467330519     A.U. after    7 cycles
 SCF Done:  E(RB3LYP) =  -432.467330978     A.U. after    7 cycles
 SCF Done:  E(RB3LYP) =  -432.467330981     A.U. after    5 cycles
 Optimization completed.
    -- Stationary point found.
 Normal termination of Gaussian 16 at Sun May 28 20:23:21 2023.

 ----------------------------------------------------------------------
 #N Geom=AllCheck Guess=TCheck SCRF=Check GenChk RB3LYP/6-31G(2df,p) Fr
 eq
 ----------------------------------------------------------------------

 Structure from the checkpoint file:  "CCCCqCCrC1CCCC1.chk"
 -------------------
 Title Card Required
 -------------------
 Charge =  0 Multiplicity = 1

                         Standard orientation:
 ---------------------------------------------------------------------
 Center     Atomic      Atomic             Coordinates (Angstroms)
 Number     Number       Type             X           Y           Z
 ---------------------------------------------------------------------
      1          6           0       -3.984633   -1.391781   -0.032765
      2          6           0       -2.947661   -0.276218   -0.197498
      3          6           0       -1.506156   -0.794546   -0.128965
      4          6           0       -0.403155    0.259946   -0.355468
      5          6           0       -0.439977    1.393853    0.705353
      6          6           0       -1.091618    2.692093    0.212718
      7          6           0        0.976141   -0.429388   -0.466228
      8          6           0        2.118805    0.463152   -0.995870
      9          6           0        3.390899   -0.281826   -0.569502
     10          6           0        3.061876   -0.750140    0.860833
     11          6           0        1.537669   -1.050648    0.851264
     12          1           0       -5.005767   -1.001068   -0.086016
     13          1           0       -3.871742   -1.897148    0.933051
     14          1           0       -3.877094   -2.151341   -0.815287
     15          1           0       -3.111313    0.482193    0.577462
     16          1           0       -3.105692    0.230544   -1.159030
     17          1           0       -1.388326   -1.589377   -0.878795
     18          1           0       -1.346277   -1.276209    0.846354
     19          1           0       -0.593962    0.719561   -1.337169
     20          1           0        0.577285    1.629045    1.037595
     21          1           0       -0.964675    1.042126    1.602445
     22          1           0       -0.540545    3.105956   -0.639190
     23          1           0       -1.106314    3.453028    1.000215
     24          1           0       -2.123546    2.530533   -0.113647
     25          1           0        0.859557   -1.246196   -1.191361
     26          1           0        2.094535    1.450864   -0.517647
     27          1           0        2.050258    0.627093   -2.076114
     28          1           0        4.294308    0.333208   -0.621047
     29          1           0        3.549689   -1.147798   -1.224590
     30          1           0        3.279139    0.059007    1.567534
     31          1           0        3.660724   -1.610047    1.174012
     32          1           0        1.053260   -0.624429    1.734686
     33          1           0        1.343345   -2.126528    0.883306
 ---------------------------------------------------------------------

 SCF Done:  E(RB3LYP) =  -432.467330981     A.U. after    1 cycles

 The electronic state is 1-A.
 Alpha  occ. eigenvalues --  -10.17594 -10.17402 -10.17386 -10.17236 -10.17107
 Alpha  occ. eigenvalues --  -10.17078 -10.16993 -10.16877 -10.16862 -10.16853
 Alpha  occ. eigenvalues --  -10.16823  -0.83340  -0.79611  -0.75865  -0.72064
 Alpha  occ. eigenvalues --   -0.69893  -0.67811  -0.62814  -0.59456  -0.56983
 Alpha  occ. eigenvalues --   -0.55947  -0.52663  -0.47446  -0.46433  -0.46124
 Alpha  occ. eigenvalues --   -0.44079  -0.41560  -0.41113  -0.40675  -0.39960
 Alpha  occ. eigenvalues --   -0.38480  -0.36923  -0.36119  -0.34372  -0.34197
 Alpha  occ. eigenvalues --   -0.33626  -0.32933  -0.32742  -0.32236  -0.31587
 Alpha  occ. eigenvalues --   -0.31046  -0.29671  -0.29149  -0.28882
 Alpha virt. eigenvalues --    0.07959   0.09309   0.09865   0.10688   0.12007
 Alpha virt. eigenvalues --    0.12715   0.13751   0.14029   0.15444   0.16142
 Alpha virt. eigenvalues --    0.16442   0.16787   0.17309   0.17751   0.18188

 Mulliken charges:
               1
     1  C   -0.380385
     2  C   -0.176191
     3  C   -0.174394
     4  C    0.010467
     5  C   -0.175878
     6  C   -0.388317
     7  C    0.036805
     8  C   -0.231643
     9  C   -0.198373
    10  C   -0.200162
    11  C   -0.211822
    12  H    0.109017
    13  H    0.112482
    14  H    0.112183
    15  H    0.099325
    16  H    0.091982
    17  H    0.083967
    18  H    0.092117
    19  H    0.060917
    20  H    0.092946
    21  H    0.090833
    22  H    0.113852
    23  H    0.107046
    24  H    0.118361
    25  H    0.061987
    26  H    0.095484
    27  H    0.087169
    28  H    0.088659
    29  H    0.093088
    30  H    0.095517
    31  H    0.090899
    32  H    0.097756
    33  H    0.094306
 Sum of Mulliken charges =  -0.00000

 Dipole moment (field-independent basis, Debye):
    X=              0.0147    Y=             -0.0316    Z=             -0.0286  Tot=              0.0451
 Quadrupole moment (field-independent basis, Debye-Ang):
   XX=            -73.8787   YY=            -73.2286   ZZ=            -72.4878
   XY=             -0.0995   XZ=             -0.0530   YZ=              0.5585

  Exact polarizability: 136.250  -0.086 114.100  -0.273  -0.520 103.107
 Approx polarizability: 162.929   0.067 161.970  -0.083   0.880 161.317

                      1                      2                      3
                      A                      A                      A
 Frequencies --     28.5899                53.7851                69.3610
 Red. masses --      2.2900                 2.2698                 2.7562
 Frc consts  --      0.0011                 0.0039                 0.0078
 IR Inten    --      0.0014                 0.0035                 0.0019

                      4                      5                      6
                      A                      A                      A
 Frequencies --    107.0085               114.1136               132.5010
 Red. masses --      1.8698                 2.6313                 2.1046
 Frc consts  --      0.0126                 0.0202                 0.0218
 IR Inten    --      0.0134                 0.0012                 0.0018

                      7                      8                      9
                      A                      A                      A
 Frequencies --    196.9471               230.1459               233.4511
 Red. masses --      1.5757                 1.2946                 2.4188
 Frc consts  --      0.0360                 0.0404                 0.0777
 IR Inten    --      0.0096                 0.0172                 0.0117

                     10                     11                     12
                      A                      A                      A
 Frequencies --    248.9803               291.2030               298.2488
 Red. masses --      1.1441                 3.2754                 2.2010
 Frc consts  --      0.0418                 0.1636                 0.1154
 IR Inten    --      0.0032                 0.0040                 0.0380

                     13                     14                     15
                      A                      A                      A
 Frequencies --    328.9765               350.0967               507.8219
 Red. masses --      2.8092                 2.3092                 2.2126
 Frc consts  --      0.1791                 0.1668                 0.3362
 IR Inten    --      0.2097                 0.0435                 0.2862

                     16                     17                     18
                      A                      A                      A
 Frequencies --    519.3645               592.1920               635.3625
 Red. masses --      1.9689                 2.2227                 2.9874
 Frc consts  --      0.3129                 0.4592                 0.7105
 IR Inten    --      1.1354                 0.1714                 0.1692

                     19                     20                     21
                      A                      A                      A
 Frequencies --    746.2146               769.5529               789.9517
 Red. masses --      1.1390                 1.2866                 1.4710
 Frc consts  --      0.3737                 0.4489                 0.5408
 IR Inten    --      1.5171                 2.4081                 2.2143

                     22                     23                     24
                      A                      A                      A
 Frequencies --    810.8809               844.9347               862.1248
 Red. masses --      1.8432                 1.9414                 1.9837
 Frc consts  --      0.7141                 0.8166                 0.8687
 IR Inten    --      1.1134                 0.2197                 0.8536

                     25                     26                     27
                      A                      A                      A
 Frequencies --    895.5278               902.9329               912.2946
 Red. masses --      1.6918                 2.2088                 1.6951
 Frc consts  --      0.7994                 1.0610                 0.8312
 IR Inten    --      0.8204                 0.3262                 0.9902

                     28                     29                     30
                      A                      A                      A
 Frequencies --    942.8807               966.2137               995.8664
 Red. masses --      1.8204                 1.5204                 2.2963
 Frc consts  --      0.9535                 0.8363                 1.3418
 IR Inten    --      1.0379                 1.3757                 1.1016

                     31                     32                     33
                      A                      A                      A
 Frequencies --   1009.1625              1028.1947              1041.5663
 Red. masses --      1.7588                 1.7467                 2.2416
 Frc consts  --      1.0553                 1.0880                 1.4328
 IR Inten    --      0.3094                 0.2566                 0.3888

                     34                     35                     36
                      A                      A                      A
 Frequencies --   1047.5631              1052.3211              1060.3315
 Red. masses --      1.4056                 1.9371                 2.1703
 Frc consts  --      0.9088                 1.2639                 1.4377
 IR Inten    --      0.3755                 0.0291                 0.6520

                     37                     38                     39
                      A                      A                      A
 Frequencies --   1090.1339              1108.0156              1145.7970
 Red. masses --      2.1181                 1.6702                 2.2916
 Frc consts  --      1.4830                 1.2081                 1.7726
 IR Inten    --      1.0319                 0.4757                 1.5305

                     40                     41                     42
                      A                      A                      A
 Frequencies --   1187.2142              1195.4540              1197.8062
 Red. masses --      1.8695                 1.6644                 1.6833
 Frc consts  --      1.5525                 1.4014                 1.4229
 IR Inten    --      0.6283                 0.0920                 0.1794

                     43                     44                     45
                      A                      A                      A
 Frequencies --   1235.1563              1256.2734              1264.4860
 Red. masses --      1.4590                 1.3654                 1.3062
 Frc consts  --      1.3114                 1.2696                 1.2305
 IR Inten    --      0.2701                 1.4361                 1.6193

                     46                     47                     48
                      A                      A                      A
 Frequencies --   1292.5058              1302.4110              1304.9415
 Red. masses --      1.1800                 1.2336                 1.2396
 Frc consts  --      1.1614                 1.2329                 1.2437
 IR Inten    --      0.8981                 2.5087                 0.8251

                     49                     50                     51
                      A                      A                      A
 Frequencies --   1308.5172              1325.3231              1330.1712
 Red. masses --      1.2823                 1.1952                 1.2857
 Frc consts  --      1.2936                 1.2369                 1.3403
 IR Inten    --      0.3236                 0.3383                 1.2041

                     52                     53                     54
                      A                      A                      A
 Frequencies --   1336.3548              1343.8264              1352.0310
 Red. masses --      1.2017                 1.2722                 1.3444
 Frc consts  --      1.2644                 1.3537                 1.4480
 IR Inten    --      1.1582                 1.2302                 1.9991

                     55                     56                     57
                      A                      A                      A
 Frequencies --   1366.4770              1377.6728              1391.8053
 Red. masses --      1.4200                 1.4239                 1.5214
 Frc consts  --      1.5622                 1.5922                 1.7364
 IR Inten    --      2.4920                 0.2737                 0.9474

                     58                     59                     60
                      A                      A                      A
 Frequencies --   1407.3194              1411.1782              1415.5773
 Red. masses --      1.3748                 1.2348                 1.2756
 Frc consts  --      1.6042                 1.4488                 1.5060
 IR Inten    --      1.8173                 0.3170                 3.2375

                     61                     62                     63
                      A                      A                      A
 Frequencies --   1480.2693              1486.3617              1489.3977
 Red. masses --      1.0768                 1.0787                 1.0790
 Frc consts  --      1.3902                 1.4042                 1.4103
 IR Inten    --      0.0696                 0.8618                 0.6149

                     64                     65                     66
                      A                      A                      A
 Frequencies --   1493.4253              1494.3112              1498.7645
 Red. masses --      1.0673                 1.0792                 1.0592
 Frc consts  --      1.4025                 1.4199                 1.4018
 IR Inten    --      0.9636                 1.9724                 1.5781

                     67                     68                     69
                      A                      A                      A
 Frequencies --   1499.7131              1500.4885              1510.1192
 Red. masses --      1.0429                 1.0411                 1.0800
 Frc consts  --      1.3820                 1.3811                 1.4511
 IR Inten    --      4.4998                 3.1956                 1.9106

                     70                     71                     72
                      A                      A                      A
 Frequencies --   1511.8066              1516.0924              2980.1888
 Red. masses --      1.0835                 1.1045                 1.0811
 Frc consts  --      1.4590                 1.4958                 5.6573
 IR Inten    --      3.5833                 1.7513                 9.6721

                     73                     74                     75
                      A                      A                      A
 Frequencies --   2996.1499              3000.2646              3015.8414
 Red. masses --      1.0696                 1.0731                 1.0645
 Frc consts  --      5.6573                 5.6910                 5.7044
 IR Inten    --     12.7541                21.5956                27.8697

                     76                     77                     78
                      A                      A                      A
 Frequencies --   3023.0099              3024.5434              3027.1062
 Red. masses --      1.0665                 1.0659                 1.0409
 Frc consts  --      5.7423                 5.7452                 5.6198
 IR Inten    --     29.5958                 8.2631                37.8658

                     79                     80                     81
                      A                      A                      A
 Frequencies --   3027.6277              3029.6503              3031.4058
 Red. masses --      1.0593                 1.0629                 1.0640
 Frc consts  --      5.7208                 5.7481                 5.7610
 IR Inten    --     50.3340                19.2943                37.5342

                     82                     83                     84
                      A                      A                      A
 Frequencies --   3035.3850              3053.0293              3055.1465
 Red. masses --      1.0641                 1.0665                 1.0946
 Frc consts  --      5.7762                 5.8568                 6.0197
 IR Inten    --     20.0207                41.2268                16.0921

                     85                     86                     87
                      A                      A                      A
 Frequencies --   3058.3842              3076.5902              3076.8368
 Red. masses --      1.1003                 1.0934                 1.0987
 Frc consts  --      6.0637                 6.0979                 6.1282
 IR Inten    --     31.0474                18.7243                40.8682

                     88                     89                     90
                      A                      A                      A
 Frequencies --   3084.4320              3093.9120              3094.7284
 Red. masses --      1.1020                 1.1020                 1.1016
 Frc consts  --      6.1769                 6.2149                 6.2159
 IR Inten    --     27.5118                10.3935                81.2980

                     91                     92                     93
                      A                      A                      A
 Frequencies --   3097.9185              3099.0533              3106.9428
 Red. masses --      1.1046                 1.1010                 1.1006
 Frc consts  --      6.2459                 6.2302                 6.2593
 IR Inten    --     68.5176                49.3223                43.4447

 - Thermochemistry -
 -------------------
 Temperature   298.150 Kelvin.  Pressure   1.00000 Atm.
 Atom     1 has atomic number  6 and mass  12.00000

 Molecular mass:   154.17215 amu.
 Principal axes and moments of inertia in atomic units:
                           1         2         3
     Eigenvalues --  1070.892443253.390463810.20353
           X            0.99999   0.00391   0.00031
           Y           -0.00391   0.99999  -0.00094
           Z           -0.00032   0.00093   1.00000
 This molecule is an asymmetric top.
 Rotational symmetry number  1.
 Warning -- assumption of classical behavior for rotation
           may cause significant error
 Rotational temperatures (Kelvin)      0.08088     0.02662     0.02273
 Rotational constants (GHZ):           1.68527     0.55473     0.47366
 Zero-point vibrational energy     814250.2 (Joules/Mol)
                                  194.61048 (Kcal/Mol)
 Warning -- explicit consideration of  17 degrees of freedom as
           vibrations may cause significant error
 Vibrational temperatures:     41.13    77.38    99.80   153.96   164.18
          (Kelvin)            190.64   283.36   331.13   335.88   358.23
                              418.98   429.11   473.32   503.71   730.64
                              747.25   852.03   914.14  1073.64  1107.22
                             1136.56  1166.68  1215.67  1240.41  1288.46
                             1299.12  1312.59  1356.59  1390.17  1432.83
                             1451.96  1479.34  1498.58  1507.21  1514.06
                             1525.58  1568.46  1594.19  1648.55  1708.14
                             1719.99  1723.38  1777.11  1807.50  1819.31
                             1859.63  1873.88  1877.52  1882.66  1906.84
                             1913.82  1922.72  1933.47  1945.27  1966.06
                             1982.16  2002.50  2024.82  2030.37  2036.70
                             2129.78  2138.54  2142.91  2148.71  2149.98
                             2156.39  2157.75  2158.87  2172.72  2175.15
                             2181.32  4287.83  4310.79  4316.71  4339.12
                             4349.44  4351.64  4355.33  4356.08  4358.99
                             4361.52  4367.24  4392.63  4395.67  4400.33
                             4426.53  4426.88  4437.81  4451.45  4452.62
                             4457.21  4458.85  4470.20

 Zero-point correction=                           0.310132 (Hartree/Particle)
 Thermal correction to Energy=                    0.323282
 Thermal correction to Enthalpy=                  0.324227
 Thermal correction to Gibbs Free Energy=         0.269799
 Sum of electronic and zero-point Energies=           -432.157199
 Sum of electronic and thermal Energies=              -432.144049
 Sum of electronic and thermal Enthalpies=            -432.143104
 Sum of electronic and thermal Free Energies=         -432.197532

                     E (Thermal)             CV                S
                      KCal/Mol        Cal/Mol-Kelvin    Cal/Mol-Kelvin
 Total                  202.863             49.189            114.553
 Electronic               0.000              0.000              0.000
 Translational            0.889              2.981             41.008
 Rotational               0.889              2.981             30.963
 Vibrational            201.085             43.227             42.581
 Vibration     1          0.593              1.984              5.925
 Vibration     2          0.596              1.976              4.673
 Vibration     3          0.598              1.969              4.171
 Vibration     4          0.606              1.944              3.322
 Vibration     5          0.607              1.938              3.198
 Vibration     6          0.613              1.921              2.909
 Vibration     7          0.636              1.844              2.161
 Vibration     8          0.652              1.795              1.878
 Vibration     9          0.654              1.790              1.852
 Vibration    10          0.662              1.764              1.738
 Vibration    11          0.687              1.690              1.467
 Vibration    12          0.691              1.677              1.427
 Vibration    13          0.712              1.618              1.265
 Vibration    14          0.727              1.575              1.166
 Vibration    15          0.863              1.233              0.639
 Vibration    16          0.874              1.207              0.611
 Vibration    17          0.950              1.048              0.463

 Optimization completed.
    -- Stationary point found.
 Normal termination of Gaussian 16 at Sun May 28 21:48:43 2023.
