 Gaussian 16, Revision A.03,
 Gaussian 16:  ES64L-G16RevA.03 25-Dec-2016

 -----------------------------
 # opt freq b3lyp/6-31g(2df,p)
 -----------------------------

 -------------------
 Title Card Required
 -------------------
 Symbolic Z-matrix:
 Charge =  0 Multiplicity = 1

 SCF Done:  E(RB3LYP) =  -620.913038665     A.U. after   13 cycles
 SCF Done:  E(RB3LYP) =  -620.933923212     A.U. after   11 cycles
 SCF Done:  E(RB3LYP) =  -620.940529950     A.U. after   11 cycles
 SCF Done:  E(RB3LYP) =  -620.942113346     A.U. after   11 cycles
 SCF Done:  E(RB3LYP) =  -620.943965845     A.U. after   12 cycles
 SCF Done:  E(RB3LYP) =  -620.944786166     A.U. after   11 cycles
 SCF Done:  E(RB3LYP) =  -620.946264172     A.U. after   11 cycles
 SCF Done:  E(RB3LYP) =  -620.946869184     A.U. after   12 cycles
 SCF Done:  E(RB3LYP) =  -620.946495920     A.U. after   13 cycles
 SCF Done:  E(RB3LYP) =  -620.947352143     A.U. after   11 cycles
 SCF Done:  E(RB3LYP) =  -620.949539564     A.U. after   10 cycles
 SCF Done:  E(RB3LYP) =  -620.949494485     A.U. after   10 cycles
 SCF Done:  E(RB3LYP) =  -620.949669174     A.U. after   10 cycles
 SCF Done:  E(RB3LYP) =  -620.949741818     A.U. after    9 cycles
 SCF Done:  E(RB3LYP) =  -620.949768841     A.U. after    9 cycles
 SCF Done:  E(RB3LYP) =  -620.949771774     A.U. after    9 cycles
 SCF Done:  E(RB3LYP) =  -620.949773358     A.U. after    8 cycles
 SCF Done:  E(RB3LYP) =  -620.949773411     A.U. after    6 cycles
 SCF Done:  E(RB3LYP) =  -620.949773513     A.U. after    6 cycles
 Optimization completed.
    -- Stationary point found.
 Normal termination of Gaussian 16 at Mon May 22 04:11:06 2023.

 ----------------------------------------------------------------------
 #N Geom=AllCheck Guess=TCheck SCRF=Check GenChk RB3LYP/6-31G(2df,p) Fr
 eq
 ----------------------------------------------------------------------

 Structure from the checkpoint file:  "CCCCOCC1CC1CdCCOC.chk"
 -------------------
 Title Card Required
 -------------------
 Charge =  0 Multiplicity = 1

                         Standard orientation:
 ---------------------------------------------------------------------
 Center     Atomic      Atomic             Coordinates (Angstroms)
 Number     Number       Type             X           Y           Z
 ---------------------------------------------------------------------
      1          6           0        5.741896   -2.536174    0.082283
      2          6           0        5.257871   -1.120377   -0.242595
      3          6           0        3.797115   -0.884204    0.153700
      4          6           0        3.316296    0.523650   -0.169434
      5          8           0        1.967625    0.647657    0.229173
      6          6           0        1.427297    1.927089   -0.021561
      7          6           0        0.013724    1.975378    0.489846
      8          6           0       -0.975146    2.922231   -0.125208
      9          6           0       -1.114084    1.428374   -0.367447
     10          6           0       -2.220305    0.677673    0.251469
     11          6           0       -2.853939   -0.357294   -0.298383
     12          6           0       -3.947908   -1.128118    0.369189
     13          8           0       -5.088006   -1.144305   -0.472897
     14          6           0       -6.130712   -1.932407    0.044915
     15          1           0        6.786837   -2.678109   -0.210537
     16          1           0        5.143042   -3.288683   -0.442472
     17          1           0        5.664823   -2.743692    1.155264
     18          1           0        5.380164   -0.930239   -1.317216
     19          1           0        5.897947   -0.389192    0.268878
     20          1           0        3.665367   -1.060103    1.228481
     21          1           0        3.146515   -1.602298   -0.360482
     22          1           0        3.416245    0.724427   -1.251140
     23          1           0        3.940212    1.271984    0.351145
     24          1           0        1.444484    2.150049   -1.103389
     25          1           0        2.039281    2.702653    0.472443
     26          1           0       -0.076989    1.800368    1.558269
     27          1           0       -0.652983    3.536161   -0.960008
     28          1           0       -1.700944    3.399712    0.523950
     29          1           0       -0.820546    1.080903   -1.354089
     30          1           0       -2.522456    1.012967    1.244749
     31          1           0       -2.576565   -0.702759   -1.292600
     32          1           0       -4.192747   -0.683449    1.348815
     33          1           0       -3.622711   -2.167743    0.561656
     34          1           0       -6.955599   -1.897382   -0.671218
     35          1           0       -6.489462   -1.555017    1.016517
     36          1           0       -5.823491   -2.982298    0.182123
 ---------------------------------------------------------------------

 SCF Done:  E(RB3LYP) =  -620.949773513     A.U. after    1 cycles

 The electronic state is 1-A.
 Alpha  occ. eigenvalues --  -19.13321 -19.13118 -10.22752 -10.22294 -10.22196
 Alpha  occ. eigenvalues --  -10.21779 -10.19226 -10.19108 -10.18770 -10.18193
 Alpha  occ. eigenvalues --  -10.18060 -10.17496 -10.17222 -10.17161  -1.02843
 Alpha  occ. eigenvalues --   -1.02397  -0.86680  -0.79344  -0.78106  -0.73340
 Alpha  occ. eigenvalues --   -0.70639  -0.67828  -0.64071  -0.61360  -0.59144
 Alpha  occ. eigenvalues --   -0.58090  -0.56813  -0.55513  -0.49776  -0.48429
 Alpha  occ. eigenvalues --   -0.48003  -0.47638  -0.47091  -0.45695  -0.44749
 Alpha  occ. eigenvalues --   -0.44066  -0.42506  -0.40703  -0.40078  -0.39270
 Alpha  occ. eigenvalues --   -0.38087  -0.37031  -0.36847  -0.35513  -0.34048
 Alpha  occ. eigenvalues --   -0.33491  -0.33095  -0.32472  -0.31948  -0.31176
 Alpha  occ. eigenvalues --   -0.31036  -0.29190  -0.25112  -0.24928  -0.22702
 Alpha virt. eigenvalues --    0.02091   0.08830   0.09357   0.09855   0.10239
 Alpha virt. eigenvalues --    0.10843   0.12769   0.13002   0.13535   0.14554
 Alpha virt. eigenvalues --    0.14714   0.15261   0.15739   0.16164   0.16560

 Mulliken charges:
               1
     1  C   -0.379039
     2  C   -0.165120
     3  C   -0.177575
     4  C   -0.046937
     5  O   -0.248754
     6  C   -0.072903
     7  C   -0.028478
     8  C   -0.313115
     9  C   -0.030056
    10  C   -0.017916
    11  C   -0.086347
    12  C   -0.107090
    13  O   -0.230271
    14  C   -0.220333
    15  H    0.110906
    16  H    0.115451
    17  H    0.115182
    18  H    0.095634
    19  H    0.095487
    20  H    0.102917
    21  H    0.103956
    22  H    0.080292
    23  H    0.080829
    24  H    0.078292
    25  H    0.084089
    26  H    0.091514
    27  H    0.113703
    28  H    0.114402
    29  H    0.085264
    30  H    0.076764
    31  H    0.085356
    32  H    0.082742
    33  H    0.086888
    34  H    0.124643
    35  H    0.099905
    36  H    0.099718
 Sum of Mulliken charges =  -0.00000

 Dipole moment (field-independent basis, Debye):
    X=              1.0814    Y=              0.3823    Z=              0.5444  Tot=              1.2696
 Quadrupole moment (field-independent basis, Debye-Ang):
   XX=            -84.0193   YY=            -83.8014   ZZ=            -86.3138
   XY=              4.1447   XZ=             -6.2520   YZ=             -0.1370

  Exact polarizability: 176.453  15.413 147.722  -0.099   3.394 113.655
 Approx polarizability: 198.388  23.430 202.620   3.494   9.570 179.734

                      1                      2                      3
                      A                      A                      A
 Frequencies --     18.0092                40.6366                44.8285
 Red. masses --      4.1849                 2.0343                 2.4153
 Frc consts  --      0.0008                 0.0020                 0.0029
 IR Inten    --      0.0179                 0.1967                 0.7183

                      4                      5                      6
                      A                      A                      A
 Frequencies --     52.3761                70.7801                80.7231
 Red. masses --      2.5458                 3.6141                 2.8682
 Frc consts  --      0.0041                 0.0107                 0.0110
 IR Inten    --      0.6297                 1.0894                 2.4689

                      7                      8                      9
                      A                      A                      A
 Frequencies --     95.1283               113.9692               133.2772
 Red. masses --      2.9211                 2.6170                 2.1759
 Frc consts  --      0.0156                 0.0200                 0.0228
 IR Inten    --      1.1686                 0.1028                 0.7255

                     10                     11                     12
                      A                      A                      A
 Frequencies --    152.2270               158.2153               204.1990
 Red. masses --      2.6752                 2.9132                 2.3179
 Frc consts  --      0.0365                 0.0430                 0.0569
 IR Inten    --      1.7194                 1.2052                 1.0127

                     13                     14                     15
                      A                      A                      A
 Frequencies --    234.4619               249.0468               253.0087
 Red. masses --      1.3879                 1.2169                 2.4134
 Frc consts  --      0.0450                 0.0445                 0.0910
 IR Inten    --      1.5167                 0.0565                 0.4759

                     16                     17                     18
                      A                      A                      A
 Frequencies --    262.7585               304.8019               330.6300
 Red. masses --      2.3699                 3.5235                 3.6671
 Frc consts  --      0.0964                 0.1929                 0.2362
 IR Inten    --      2.3409                 0.1240                 1.2983

                     19                     20                     21
                      A                      A                      A
 Frequencies --    367.3978               428.0092               451.3672
 Red. masses --      2.7455                 2.5790                 3.1783
 Frc consts  --      0.2183                 0.2784                 0.3815
 IR Inten    --      0.2594                 1.2661                 3.2351

                     22                     23                     24
                      A                      A                      A
 Frequencies --    494.7923               532.2631               543.1507
 Red. masses --      2.7390                 3.4855                 3.0389
 Frc consts  --      0.3951                 0.5818                 0.5282
 IR Inten    --      2.5960                 1.5357                 0.3721

                     25                     26                     27
                      A                      A                      A
 Frequencies --    744.2548               791.5991               814.6744
 Red. masses --      1.0724                 2.3464                 1.1337
 Frc consts  --      0.3500                 0.8663                 0.4433
 IR Inten    --      2.5114                 1.8565                 0.4487

                     28                     29                     30
                      A                      A                      A
 Frequencies --    827.7972               871.4134               892.2553
 Red. masses --      1.3802                 1.5921                 2.2080
 Frc consts  --      0.5572                 0.7123                 1.0357
 IR Inten    --      1.2380                 2.5428                 7.5959

                     31                     32                     33
                      A                      A                      A
 Frequencies --    907.9953               951.7777               958.1822
 Red. masses --      1.8602                 1.1765                 2.5174
 Frc consts  --      0.9036                 0.6279                 1.3618
 IR Inten    --      5.9534                 0.4062                22.3813

                     34                     35                     36
                      A                      A                      A
 Frequencies --    972.5838               994.5435              1002.2723
 Red. masses --      2.4626                 2.3159                 2.1169
 Frc consts  --      1.3724                 1.3496                 1.2529
 IR Inten    --     17.6741                30.8113                10.6343

                     37                     38                     39
                      A                      A                      A
 Frequencies --   1010.1138              1028.0533              1044.6793
 Red. masses --      1.0953                 2.8718                 3.4248
 Frc consts  --      0.6585                 1.7883                 2.2021
 IR Inten    --     19.7380                 2.9616                 5.8202

                     40                     41                     42
                      A                      A                      A
 Frequencies --   1061.7337              1070.3170              1083.3104
 Red. masses --      1.4251                 1.9313                 1.8824
 Frc consts  --      0.9465                 1.3035                 1.3015
 IR Inten    --      4.6742                 5.0951                 5.8186

                     43                     44                     45
                      A                      A                      A
 Frequencies --   1109.4422              1116.2035              1148.7174
 Red. masses --      2.7987                 1.1217                 2.6518
 Frc consts  --      2.0296                 0.8234                 2.0617
 IR Inten    --     35.4712                17.9241                 3.8150

                     46                     47                     48
                      A                      A                      A
 Frequencies --   1154.5029              1156.5878              1179.7225
 Red. masses --      6.8558                 6.1259                 1.3228
 Frc consts  --      5.3839                 4.8281                 1.0847
 IR Inten    --    373.5708               103.1264                 3.1562

                     49                     50                     51
                      A                      A                      A
 Frequencies --   1186.3278              1201.9815              1202.6583
 Red. masses --      1.6543                 1.8216                 1.8020
 Frc consts  --      1.3717                 1.5506                 1.5357
 IR Inten    --      0.4001                13.8588                 8.9344

                     52                     53                     54
                      A                      A                      A
 Frequencies --   1220.8944              1224.4658              1246.9578
 Red. masses --      1.5722                 1.6175                 1.2691
 Frc consts  --      1.3808                 1.4288                 1.1626
 IR Inten    --      5.7493                24.4032                 4.2822

                     55                     56                     57
                      A                      A                      A
 Frequencies --   1253.0570              1269.3787              1290.9664
 Red. masses --      1.3026                 1.2005                 1.2423
 Frc consts  --      1.2051                 1.1397                 1.2198
 IR Inten    --      3.6811                 2.8209                10.5814

                     58                     59                     60
                      A                      A                      A
 Frequencies --   1293.5497              1311.1115              1323.7717
 Red. masses --      1.3117                 1.1130                 1.0927
 Frc consts  --      1.2932                 1.1272                 1.1281
 IR Inten    --      9.7939                 0.1257                 0.0552

                     61                     62                     63
                      A                      A                      A
 Frequencies --   1328.4772              1352.3725              1378.9453
 Red. masses --      1.2725                 1.2740                 1.3095
 Frc consts  --      1.3231                 1.3728                 1.4671
 IR Inten    --      1.7965                 7.0200                55.2453

                     64                     65                     66
                      A                      A                      A
 Frequencies --   1391.9388              1411.7420              1414.6887
 Red. masses --      1.4991                 1.3226                 1.3198
 Frc consts  --      1.7113                 1.5530                 1.5562
 IR Inten    --     37.4446                21.6241                16.1256

                     67                     68                     69
                      A                      A                      A
 Frequencies --   1434.4126              1463.0932              1478.7473
 Red. masses --      1.5011                 1.5039                 1.1535
 Frc consts  --      1.8197                 1.8968                 1.4861
 IR Inten    --     19.5252                10.8172                 0.7487

                     70                     71                     72
                      A                      A                      A
 Frequencies --   1484.8148              1487.5963              1493.9887
 Red. masses --      1.0572                 1.0649                 1.4638
 Frc consts  --      1.3733                 1.3884                 1.9250
 IR Inten    --      4.3909                 0.4389                 1.2198

                     73                     74                     75
                      A                      A                      A
 Frequencies --   1495.7280              1499.9683              1500.5346
 Red. masses --      1.0893                 1.0401                 1.0864
 Frc consts  --      1.4358                 1.3787                 1.4412
 IR Inten    --      0.3029                 5.0820                 5.2356

                     76                     77                     78
                      A                      A                      A
 Frequencies --   1507.5433              1513.9757              1519.5854
 Red. masses --      1.0842                 1.0930                 1.0803
 Frc consts  --      1.4518                 1.4761                 1.4697
 IR Inten    --      5.9852                 2.1086                 2.0384

                     79                     80                     81
                      A                      A                      A
 Frequencies --   1533.7695              1742.3602              2925.1328
 Red. masses --      1.0997                 6.4214                 1.0628
 Frc consts  --      1.5242                11.4856                 5.3578
 IR Inten    --      1.2500                25.2924                44.0824

                     82                     83                     84
                      A                      A                      A
 Frequencies --   2931.7317              2944.7989              2960.8283
 Red. masses --      1.0538                 1.0544                 1.0960
 Frc consts  --      5.3363                 5.3873                 5.6611
 IR Inten    --     13.4832                96.3386               118.8937

                     85                     86                     87
                      A                      A                      A
 Frequencies --   2961.0396              2963.0570              2970.7076
 Red. masses --      1.0523                 1.1059                 1.0856
 Frc consts  --      5.4362                 5.7205                 5.6444
 IR Inten    --     66.3631                 3.1019                59.5626

                     88                     89                     90
                      A                      A                      A
 Frequencies --   3002.2756              3012.2066              3027.9219
 Red. masses --      1.1027                 1.0587                 1.0472
 Frc consts  --      5.8562                 5.6595                 5.6568
 IR Inten    --     60.1899                19.3749                16.7110

                     91                     92                     93
                      A                      A                      A
 Frequencies --   3031.9597              3038.1431              3072.6681
 Red. masses --      1.0467                 1.1008                 1.1047
 Frc consts  --      5.6689                 5.9865                 6.1448
 IR Inten    --     50.5192                 4.9011                30.9290

                     94                     95                     96
                      A                      A                      A
 Frequencies --   3097.5912              3102.0133              3109.8758
 Red. masses --      1.1022                 1.1012                 1.0951
 Frc consts  --      6.2310                 6.2429                 6.2402
 IR Inten    --     57.4326                38.6192                33.9349

                     97                     98                     99
                      A                      A                      A
 Frequencies --   3115.4058              3129.9131              3144.8479
 Red. masses --      1.0875                 1.0544                 1.0896
 Frc consts  --      6.2191                 6.0856                 6.3493
 IR Inten    --      9.4760                16.8368                 1.7066

                    100                    101                    102
                      A                      A                      A
 Frequencies --   3148.3533              3151.7059              3215.6600
 Red. masses --      1.0888                 1.0867                 1.1161
 Frc consts  --      6.3588                 6.3598                 6.7996
 IR Inten    --      4.0898                31.9709                 9.9890

 - Thermochemistry -
 -------------------
 Temperature   298.150 Kelvin.  Pressure   1.00000 Atm.
 Atom     1 has atomic number  6 and mass  12.00000

 Molecular mass:   198.16198 amu.
 Principal axes and moments of inertia in atomic units:
                           1         2         3
     Eigenvalues --  1955.430159957.76610**********
           X            0.99998  -0.00424  -0.00454
           Y            0.00421   0.99997  -0.00701
           Z            0.00457   0.00699   0.99997
 This molecule is an asymmetric top.
 Rotational symmetry number  1.
 Warning -- assumption of classical behavior for rotation
           may cause significant error
 Rotational temperatures (Kelvin)      0.04429     0.00870     0.00742
 Rotational constants (GHZ):           0.92294     0.18124     0.15470
 Zero-point vibrational energy     843523.0 (Joules/Mol)
                                  201.60683 (Kcal/Mol)
 Warning -- explicit consideration of  24 degrees of freedom as
           vibrations may cause significant error
 Vibrational temperatures:     25.91    58.47    64.50    75.36   101.84
          (Kelvin)            116.14   136.87   163.98   191.76   219.02
                              227.64   293.80   337.34   358.32   364.02
                              378.05   438.54   475.70   528.60   615.81
                              649.42   711.90   765.81   781.47  1070.82
                             1138.93  1172.13  1191.02  1253.77  1283.76
                             1306.40  1369.40  1378.61  1399.33  1430.93
                             1442.05  1453.33  1479.14  1503.06  1527.60
                             1539.95  1558.64  1596.24  1605.97  1652.75
                             1661.07  1664.07  1697.36  1706.86  1729.38
                             1730.36  1756.59  1761.73  1794.09  1802.87
                             1826.35  1857.41  1861.13  1886.40  1904.61
                             1911.38  1945.76  1983.99  2002.69  2031.18
                             2035.42  2063.80  2105.06  2127.59  2136.32
                             2140.32  2149.52  2152.02  2158.12  2158.93
                             2169.02  2178.27  2186.34  2206.75  2506.87
                             4208.61  4218.11  4236.91  4259.97  4260.28
                             4263.18  4274.19  4319.60  4333.89  4356.50
                             4362.31  4371.21  4420.88  4456.74  4463.11
                             4474.42  4482.37  4503.25  4524.73  4529.78
                             4534.60  4626.62

 Zero-point correction=                           0.321281 (Hartree/Particle)
 Thermal correction to Energy=                    0.338601
 Thermal correction to Enthalpy=                  0.339545
 Thermal correction to Gibbs Free Energy=         0.273147
 Sum of electronic and zero-point Energies=           -620.628493
 Sum of electronic and thermal Energies=              -620.611173
 Sum of electronic and thermal Enthalpies=            -620.610229
 Sum of electronic and thermal Free Energies=         -620.676626

                     E (Thermal)             CV                S
                      KCal/Mol        Cal/Mol-Kelvin    Cal/Mol-Kelvin
 Total                  212.475             60.940            139.746
 Electronic               0.000              0.000              0.000
 Translational            0.889              2.981             41.757
 Rotational               0.889              2.981             33.785
 Vibrational            210.698             54.978             64.205
 Vibration     1          0.593              1.986              6.842
 Vibration     2          0.594              1.981              5.228
 Vibration     3          0.595              1.979              5.033
 Vibration     4          0.596              1.977              4.726
 Vibration     5          0.598              1.968              4.132
 Vibration     6          0.600              1.962              3.873
 Vibration     7          0.603              1.953              3.552
 Vibration     8          0.607              1.938              3.200
 Vibration     9          0.613              1.920              2.898
 Vibration    10          0.619              1.900              2.644
 Vibration    11          0.621              1.893              2.571
 Vibration    12          0.640              1.834              2.095
 Vibration    13          0.654              1.788              1.845
 Vibration    14          0.662              1.764              1.737
 Vibration    15          0.664              1.758              1.710
 Vibration    16          0.670              1.741              1.643
 Vibration    17          0.696              1.665              1.390
 Vibration    18          0.713              1.614              1.257
 Vibration    19          0.740              1.539              1.091
 Vibration    20          0.790              1.409              0.865
 Vibration    21          0.810              1.358              0.792
 Vibration    22          0.850              1.262              0.671
 Vibration    23          0.887              1.179              0.582
 Vibration    24          0.898              1.155              0.559

 Optimization completed.
    -- Stationary point found.
 Normal termination of Gaussian 16 at Mon May 22 05:45:58 2023.
