 Gaussian 16, Revision A.03,
 Gaussian 16:  ES64L-G16RevA.03 25-Dec-2016

 -----------------------------
 # opt freq b3lyp/6-31g(2df,p)
 -----------------------------

 -------------------
 Title Card Required
 -------------------
 Symbolic Z-matrix:
 Charge =  0 Multiplicity = 1

 SCF Done:  E(RB3LYP) =  -626.813438915     A.U. after   12 cycles
 SCF Done:  E(RB3LYP) =  -626.829841996     A.U. after   11 cycles
 SCF Done:  E(RB3LYP) =  -626.837422527     A.U. after   10 cycles
 SCF Done:  E(RB3LYP) =  -626.839643216     A.U. after   10 cycles
 SCF Done:  E(RB3LYP) =  -626.840586978     A.U. after   11 cycles
 SCF Done:  E(RB3LYP) =  -626.841605887     A.U. after   10 cycles
 SCF Done:  E(RB3LYP) =  -626.842028244     A.U. after   11 cycles
 SCF Done:  E(RB3LYP) =  -626.842600842     A.U. after   10 cycles
 SCF Done:  E(RB3LYP) =  -626.842965185     A.U. after   10 cycles
 SCF Done:  E(RB3LYP) =  -626.843016160     A.U. after    9 cycles
 SCF Done:  E(RB3LYP) =  -626.843035360     A.U. after    8 cycles
 SCF Done:  E(RB3LYP) =  -626.843040672     A.U. after    8 cycles
 SCF Done:  E(RB3LYP) =  -626.843041400     A.U. after    7 cycles
 SCF Done:  E(RB3LYP) =  -626.843041459     A.U. after    6 cycles
 SCF Done:  E(RB3LYP) =  -626.843041480     A.U. after    6 cycles
 SCF Done:  E(RB3LYP) =  -626.843041548     A.U. after    6 cycles
 Optimization completed.
    -- Stationary point found.
 Normal termination of Gaussian 16 at Wed May 24 03:06:45 2023.

 ----------------------------------------------------------------------
 #N Geom=AllCheck Guess=TCheck SCRF=Check GenChk RB3LYP/6-31G(2df,p) Fr
 eq
 ----------------------------------------------------------------------

 Structure from the checkpoint file:  "CCCCCCCqCCCCrCqCrOC.chk"
 -------------------
 Title Card Required
 -------------------
 Charge =  0 Multiplicity = 1

                         Standard orientation:
 ---------------------------------------------------------------------
 Center     Atomic      Atomic             Coordinates (Angstroms)
 Number     Number       Type             X           Y           Z
 ---------------------------------------------------------------------
      1          6           0       -6.444271    0.104390   -0.130317
      2          6           0       -5.236350   -0.779529    0.191950
      3          6           0       -3.894911   -0.106554   -0.118322
      4          6           0       -2.680215   -0.984339    0.200803
      5          6           0       -1.339160   -0.309028   -0.110035
      6          6           0       -0.133687   -1.201459    0.212852
      7          6           0        1.241207   -0.598421   -0.136708
      8          6           0        1.502569    0.747001    0.590420
      9          6           0        1.302776    1.991284   -0.284802
     10          6           0        1.544183    3.304931    0.466198
     11          6           0        1.372564    4.544829   -0.415778
     12          6           0        2.390889   -1.589643    0.143788
     13          6           0        2.215442   -2.964367   -0.508313
     14          8           0        3.576777   -0.961180   -0.344174
     15          6           0        4.774261   -1.407076    0.244034
     16          1           0       -7.386083   -0.403063    0.101356
     17          1           0       -6.464628    0.375144   -1.191975
     18          1           0       -6.417926    1.036168    0.445829
     19          1           0       -5.308522   -1.718890   -0.372397
     20          1           0       -5.261827   -1.062631    1.252753
     21          1           0       -3.822604    0.833955    0.446039
     22          1           0       -3.869365    0.177774   -1.179821
     23          1           0       -2.753690   -1.924837   -0.363278
     24          1           0       -2.706240   -1.267844    1.262505
     25          1           0       -1.276404    0.631350    0.451086
     26          1           0       -1.311258   -0.032301   -1.173166
     27          1           0       -0.265628   -2.147741   -0.323712
     28          1           0       -0.151512   -1.453388    1.283870
     29          1           0        1.267917   -0.415658   -1.220817
     30          1           0        2.534378    0.758973    0.954435
     31          1           0        0.859594    0.815531    1.478584
     32          1           0        0.290435    1.999307   -0.709245
     33          1           0        1.989200    1.930380   -1.140237
     34          1           0        2.555900    3.295910    0.893386
     35          1           0        0.856905    3.365738    1.320976
     36          1           0        2.071744    4.529676   -1.259393
     37          1           0        1.550883    5.466509    0.147379
     38          1           0        0.359402    4.599028   -0.830016
     39          1           0        2.482893   -1.719582    1.237043
     40          1           0        2.002078   -2.857832   -1.577091
     41          1           0        1.404197   -3.531109   -0.044644
     42          1           0        3.126540   -3.560399   -0.403732
     43          1           0        5.582900   -0.800107   -0.172031
     44          1           0        4.991049   -2.463690    0.026907
     45          1           0        4.763686   -1.279043    1.338182
 ---------------------------------------------------------------------

 SCF Done:  E(RB3LYP) =  -626.843041548     A.U. after    1 cycles

 The electronic state is 1-A.
 Alpha  occ. eigenvalues --  -19.13185 -10.22514 -10.21970 -10.17624 -10.17470
 Alpha  occ. eigenvalues --  -10.17308 -10.17284 -10.17261 -10.17234 -10.17039
 Alpha  occ. eigenvalues --  -10.17001 -10.16888 -10.16632 -10.16558 -10.16436
 Alpha  occ. eigenvalues --   -1.02385  -0.81591  -0.79495  -0.77636  -0.75636
 Alpha  occ. eigenvalues --   -0.72756  -0.70334  -0.68150  -0.66267  -0.62329
 Alpha  occ. eigenvalues --   -0.60028  -0.57772  -0.57101  -0.56675  -0.55174
 Alpha  occ. eigenvalues --   -0.48573  -0.47639  -0.46859  -0.45371  -0.44804
 Alpha  occ. eigenvalues --   -0.44540  -0.42436  -0.42059  -0.41512  -0.40971
 Alpha  occ. eigenvalues --   -0.39950  -0.39322  -0.39109  -0.38074  -0.37427
 Alpha  occ. eigenvalues --   -0.36648  -0.36190  -0.35353  -0.34617  -0.34015
 Alpha  occ. eigenvalues --   -0.32900  -0.32721  -0.32252  -0.31940  -0.31627
 Alpha  occ. eigenvalues --   -0.31229  -0.31156  -0.30834  -0.29318  -0.28812
 Alpha  occ. eigenvalues --   -0.24786
 Alpha virt. eigenvalues --    0.08494   0.08960   0.09559   0.10373   0.10931
 Alpha virt. eigenvalues --    0.12189   0.12286   0.12596   0.13299   0.13792
 Alpha virt. eigenvalues --    0.14331   0.14644   0.14725   0.16111   0.16251

 Mulliken charges:
               1
     1  C   -0.379115
     2  C   -0.162584
     3  C   -0.159698
     4  C   -0.180245
     5  C   -0.190090
     6  C   -0.208530
     7  C    0.003957
     8  C   -0.200230
     9  C   -0.162631
    10  C   -0.163547
    11  C   -0.379628
    12  C    0.124485
    13  C   -0.409489
    14  O   -0.246568
    15  C   -0.236262
    16  H    0.109408
    17  H    0.112527
    18  H    0.112444
    19  H    0.092691
    20  H    0.092581
    21  H    0.089934
    22  H    0.090029
    23  H    0.089983
    24  H    0.089963
    25  H    0.099171
    26  H    0.092273
    27  H    0.093607
    28  H    0.087531
    29  H    0.072882
    30  H    0.100075
    31  H    0.080511
    32  H    0.091779
    33  H    0.098530
    34  H    0.093314
    35  H    0.089807
    36  H    0.112831
    37  H    0.107771
    38  H    0.111266
    39  H    0.058057
    40  H    0.119755
    41  H    0.119386
    42  H    0.112654
    43  H    0.124377
    44  H    0.103653
    45  H    0.101388
 Sum of Mulliken charges =  -0.00000

 Dipole moment (field-independent basis, Debye):
    X=              0.0763    Y=             -0.8804    Z=              0.6623  Tot=              1.1043
 Quadrupole moment (field-independent basis, Debye-Ang):
   XX=            -97.0650   YY=            -98.8272   ZZ=            -99.0854
   XY=             -2.2532   XZ=              2.4595   YZ=             -0.1346

  Exact polarizability: 188.843  -2.746 164.315   1.145   0.131 131.442
 Approx polarizability: 220.376   0.554 214.088  -0.129  -0.076 213.045

                      1                      2                      3
                      A                      A                      A
 Frequencies --     24.4008                32.9101                42.6229
 Red. masses --      3.1972                 3.0858                 2.4038
 Frc consts  --      0.0011                 0.0020                 0.0026
 IR Inten    --      0.0382                 0.0307                 0.0733

                      4                      5                      6
                      A                      A                      A
 Frequencies --     49.5384                60.2895                69.4986
 Red. masses --      1.9637                 2.7634                 1.7975
 Frc consts  --      0.0028                 0.0059                 0.0051
 IR Inten    --      0.0479                 0.2315                 0.5214

                      7                      8                      9
                      A                      A                      A
 Frequencies --     81.2355               102.2041               116.8547
 Red. masses --      1.8761                 2.4031                 2.3821
 Frc consts  --      0.0073                 0.0148                 0.0192
 IR Inten    --      1.2127                 0.0687                 0.1244

                     10                     11                     12
                      A                      A                      A
 Frequencies --    122.8782               142.6564               157.7768
 Red. masses --      2.1113                 2.2569                 2.0956
 Frc consts  --      0.0188                 0.0271                 0.0307
 IR Inten    --      0.0109                 0.0385                 0.0200

                     13                     14                     15
                      A                      A                      A
 Frequencies --    165.0397               194.4408               203.3803
 Red. masses --      2.0717                 1.5561                 2.5576
 Frc consts  --      0.0332                 0.0347                 0.0623
 IR Inten    --      0.0770                 0.8259                 0.2796

                     16                     17                     18
                      A                      A                      A
 Frequencies --    228.3553               244.9329               247.6885
 Red. masses --      1.3506                 1.1429                 1.1225
 Frc consts  --      0.0415                 0.0404                 0.0406
 IR Inten    --      0.0765                 0.2337                 0.0086

                     19                     20                     21
                      A                      A                      A
 Frequencies --    257.9308               291.6317               312.3900
 Red. masses --      2.7467                 2.8128                 2.7509
 Frc consts  --      0.1077                 0.1409                 0.1582
 IR Inten    --      1.1088                 1.2465                 2.9427

                     22                     23                     24
                      A                      A                      A
 Frequencies --    325.0562               366.8505               416.6256
 Red. masses --      2.6119                 2.6708                 2.7344
 Frc consts  --      0.1626                 0.2118                 0.2796
 IR Inten    --      0.5574                 0.3590                 0.3916

                     25                     26                     27
                      A                      A                      A
 Frequencies --    425.5011               440.6322               509.0479
 Red. masses --      3.3887                 2.8471                 2.9379
 Frc consts  --      0.3615                 0.3257                 0.4486
 IR Inten    --      1.5350                 3.3656                 0.7560

                     28                     29                     30
                      A                      A                      A
 Frequencies --    527.9048               565.6918               729.9602
 Red. masses --      2.7366                 2.4288                 1.0841
 Frc consts  --      0.4493                 0.4579                 0.3404
 IR Inten    --      2.0907                 0.1786                 5.5899

                     31                     32                     33
                      A                      A                      A
 Frequencies --    733.0465               747.0558               779.6085
 Red. masses --      1.0644                 1.1098                 1.1935
 Frc consts  --      0.3370                 0.3649                 0.4274
 IR Inten    --      3.5786                 0.0909                 0.4832

                     34                     35                     36
                      A                      A                      A
 Frequencies --    795.9052               849.6175               870.2076
 Red. masses --      1.2415                 2.1141                 1.8217
 Frc consts  --      0.4634                 0.8991                 0.8128
 IR Inten    --      0.9244                 3.1180                 3.3308

                     37                     38                     39
                      A                      A                      A
 Frequencies --    891.2316               898.1756               915.2386
 Red. masses --      1.6067                 1.9368                 1.5733
 Frc consts  --      0.7519                 0.9206                 0.7765
 IR Inten    --      2.3677                 3.4034                 2.6994

                     40                     41                     42
                      A                      A                      A
 Frequencies --    918.6794               959.9838               998.7035
 Red. masses --      1.5379                 1.5217                 2.2893
 Frc consts  --      0.7647                 0.8262                 1.3453
 IR Inten    --      1.9890                 0.8703                 1.7898

                     43                     44                     45
                      A                      A                      A
 Frequencies --   1003.1597              1018.4839              1030.8794
 Red. masses --      2.2363                 2.6321                 2.1803
 Frc consts  --      1.3259                 1.6087                 1.3651
 IR Inten    --      0.1397                 3.4519                 3.3792

                     46                     47                     48
                      A                      A                      A
 Frequencies --   1046.7394              1064.8229              1067.8570
 Red. masses --      2.9709                 2.4498                 2.2274
 Frc consts  --      1.9178                 1.6366                 1.4965
 IR Inten    --      1.7596                 0.7139                 2.3380

                     49                     50                     51
                      A                      A                      A
 Frequencies --   1071.8834              1078.4846              1098.1768
 Red. masses --      2.2139                 1.4604                 1.7558
 Frc consts  --      1.4987                 1.0008                 1.2476
 IR Inten    --      1.2864                 2.1054                 0.6230

                     52                     53                     54
                      A                      A                      A
 Frequencies --   1102.4096              1117.6869              1139.8498
 Red. masses --      1.9222                 2.4709                 3.1670
 Frc consts  --      1.3764                 1.8186                 2.4243
 IR Inten    --      3.9937                12.0041               110.4182

                     55                     56                     57
                      A                      A                      A
 Frequencies --   1149.6204              1173.2183              1184.3359
 Red. masses --      2.9050                 2.2269                 1.4461
 Frc consts  --      2.2621                 1.8060                 1.1951
 IR Inten    --     10.9457                46.3244                 5.8620

                     58                     59                     60
                      A                      A                      A
 Frequencies --   1187.8044              1214.8940              1226.4600
 Red. masses --      1.8621                 1.5281                 1.6158
 Frc consts  --      1.5479                 1.3288                 1.4320
 IR Inten    --     15.9891                24.2193                 1.0660

                     61                     62                     63
                      A                      A                      A
 Frequencies --   1249.9814              1252.4335              1274.1451
 Red. masses --      1.4035                 1.3292                 1.3255
 Frc consts  --      1.2920                 1.2284                 1.2678
 IR Inten    --      2.4871                 1.5165                 4.2447

                     64                     65                     66
                      A                      A                      A
 Frequencies --   1280.6389              1300.4000              1317.8470
 Red. masses --      1.3894                 1.2820                 1.2241
 Frc consts  --      1.3425                 1.2773                 1.2526
 IR Inten    --      3.0628                 1.7729                 0.2175

                     67                     68                     69
                      A                      A                      A
 Frequencies --   1322.0066              1326.7875              1330.5448
 Red. masses --      1.2830                 1.1086                 1.1165
 Frc consts  --      1.3212                 1.1498                 1.1646
 IR Inten    --      0.8712                 4.1051                 2.4371

                     70                     71                     72
                      A                      A                      A
 Frequencies --   1333.4463              1338.4666              1353.4896
 Red. masses --      1.0883                 1.1013                 1.2404
 Frc consts  --      1.1401                 1.1625                 1.3388
 IR Inten    --      0.4418                 4.2340                 2.6746

                     73                     74                     75
                      A                      A                      A
 Frequencies --   1369.3606              1375.2181              1377.8959
 Red. masses --      1.2478                 1.3736                 1.3701
 Frc consts  --      1.3786                 1.5305                 1.5326
 IR Inten    --      8.5044                 5.3820                 7.6441

                     76                     77                     78
                      A                      A                      A
 Frequencies --   1392.1243              1395.5261              1400.5399
 Red. masses --      1.4707                 1.5505                 1.6086
 Frc consts  --      1.6793                 1.7791                 1.8590
 IR Inten    --      4.9316                 3.5779                 0.8914

                     79                     80                     81
                      A                      A                      A
 Frequencies --   1405.5728              1407.8335              1413.1311
 Red. masses --      1.4175                 1.2997                 1.2747
 Frc consts  --      1.6500                 1.5178                 1.4998
 IR Inten    --      5.1577                 6.8975                 1.0003

                     82                     83                     84
                      A                      A                      A
 Frequencies --   1413.3697              1475.5095              1480.1819
 Red. masses --      1.2528                 1.1009                 1.0782
 Frc consts  --      1.4745                 1.4122                 1.3918
 IR Inten    --      0.5938                 3.6251                 0.6050

                     85                     86                     87
                      A                      A                      A
 Frequencies --   1482.7332              1483.2431              1485.7268
 Red. masses --      1.0725                 1.0663                 1.0664
 Frc consts  --      1.3892                 1.3822                 1.3869
 IR Inten    --      0.2471                 1.3344                 0.1680

                     88                     89                     90
                      A                      A                      A
 Frequencies --   1486.5426              1487.5365              1492.7266
 Red. masses --      1.0849                 1.0724                 1.0584
 Frc consts  --      1.4125                 1.3981                 1.3896
 IR Inten    --      0.1832                 3.9800                 2.4060

                     91                     92                     93
                      A                      A                      A
 Frequencies --   1496.8058              1499.3909              1499.7571
 Red. masses --      1.0743                 1.0702                 1.0410
 Frc consts  --      1.4180                 1.4176                 1.3796
 IR Inten    --      1.2030                 0.3046                 4.8825

                     94                     95                     96
                      A                      A                      A
 Frequencies --   1499.8445              1504.6263              1507.7156
 Red. masses --      1.0403                 1.0528                 1.0822
 Frc consts  --      1.3788                 1.4043                 1.4495
 IR Inten    --      4.8938                 3.2086                 0.2939

                     97                     98                     99
                      A                      A                      A
 Frequencies --   1511.8767              1512.6749              1515.5840
 Red. masses --      1.0738                 1.0783                 1.0952
 Frc consts  --      1.4461                 1.4537                 1.4822
 IR Inten    --      7.3651                 3.5376                 2.7364

                    100                    101                    102
                      A                      A                      A
 Frequencies --   2940.3989              2972.5483              2993.1608
 Red. masses --      1.0805                 1.0387                 1.0701
 Frc consts  --      5.5044                 5.4075                 5.6485
 IR Inten    --     25.2356                69.5896                 2.1282

                    103                    104                    105
                      A                      A                      A
 Frequencies --   2998.4319              3001.2499              3002.8995
 Red. masses --      1.0593                 1.0601                 1.0707
 Frc consts  --      5.6114                 5.6258                 5.6888
 IR Inten    --      0.2543                 6.1665                 5.3864

                    106                    107                    108
                      A                      A                      A
 Frequencies --   3007.6318              3009.8969              3012.1650
 Red. masses --      1.0592                 1.0653                 1.0628
 Frc consts  --      5.6451                 5.6865                 5.6817
 IR Inten    --      6.4255                 3.3699                 1.3315

                    109                    110                    111
                      A                      A                      A
 Frequencies --   3016.3450              3018.2717              3020.0817
 Red. masses --      1.0634                 1.1002                 1.0949
 Frc consts  --      5.7005                 5.9051                 5.8840
 IR Inten    --     87.9296                54.8993                 5.2727

                    112                    113                    114
                      A                      A                      A
 Frequencies --   3022.5858              3027.4681              3027.7758
 Red. masses --      1.0626                 1.0377                 1.0360
 Frc consts  --      5.7199                 5.6038                 5.5959
 IR Inten    --     82.2388                41.7964                57.5583

                    115                    116                    117
                      A                      A                      A
 Frequencies --   3031.5524              3032.7732              3040.7796
 Red. masses --      1.0991                 1.0976                 1.0421
 Frc consts  --      5.9512                 5.9480                 5.6770
 IR Inten    --      0.6346                 4.4486                13.3692

                    118                    119                    120
                      A                      A                      A
 Frequencies --   3046.9050              3053.5609              3056.2135
 Red. masses --      1.0932                 1.0995                 1.1010
 Frc consts  --      5.9794                 6.0401                 6.0589
 IR Inten    --     13.5491                15.7036                16.3542

                    121                    122                    123
                      A                      A                      A
 Frequencies --   3071.6846              3080.1526              3093.5546
 Red. masses --      1.1006                 1.0976                 1.1019
 Frc consts  --      6.1184                 6.1352                 6.2131
 IR Inten    --    112.7181                34.9775                64.9047

                    124                    125                    126
                      A                      A                      A
 Frequencies --   3093.8854              3097.8700              3099.1613
 Red. masses --      1.1020                 1.1010                 1.1010
 Frc consts  --      6.2150                 6.2253                 6.2303
 IR Inten    --     62.0586                41.9185                39.0888

                    127                    128                    129
                      A                      A                      A
 Frequencies --   3104.8595              3109.6551              3120.1454
 Red. masses --      1.0958                 1.1007                 1.1001
 Frc consts  --      6.2242                 6.2711                 6.3099
 IR Inten    --     33.4409                32.0646                25.7162

 - Thermochemistry -
 -------------------
 Temperature   298.150 Kelvin.  Pressure   1.00000 Atm.
 Atom     1 has atomic number  6 and mass  12.00000

 Molecular mass:   214.22967 amu.
 Principal axes and moments of inertia in atomic units:
                           1         2         3
     Eigenvalues --  3079.241098060.28167**********
           X            1.00000   0.00127   0.00242
           Y           -0.00126   0.99999  -0.00316
           Z           -0.00242   0.00316   0.99999
 This molecule is an asymmetric top.
 Rotational symmetry number  1.
 Warning -- assumption of classical behavior for rotation
           may cause significant error
 Rotational temperatures (Kelvin)      0.02813     0.01075     0.00801
 Rotational constants (GHZ):           0.58610     0.22391     0.16687
 Zero-point vibrational energy    1100845.8 (Joules/Mol)
                                  263.10846 (Kcal/Mol)
 Warning -- explicit consideration of  29 degrees of freedom as
           vibrations may cause significant error
 Vibrational temperatures:     35.11    47.35    61.32    71.27    86.74
          (Kelvin)             99.99   116.88   147.05   168.13   176.79
                              205.25   227.01   237.46   279.76   292.62
                              328.55   352.40   356.37   371.10   419.59
                              449.46   467.68   527.82   599.43   612.20
                              633.97   732.41   759.54   813.90  1050.25
                             1054.69  1074.85  1121.68  1145.13  1222.41
                             1252.03  1282.28  1292.27  1316.82  1321.77
                             1381.20  1436.91  1443.32  1465.37  1483.21
                             1506.02  1532.04  1536.41  1542.20  1551.70
                             1580.03  1586.12  1608.10  1639.99  1654.05
                             1688.00  1704.00  1708.99  1747.96  1764.60
                             1798.44  1801.97  1833.21  1842.55  1870.99
                             1896.09  1902.07  1908.95  1914.36  1918.53
                             1925.75  1947.37  1970.20  1978.63  1982.48
                             2002.96  2007.85  2015.06  2022.31  2025.56
                             2033.18  2033.52  2122.93  2129.65  2133.32
                             2134.06  2137.63  2138.80  2140.23  2147.70
                             2153.57  2157.29  2157.82  2157.94  2164.82
                             2169.27  2175.25  2176.40  2180.59  4230.58
                             4276.83  4306.49  4314.07  4318.13  4320.50
                             4327.31  4330.57  4333.83  4339.85  4342.62
                             4345.22  4348.83  4355.85  4356.29  4361.73
                             4363.48  4375.00  4383.82  4393.39  4397.21
                             4419.47  4431.65  4450.94  4451.41  4457.14
                             4459.00  4467.20  4474.10  4489.19

 Zero-point correction=                           0.419290 (Hartree/Particle)
 Thermal correction to Energy=                    0.439717
 Thermal correction to Enthalpy=                  0.440661
 Thermal correction to Gibbs Free Energy=         0.368079
 Sum of electronic and zero-point Energies=           -626.423752
 Sum of electronic and thermal Energies=              -626.403325
 Sum of electronic and thermal Enthalpies=            -626.402381
 Sum of electronic and thermal Free Energies=         -626.474963

                     E (Thermal)             CV                S
                      KCal/Mol        Cal/Mol-Kelvin    Cal/Mol-Kelvin
 Total                  275.926             72.932            152.762
 Electronic               0.000              0.000              0.000
 Translational            0.889              2.981             41.989
 Rotational               0.889              2.981             33.950
 Vibrational            274.149             66.970             76.822
 Vibration     1          0.593              1.985              6.239
 Vibration     2          0.594              1.983              5.646
 Vibration     3          0.595              1.980              5.133
 Vibration     4          0.595              1.978              4.836
 Vibration     5          0.597              1.973              4.448
 Vibration     6          0.598              1.969              4.168
 Vibration     7          0.600              1.962              3.861
 Vibration     8          0.604              1.947              3.412
 Vibration     9          0.608              1.935              3.152
 Vibration    10          0.610              1.930              3.055
 Vibration    11          0.616              1.911              2.768
 Vibration    12          0.621              1.894              2.576
 Vibration    13          0.623              1.885              2.491
 Vibration    14          0.635              1.848              2.185
 Vibration    15          0.639              1.835              2.102
 Vibration    16          0.651              1.798              1.892
 Vibration    17          0.660              1.771              1.767
 Vibration    18          0.661              1.767              1.747
 Vibration    19          0.667              1.749              1.676
 Vibration    20          0.687              1.689              1.464
 Vibration    21          0.701              1.650              1.350
 Vibration    22          0.709              1.625              1.285
 Vibration    23          0.740              1.540              1.093
 Vibration    24          0.780              1.434              0.904
 Vibration    25          0.787              1.415              0.873
 Vibration    26          0.801              1.382              0.825
 Vibration    27          0.864              1.230              0.636
 Vibration    28          0.883              1.188              0.592
 Vibration    29          0.922              1.105              0.513

 Optimization completed on the basis of negligible forces.
    -- Stationary point found.
 Normal termination of Gaussian 16 at Wed May 24 06:46:02 2023.
