 Gaussian 16, Revision A.03,
 Gaussian 16:  ES64L-G16RevA.03 25-Dec-2016

 -----------------------------
 # opt freq b3lyp/6-31g(2df,p)
 -----------------------------

 -------------------
 Title Card Required
 -------------------
 Symbolic Z-matrix:
 Charge =  0 Multiplicity = 1

 SCF Done:  E(RB3LYP) =  -700.463043101     A.U. after   15 cycles
 SCF Done:  E(RB3LYP) =  -700.505799615     A.U. after   13 cycles
 SCF Done:  E(RB3LYP) =  -700.507337358     A.U. after   12 cycles
 SCF Done:  E(RB3LYP) =  -700.503578727     A.U. after   13 cycles
 SCF Done:  E(RB3LYP) =  -700.508682956     A.U. after   12 cycles
 SCF Done:  E(RB3LYP) =  -700.506774959     A.U. after   14 cycles
 SCF Done:  E(RB3LYP) =  -700.508822105     A.U. after   12 cycles
 SCF Done:  E(RB3LYP) =  -700.509053382     A.U. after   11 cycles
 SCF Done:  E(RB3LYP) =  -700.509066498     A.U. after   11 cycles
 SCF Done:  E(RB3LYP) =  -700.509173843     A.U. after   10 cycles
 SCF Done:  E(RB3LYP) =  -700.509413899     A.U. after    9 cycles
 SCF Done:  E(RB3LYP) =  -700.509413421     A.U. after    9 cycles
 SCF Done:  E(RB3LYP) =  -700.509414093     A.U. after    9 cycles
 SCF Done:  E(RB3LYP) =  -700.509415473     A.U. after    9 cycles
 SCF Done:  E(RB3LYP) =  -700.509415800     A.U. after    9 cycles
 SCF Done:  E(RB3LYP) =  -700.509415828     A.U. after    8 cycles
 SCF Done:  E(RB3LYP) =  -700.509415873     A.U. after    8 cycles
 SCF Done:  E(RB3LYP) =  -700.509415868     A.U. after    6 cycles
 SCF Done:  E(RB3LYP) =  -700.509415870     A.U. after    6 cycles
 Optimization completed.
    -- Stationary point found.
 Normal termination of Gaussian 16 at Tue May 23 08:47:20 2023.

 ----------------------------------------------------------------------
 #N Geom=AllCheck Guess=TCheck SCRF=Check GenChk RB3LYP/6-31G(2df,p) Fr
 eq
 ----------------------------------------------------------------------

 Structure from the checkpoint file:  "CCCCCCtCCOCtCCCCCCC.chk"
 -------------------
 Title Card Required
 -------------------
 Charge =  0 Multiplicity = 1

                         Standard orientation:
 ---------------------------------------------------------------------
 Center     Atomic      Atomic             Coordinates (Angstroms)
 Number     Number       Type             X           Y           Z
 ---------------------------------------------------------------------
      1          6           0        9.665229    0.269600    0.499040
      2          6           0        8.229335    0.694338    0.180020
      3          6           0        7.233912   -0.470183    0.220528
      4          6           0        5.796685   -0.049047   -0.097767
      5          6           0        4.809335   -1.232844   -0.052505
      6          6           0        3.433362   -0.854493   -0.349053
      7          6           0        2.303922   -0.514628   -0.590501
      8          6           0        0.945976   -0.123335   -0.909664
      9          8           0        0.258705    0.277383    0.309890
     10          6           0       -0.980385    0.640918    0.124910
     11          6           0       -2.122596    0.991733   -0.018651
     12          6           0       -3.524911    1.377826   -0.158467
     13          6           0       -4.516757    0.226872    0.103746
     14          6           0       -5.978594    0.657853   -0.046094
     15          6           0       -6.976221   -0.475973    0.212693
     16          6           0       -8.440612   -0.049087    0.064226
     17          6           0       -9.430431   -1.187787    0.324633
     18          1           0       10.351264    1.121474    0.462222
     19          1           0       10.025157   -0.478789   -0.215835
     20          1           0        9.734891   -0.170802    1.499941
     21          1           0        8.196693    1.162793   -0.812484
     22          1           0        7.908689    1.467950    0.890048
     23          1           0        7.265180   -0.939937    1.213810
     24          1           0        7.553403   -1.245701   -0.490071
     25          1           0        5.753049    0.412544   -1.091507
     26          1           0        5.464361    0.717172    0.612542
     27          1           0        4.845905   -1.703010    0.939350
     28          1           0        5.131851   -2.006979   -0.761836
     29          1           0        0.386254   -0.950670   -1.363467
     30          1           0        0.925644    0.722090   -1.608619
     31          1           0       -3.695729    1.777599   -1.167700
     32          1           0       -3.746090    2.207363    0.527384
     33          1           0       -4.344225   -0.166533    1.112822
     34          1           0       -4.296647   -0.595987   -0.587356
     35          1           0       -6.138935    1.058866   -1.057074
     36          1           0       -6.186107    1.488366    0.643536
     37          1           0       -6.816161   -0.877036    1.223345
     38          1           0       -6.769139   -1.306728   -0.476504
     39          1           0       -8.599796    0.351337   -0.945933
     40          1           0       -8.646765    0.780721    0.753391
     41          1           0       -9.271241   -2.017957   -0.372721
     42          1           0      -10.466257   -0.852540    0.211385
     43          1           0       -9.318393   -1.585243    1.339646
 ---------------------------------------------------------------------

 SCF Done:  E(RB3LYP) =  -700.509415870     A.U. after    1 cycles

 The electronic state is 1-A.
 Alpha  occ. eigenvalues --  -19.19111 -10.26658 -10.20958 -10.20693 -10.19481
 Alpha  occ. eigenvalues --  -10.18812 -10.18523 -10.18296 -10.18196 -10.17691
 Alpha  occ. eigenvalues --  -10.17535 -10.17480 -10.17441 -10.17402 -10.17289
 Alpha  occ. eigenvalues --  -10.16877 -10.15700  -1.08029  -0.81765  -0.80602
 Alpha  occ. eigenvalues --   -0.78977  -0.77721  -0.76686  -0.73304  -0.71535
 Alpha  occ. eigenvalues --   -0.69061  -0.67135  -0.63894  -0.61271  -0.58374
 Alpha  occ. eigenvalues --   -0.58103  -0.57146  -0.55258  -0.51196  -0.48407
 Alpha  occ. eigenvalues --   -0.48351  -0.47580  -0.46634  -0.45704  -0.44603
 Alpha  occ. eigenvalues --   -0.44493  -0.42290  -0.41965  -0.41512  -0.40389
 Alpha  occ. eigenvalues --   -0.39560  -0.39194  -0.39082  -0.38337  -0.36745
 Alpha  occ. eigenvalues --   -0.36127  -0.35639  -0.34571  -0.34205  -0.33481
 Alpha  occ. eigenvalues --   -0.33071  -0.32631  -0.32588  -0.32216  -0.31679
 Alpha  occ. eigenvalues --   -0.31331  -0.26904  -0.25652  -0.23796  -0.21657
 Alpha virt. eigenvalues --    0.02164   0.04717   0.07919   0.08498   0.08851
 Alpha virt. eigenvalues --    0.09682   0.10715   0.11527   0.11694   0.12119
 Alpha virt. eigenvalues --    0.12539   0.12591   0.13141   0.13728   0.15103

 Mulliken charges:
               1
     1  C   -0.379792
     2  C   -0.171243
     3  C   -0.156893
     4  C   -0.172183
     5  C   -0.366631
     6  C    0.091159
     7  C    0.068860
     8  C   -0.236886
     9  O   -0.239426
    10  C    0.114363
    11  C    0.039222
    12  C   -0.362335
    13  C   -0.166907
    14  C   -0.174576
    15  C   -0.164366
    16  C   -0.162377
    17  C   -0.379498
    18  H    0.112772
    19  H    0.113700
    20  H    0.114334
    21  H    0.096338
    22  H    0.097643
    23  H    0.094114
    24  H    0.092711
    25  H    0.106540
    26  H    0.110976
    27  H    0.134340
    28  H    0.130493
    29  H    0.142935
    30  H    0.142801
    31  H    0.118321
    32  H    0.121840
    33  H    0.104077
    34  H    0.099512
    35  H    0.090221
    36  H    0.091575
    37  H    0.092151
    38  H    0.090970
    39  H    0.092693
    40  H    0.093266
    41  H    0.112529
    42  H    0.109639
    43  H    0.113019
 Sum of Mulliken charges =  -0.00000

 Dipole moment (field-independent basis, Debye):
    X=              1.4154    Y=             -0.4706    Z=             -1.2260  Tot=              1.9308
 Quadrupole moment (field-independent basis, Debye-Ang):
   XX=            -89.0485   YY=           -106.1217   ZZ=           -104.4836
   XY=             -3.3301   XZ=              0.2719   YZ=             -0.0095

  Exact polarizability: 288.006 -12.141 143.633   6.003  -1.436 134.074
 Approx polarizability: 315.791 -31.325 212.865  13.265  -3.009 209.386

                      1                      2                      3
                      A                      A                      A
 Frequencies --      6.6397                 9.3930                14.4179
 Red. masses --      3.8404                 4.4773                 4.1304
 Frc consts  --      0.0001                 0.0002                 0.0005
 IR Inten    --      0.0198                 0.0395                 1.8069

                      4                      5                      6
                      A                      A                      A
 Frequencies --     32.3482                41.2279                53.4231
 Red. masses --      1.6219                 2.0036                 3.9477
 Frc consts  --      0.0010                 0.0020                 0.0066
 IR Inten    --      0.1608                 0.0526                 1.7839

                      7                      8                      9
                      A                      A                      A
 Frequencies --     61.2021                67.8954                77.8185
 Red. masses --      3.5636                 3.6723                 2.6149
 Frc consts  --      0.0079                 0.0100                 0.0093
 IR Inten    --      0.2877                 0.3707                 0.2499

                     10                     11                     12
                      A                      A                      A
 Frequencies --    102.9972               112.1128               126.4490
 Red. masses --      2.3222                 2.0981                 2.4439
 Frc consts  --      0.0145                 0.0155                 0.0230
 IR Inten    --      0.1564                 0.0961                 0.0235

                     13                     14                     15
                      A                      A                      A
 Frequencies --    135.3646               145.5758               149.6706
 Red. masses --      2.3487                 2.6195                 2.5017
 Frc consts  --      0.0254                 0.0327                 0.0330
 IR Inten    --      0.0636                 0.1851                 0.2767

                     16                     17                     18
                      A                      A                      A
 Frequencies --    170.5040               236.2614               247.2536
 Red. masses --      3.2510                 3.6503                 1.1177
 Frc consts  --      0.0557                 0.1200                 0.0403
 IR Inten    --      1.8853                 0.7141                 0.0110

                     19                     20                     21
                      A                      A                      A
 Frequencies --    247.3079               263.9293               291.4508
 Red. masses --      1.1339                 3.5781                 3.8078
 Frc consts  --      0.0409                 0.1469                 0.1906
 IR Inten    --      0.0181                 0.8753                 5.0402

                     22                     23                     24
                      A                      A                      A
 Frequencies --    302.9593               320.5337               356.2936
 Red. masses --      3.9444                 3.8323                 3.8057
 Frc consts  --      0.2133                 0.2320                 0.2846
 IR Inten    --      5.8682                 0.8379                 0.6575

                     25                     26                     27
                      A                      A                      A
 Frequencies --    392.2686               423.5637               438.4252
 Red. masses --      3.3122                 5.2429                 3.4337
 Frc consts  --      0.3003                 0.5542                 0.3889
 IR Inten    --      0.0054                 0.1322                 0.1556

                     28                     29                     30
                      A                      A                      A
 Frequencies --    465.5710               509.0571               527.0397
 Red. masses --      5.0505                 4.9601                 7.4559
 Frc consts  --      0.6450                 0.7573                 1.2202
 IR Inten    --      1.1910                 7.5499                 2.0299

                     31                     32                     33
                      A                      A                      A
 Frequencies --    557.5109               730.9532               731.8992
 Red. masses --      5.6750                 1.0638                 1.0696
 Frc consts  --      1.0393                 0.3349                 0.3376
 IR Inten    --      2.9835                 4.1480                 4.0020

                     34                     35                     36
                      A                      A                      A
 Frequencies --    740.5267               754.8398               788.0804
 Red. masses --      1.1041                 1.1393                 4.2024
 Frc consts  --      0.3567                 0.3825                 1.5378
 IR Inten    --      0.1177                 0.0688                 0.7544

                     37                     38                     39
                      A                      A                      A
 Frequencies --    790.7446               841.8819               850.9202
 Red. masses --      1.1933                 1.2349                 4.6918
 Frc consts  --      0.4396                 0.5157                 2.0016
 IR Inten    --      0.4876                 0.6368                38.7089

                     40                     41                     42
                      A                      A                      A
 Frequencies --    884.7682               897.9433               906.7743
 Red. masses --      1.2403                 1.9950                 1.9257
 Frc consts  --      0.5721                 0.9477                 0.9329
 IR Inten    --      0.3319                 1.5230                 4.2607

                     43                     44                     45
                      A                      A                      A
 Frequencies --    946.9721               970.1478               995.4047
 Red. masses --      9.1971                 1.2203                 1.1931
 Frc consts  --      4.8593                 0.6767                 0.6965
 IR Inten    --    187.0743                 0.4609                 0.3872

                     46                     47                     48
                      A                      A                      A
 Frequencies --   1003.7294              1010.1948              1014.3690
 Red. masses --      3.5136                 3.9085                 1.6526
 Frc consts  --      2.0856                 2.3500                 1.0019
 IR Inten    --      2.1361                11.2888                 1.7840

                     49                     50                     51
                      A                      A                      A
 Frequencies --   1023.4929              1036.4499              1055.0353
 Red. masses --      3.2328                 3.1122                 2.6915
 Frc consts  --      1.9953                 1.9698                 1.7652
 IR Inten    --      1.3344                 4.6241                 0.1184

                     52                     53                     54
                      A                      A                      A
 Frequencies --   1068.5282              1070.6033              1127.7843
 Red. masses --      2.3430                 2.2506                 2.3392
 Frc consts  --      1.5761                 1.5198                 1.7530
 IR Inten    --      0.4186                 0.1826                 1.2754

                     55                     56                     57
                      A                      A                      A
 Frequencies --   1132.1174              1132.3549              1134.0332
 Red. masses --      1.3938                 2.4118                 1.3586
 Frc consts  --      1.0526                 1.8221                 1.0294
 IR Inten    --      0.1876                 3.7109                 0.3123

                     58                     59                     60
                      A                      A                      A
 Frequencies --   1178.0495              1224.8067              1230.5262
 Red. masses --      2.9951                 1.6101                 1.5112
 Frc consts  --      2.4490                 1.4231                 1.3482
 IR Inten    --      8.7191                 0.1456                 0.0635

                     61                     62                     63
                      A                      A                      A
 Frequencies --   1239.0836              1245.6713              1260.2400
 Red. masses --      1.0649                 1.3250                 1.3318
 Frc consts  --      0.9633                 1.2113                 1.2462
 IR Inten    --      2.1310                81.0032                37.6051

                     64                     65                     66
                      A                      A                      A
 Frequencies --   1270.9848              1279.5694              1293.4568
 Red. masses --      2.7390                 1.3009                 1.2270
 Frc consts  --      2.6069                 1.2550                 1.2095
 IR Inten    --    235.5601                 0.4408                 0.0455

                     67                     68                     69
                      A                      A                      A
 Frequencies --   1316.5562              1317.3756              1325.9613
 Red. masses --      1.2619                 1.2955                 1.0779
 Frc consts  --      1.2887                 1.3247                 1.1166
 IR Inten    --     12.9071                14.3734                 0.1131

                     70                     71                     72
                      A                      A                      A
 Frequencies --   1328.8411              1333.2635              1333.6152
 Red. masses --      1.0936                 1.0980                 1.3894
 Frc consts  --      1.1378                 1.1499                 1.4559
 IR Inten    --      0.0035                 0.7010                 2.2690

                     73                     74                     75
                      A                      A                      A
 Frequencies --   1334.3976              1367.3750              1381.1452
 Red. masses --      1.0842                 1.5226                 1.4695
 Frc consts  --      1.1375                 1.6773                 1.6515
 IR Inten    --      0.5531                 2.6250                 5.8725

                     76                     77                     78
                      A                      A                      A
 Frequencies --   1392.1203              1400.2482              1400.7155
 Red. masses --      1.5140                 1.5392                 1.5740
 Frc consts  --      1.7287                 1.7781                 1.8195
 IR Inten    --     12.0623                37.7823                20.9507

                     79                     80                     81
                      A                      A                      A
 Frequencies --   1400.9589              1413.3980              1413.8204
 Red. masses --      1.5311                 1.2546                 1.2424
 Frc consts  --      1.7706                 1.4766                 1.4632
 IR Inten    --     36.2984                 0.6298                 0.9504

                     82                     83                     84
                      A                      A                      A
 Frequencies --   1467.0919              1471.4577              1483.3121
 Red. masses --      1.0828                 1.0836                 1.0710
 Frc consts  --      1.3731                 1.3824                 1.3884
 IR Inten    --      1.3961                 0.7607                 0.2082

                     85                     86                     87
                      A                      A                      A
 Frequencies --   1484.1009              1484.6192              1489.2048
 Red. masses --      1.0691                 1.0716                 1.0694
 Frc consts  --      1.3873                 1.3916                 1.3973
 IR Inten    --      0.5461                 0.4290                 0.6807

                     88                     89                     90
                      A                      A                      A
 Frequencies --   1491.4644              1494.3424              1499.7755
 Red. masses --      1.0886                 1.0741                 1.0403
 Frc consts  --      1.4268                 1.4132                 1.3786
 IR Inten    --      1.1801                 0.5976                 4.8923

                     91                     92                     93
                      A                      A                      A
 Frequencies --   1499.9971              1502.2743              1505.6422
 Red. masses --      1.0401                 1.0763                 1.0832
 Frc consts  --      1.3789                 1.4311                 1.4468
 IR Inten    --      5.1658                 0.2119                 0.2923

                     94                     95                     96
                      A                      A                      A
 Frequencies --   1513.4739              1514.5169              2371.7569
 Red. masses --      1.0910                 1.0934                11.8780
 Frc consts  --      1.4724                 1.4776                39.3673
 IR Inten    --      3.6745                 3.3844                66.2489

                     97                     98                     99
                      A                      A                      A
 Frequencies --   2404.4297              2997.6669              3000.5120
 Red. masses --     11.8612                 1.0577                 1.0579
 Frc consts  --     40.4021                 5.5996                 5.6115
 IR Inten    --    198.7359                 0.3922                 8.7459

                    100                    101                    102
                      A                      A                      A
 Frequencies --   3002.8747              3004.0920              3012.6615
 Red. masses --      1.0584                 1.0579                 1.0581
 Frc consts  --      5.6232                 5.6250                 5.6583
 IR Inten    --      1.3235                33.7572                16.6773

                    103                    104                    105
                      A                      A                      A
 Frequencies --   3014.8543              3015.9546              3017.5916
 Red. masses --      1.0597                 1.0594                 1.0554
 Frc consts  --      5.6751                 5.6774                 5.6620
 IR Inten    --     51.3894                21.3014                19.0656

                    106                    107                    108
                      A                      A                      A
 Frequencies --   3020.2978              3025.8816              3027.6929
 Red. masses --      1.0984                 1.0994                 1.0641
 Frc consts  --      5.9038                 5.9306                 5.7473
 IR Inten    --      0.6741                 2.5816                15.2938

                    109                    110                    111
                      A                      A                      A
 Frequencies --   3027.9519              3029.0812              3030.6212
 Red. masses --      1.0685                 1.0358                 1.0602
 Frc consts  --      5.7719                 5.5997                 5.7373
 IR Inten    --     23.7204                34.0009                61.9817

                    112                    113                    114
                      A                      A                      A
 Frequencies --   3033.8080              3034.6156              3039.6745
 Red. masses --      1.1022                 1.0601                 1.0991
 Frc consts  --      5.9770                 5.7516                 5.9835
 IR Inten    --      0.1950                49.0215                 5.5799

                    115                    116                    117
                      A                      A                      A
 Frequencies --   3051.2458              3054.0825              3054.3597
 Red. masses --      1.1038                 1.1068                 1.1048
 Frc consts  --      6.0545                 6.0824                 6.0725
 IR Inten    --     11.7698                15.9831                26.8135

                    118                    119                    120
                      A                      A                      A
 Frequencies --   3075.0488              3079.3962              3094.1609
 Red. masses --      1.1052                 1.1052                 1.1020
 Frc consts  --      6.1575                 6.1748                 6.2162
 IR Inten    --     70.5227                43.5704                60.8877

                    121                    122                    123
                      A                      A                      A
 Frequencies --   3095.5541              3099.4131              3101.9427
 Red. masses --      1.1021                 1.1010                 1.1009
 Frc consts  --      6.2225                 6.2314                 6.2413
 IR Inten    --     63.0270                40.9257                36.9264

 - Thermochemistry -
 -------------------
 Temperature   298.150 Kelvin.  Pressure   1.00000 Atm.
 Atom     1 has atomic number  6 and mass  12.00000

 Molecular mass:   234.19837 amu.
 Principal axes and moments of inertia in atomic units:
                           1         2         3
     Eigenvalues --   685.38058********************
           X            1.00000   0.00228   0.00070
           Y           -0.00226   0.99970  -0.02422
           Z           -0.00076   0.02422   0.99971
 This molecule is an asymmetric top.
 Rotational symmetry number  1.
 Warning -- assumption of classical behavior for rotation
           may cause significant error
 Rotational temperatures (Kelvin)      0.12637     0.00295     0.00291
 Rotational constants (GHZ):           2.63320     0.06140     0.06067
 Zero-point vibrational energy    1004430.6 (Joules/Mol)
                                  240.06469 (Kcal/Mol)
 Warning -- explicit consideration of  31 degrees of freedom as
           vibrations may cause significant error
 Vibrational temperatures:      9.55    13.51    20.74    46.54    59.32
          (Kelvin)             76.86    88.06    97.69   111.96   148.19
                              161.31   181.93   194.76   209.45   215.34
                              245.32   339.93   355.74   355.82   379.74
                              419.33   435.89   461.18   512.63   564.39
                              609.41   630.80   669.85   732.42   758.29
                              802.13  1051.68  1053.04  1065.45  1086.05
                             1133.87  1137.71  1211.28  1224.28  1272.98
                             1291.94  1304.65  1362.48  1395.83  1432.17
                             1444.14  1453.45  1459.45  1472.58  1491.22
                             1517.96  1537.37  1540.36  1622.63  1628.86
                             1629.21  1631.62  1694.95  1762.22  1770.45
                             1782.76  1792.24  1813.20  1828.66  1841.01
                             1861.00  1894.23  1895.41  1907.76  1911.91
                             1918.27  1918.77  1919.90  1967.35  1987.16
                             2002.95  2014.64  2015.32  2015.67  2033.56
                             2034.17  2110.82  2117.10  2134.16  2135.29
                             2136.04  2142.63  2145.88  2150.03  2157.84
                             2158.16  2161.44  2166.28  2177.55  2179.05
                             3412.43  3459.44  4312.97  4317.07  4320.47
                             4322.22  4334.55  4337.70  4339.29  4341.64
                             4345.53  4353.57  4356.17  4356.55  4358.17
                             4360.39  4364.97  4366.14  4373.41  4390.06
                             4394.14  4394.54  4424.31  4430.56  4451.81
                             4453.81  4459.36  4463.00

 Zero-point correction=                           0.382567 (Hartree/Particle)
 Thermal correction to Energy=                    0.404739
 Thermal correction to Enthalpy=                  0.405683
 Thermal correction to Gibbs Free Energy=         0.324222
 Sum of electronic and zero-point Energies=           -700.126848
 Sum of electronic and thermal Energies=              -700.104677
 Sum of electronic and thermal Enthalpies=            -700.103733
 Sum of electronic and thermal Free Energies=         -700.185194

                     E (Thermal)             CV                S
                      KCal/Mol        Cal/Mol-Kelvin    Cal/Mol-Kelvin
 Total                  253.977             76.453            171.450
 Electronic               0.000              0.000              0.000
 Translational            0.889              2.981             42.255
 Rotational               0.889              2.981             34.748
 Vibrational            252.200             70.491             94.447
 Vibration     1          0.593              1.987              8.825
 Vibration     2          0.593              1.987              8.135
 Vibration     3          0.593              1.986              7.284
 Vibration     4          0.594              1.983              5.680
 Vibration     5          0.594              1.981              5.199
 Vibration     6          0.596              1.976              4.686
 Vibration     7          0.597              1.973              4.418
 Vibration     8          0.598              1.970              4.213
 Vibration     9          0.599              1.964              3.945
 Vibration    10          0.605              1.947              3.397
 Vibration    11          0.607              1.939              3.232
 Vibration    12          0.611              1.927              2.999
 Vibration    13          0.613              1.918              2.868
 Vibration    14          0.617              1.907              2.729
 Vibration    15          0.618              1.903              2.676
 Vibration    16          0.626              1.879              2.430
 Vibration    17          0.655              1.785              1.831
 Vibration    18          0.661              1.767              1.750
 Vibration    19          0.661              1.767              1.750
 Vibration    20          0.670              1.739              1.636
 Vibration    21          0.687              1.690              1.466
 Vibration    22          0.694              1.668              1.401
 Vibration    23          0.706              1.634              1.307
 Vibration    24          0.732              1.562              1.138
 Vibration    25          0.760              1.487              0.992
 Vibration    26          0.786              1.419              0.880
 Vibration    27          0.799              1.386              0.832
 Vibration    28          0.823              1.326              0.750
 Vibration    29          0.864              1.230              0.636
 Vibration    30          0.882              1.190              0.594
 Vibration    31          0.913              1.123              0.529

 Optimization completed.
    -- Stationary point found.
 Normal termination of Gaussian 16 at Tue May 23 11:36:48 2023.
