 Gaussian 16, Revision A.03,
 Gaussian 16:  ES64L-G16RevA.03 25-Dec-2016

 -----------------------------
 # opt freq b3lyp/6-31g(2df,p)
 -----------------------------

 -------------------
 Title Card Required
 -------------------
 Symbolic Z-matrix:
 Charge =  0 Multiplicity = 1

 SCF Done:  E(RB3LYP) =  -626.825786049     A.U. after   12 cycles
 SCF Done:  E(RB3LYP) =  -626.829762079     A.U. after   10 cycles
 SCF Done:  E(RB3LYP) =  -626.831071166     A.U. after   10 cycles
 SCF Done:  E(RB3LYP) =  -626.833141234     A.U. after   10 cycles
 SCF Done:  E(RB3LYP) =  -626.833975415     A.U. after   10 cycles
 SCF Done:  E(RB3LYP) =  -626.833047708     A.U. after   11 cycles
 SCF Done:  E(RB3LYP) =  -626.835464710     A.U. after   10 cycles
 SCF Done:  E(RB3LYP) =  -626.835758677     A.U. after   10 cycles
 SCF Done:  E(RB3LYP) =  -626.835940185     A.U. after    9 cycles
 SCF Done:  E(RB3LYP) =  -626.835976728     A.U. after    9 cycles
 SCF Done:  E(RB3LYP) =  -626.835990947     A.U. after    8 cycles
 SCF Done:  E(RB3LYP) =  -626.835996473     A.U. after    8 cycles
 SCF Done:  E(RB3LYP) =  -626.835998613     A.U. after    8 cycles
 SCF Done:  E(RB3LYP) =  -626.835999387     A.U. after    7 cycles
 SCF Done:  E(RB3LYP) =  -626.835999756     A.U. after    7 cycles
 SCF Done:  E(RB3LYP) =  -626.835999960     A.U. after    6 cycles
 SCF Done:  E(RB3LYP) =  -626.836000059     A.U. after    6 cycles
 SCF Done:  E(RB3LYP) =  -626.836000081     A.U. after    5 cycles
 Optimization completed.
    -- Stationary point found.
 Normal termination of Gaussian 16 at Tue May 23 01:09:07 2023.

 ----------------------------------------------------------------------
 #N Geom=AllCheck Guess=TCheck SCRF=Check GenChk RB3LYP/6-31G(2df,p) Fr
 eq
 ----------------------------------------------------------------------

 Structure from the checkpoint file:  "CCCCqCrCCCqCOCrCqCrCC.chk"
 -------------------
 Title Card Required
 -------------------
 Charge =  0 Multiplicity = 1

                         Standard orientation:
 ---------------------------------------------------------------------
 Center     Atomic      Atomic             Coordinates (Angstroms)
 Number     Number       Type             X           Y           Z
 ---------------------------------------------------------------------
      1          6           0       -6.034143    0.557689    0.125962
      2          6           0       -4.887341   -0.427807    0.371571
      3          6           0       -3.543785    0.081675   -0.164708
      4          6           0       -2.323450   -0.809239    0.140716
      5          6           0       -2.440437   -2.184968   -0.533385
      6          6           0       -1.027199   -0.073675   -0.257126
      7          6           0        0.264211   -0.750943    0.225145
      8          6           0        1.569711   -0.015102   -0.143581
      9          6           0        1.589697    1.416104    0.418932
     10          8           0        0.911638    2.293596   -0.459699
     11          6           0        0.885498    3.619544    0.008271
     12          6           0        2.861348   -0.761761    0.311373
     13          6           0        2.761837   -2.292434    0.221884
     14          6           0        4.081890   -0.265112   -0.497885
     15          6           0        5.440831   -0.549755    0.150670
     16          1           0       -6.982492    0.175179    0.516728
     17          1           0       -6.168597    0.748895   -0.944692
     18          1           0       -5.838895    1.521637    0.609287
     19          1           0       -5.138478   -1.390252   -0.089408
     20          1           0       -4.796140   -0.621108    1.449160
     21          1           0       -3.358854    1.079346    0.256595
     22          1           0       -3.618854    0.226240   -1.252682
     23          1           0       -2.295689   -0.967530    1.230438
     24          1           0       -2.476930   -2.078783   -1.624859
     25          1           0       -3.345153   -2.714156   -0.220926
     26          1           0       -1.591815   -2.830974   -0.291258
     27          1           0       -1.070796    0.948354    0.130721
     28          1           0       -0.993537    0.031469   -1.350920
     29          1           0        0.306230   -1.761728   -0.188994
     30          1           0        0.220627   -0.871627    1.318515
     31          1           0        1.607849    0.080339   -1.238019
     32          1           0        2.622980    1.771529    0.559015
     33          1           0        1.115101    1.432461    1.416745
     34          1           0        0.360407    4.221708   -0.737442
     35          1           0        1.901394    4.025639    0.141615
     36          1           0        0.356476    3.705994    0.971100
     37          1           0        3.030553   -0.506877    1.369672
     38          1           0        2.505799   -2.612466   -0.795357
     39          1           0        2.010844   -2.701131    0.901955
     40          1           0        3.717718   -2.757328    0.480394
     41          1           0        4.000524    0.813848   -0.670070
     42          1           0        4.044659   -0.726512   -1.494295
     43          1           0        5.517878   -0.065717    1.130965
     44          1           0        6.258120   -0.170090   -0.470835
     45          1           0        5.613972   -1.620420    0.297417
 ---------------------------------------------------------------------

 SCF Done:  E(RB3LYP) =  -626.836000082     A.U. after    1 cycles

 The electronic state is 1-A.
 Alpha  occ. eigenvalues --  -19.13594 -10.22109 -10.21931 -10.18329 -10.17888
 Alpha  occ. eigenvalues --  -10.17503 -10.17469 -10.17149 -10.17063 -10.16844
 Alpha  occ. eigenvalues --  -10.16813 -10.16681 -10.16672 -10.16319 -10.16211
 Alpha  occ. eigenvalues --   -1.02843  -0.82179  -0.80358  -0.76816  -0.74825
 Alpha  occ. eigenvalues --   -0.71647  -0.70668  -0.67008  -0.66705  -0.63225
 Alpha  occ. eigenvalues --   -0.62090  -0.58632  -0.56603  -0.55092  -0.54533
 Alpha  occ. eigenvalues --   -0.48320  -0.47994  -0.46395  -0.45813  -0.44770
 Alpha  occ. eigenvalues --   -0.43725  -0.43108  -0.42914  -0.41623  -0.41089
 Alpha  occ. eigenvalues --   -0.40314  -0.39875  -0.38399  -0.37650  -0.37006
 Alpha  occ. eigenvalues --   -0.36577  -0.35992  -0.35570  -0.35153  -0.34360
 Alpha  occ. eigenvalues --   -0.33290  -0.32927  -0.32316  -0.31937  -0.31473
 Alpha  occ. eigenvalues --   -0.30892  -0.30824  -0.30589  -0.29339  -0.28315
 Alpha  occ. eigenvalues --   -0.24916
 Alpha virt. eigenvalues --    0.07946   0.09031   0.09507   0.10959   0.11232
 Alpha virt. eigenvalues --    0.12280   0.12387   0.12782   0.13253   0.14063
 Alpha virt. eigenvalues --    0.14129   0.15165   0.15847   0.16082   0.16146

 Mulliken charges:
               1
     1  C   -0.377476
     2  C   -0.176572
     3  C   -0.159749
     4  C    0.026305
     5  C   -0.391115
     6  C   -0.185837
     7  C   -0.233419
     8  C   -0.002079
     9  C   -0.066642
    10  O   -0.225144
    11  C   -0.229401
    12  C    0.035276
    13  C   -0.414134
    14  C   -0.169038
    15  C   -0.390588
    16  H    0.107825
    17  H    0.112523
    18  H    0.111277
    19  H    0.097024
    20  H    0.090426
    21  H    0.085361
    22  H    0.087359
    23  H    0.060940
    24  H    0.108152
    25  H    0.111588
    26  H    0.112252
    27  H    0.099990
    28  H    0.089233
    29  H    0.098527
    30  H    0.083744
    31  H    0.078034
    32  H    0.084848
    33  H    0.079419
    34  H    0.125380
    35  H    0.101292
    36  H    0.101478
    37  H    0.062720
    38  H    0.113510
    39  H    0.116546
    40  H    0.109203
    41  H    0.097488
    42  H    0.092280
    43  H    0.112119
    44  H    0.111454
    45  H    0.117622
 Sum of Mulliken charges =  -0.00000

 Dipole moment (field-independent basis, Debye):
    X=              0.6216    Y=              0.3771    Z=              0.7811  Tot=              1.0671
 Quadrupole moment (field-independent basis, Debye-Ang):
   XX=            -99.7896   YY=            -96.3880   ZZ=            -99.2059
   XY=              0.8772   XZ=              0.4498   YZ=              1.8827

  Exact polarizability: 193.723  -4.648 159.260  -0.377  -0.127 130.352
 Approx polarizability: 219.057  -1.145 217.416   0.382   0.140 214.750

                      1                      2                      3
                      A                      A                      A
 Frequencies --     16.6464                31.0607                51.7922
 Red. masses --      2.6624                 2.9362                 3.0349
 Frc consts  --      0.0004                 0.0017                 0.0048
 IR Inten    --      0.0176                 0.1324                 0.0676

                      4                      5                      6
                      A                      A                      A
 Frequencies --     56.0413                67.7478                73.4404
 Red. masses --      2.5804                 2.4952                 2.1134
 Frc consts  --      0.0048                 0.0067                 0.0067
 IR Inten    --      0.0801                 0.5898                 0.4609

                      7                      8                      9
                      A                      A                      A
 Frequencies --     74.8342                99.0651               108.9153
 Red. masses --      1.9618                 2.3105                 2.3192
 Frc consts  --      0.0065                 0.0134                 0.0162
 IR Inten    --      0.0299                 4.1042                 0.2279

                     10                     11                     12
                      A                      A                      A
 Frequencies --    128.0168               150.9190               181.0521
 Red. masses --      1.7742                 3.1632                 2.3898
 Frc consts  --      0.0171                 0.0424                 0.0462
 IR Inten    --      0.0634                 0.6582                 0.5651

                     13                     14                     15
                      A                      A                      A
 Frequencies --    208.6272               227.6340               230.4851
 Red. masses --      1.6973                 1.5140                 1.1708
 Frc consts  --      0.0435                 0.0462                 0.0366
 IR Inten    --      0.0607                 1.6664                 0.4267

                     16                     17                     18
                      A                      A                      A
 Frequencies --    239.0647               250.0251               257.4650
 Red. masses --      1.7178                 1.1876                 1.6818
 Frc consts  --      0.0578                 0.0437                 0.0657
 IR Inten    --      1.4704                 0.0515                 0.2901

                     19                     20                     21
                      A                      A                      A
 Frequencies --    277.3519               296.2858               323.5881
 Red. masses --      1.4332                 2.3053                 2.7120
 Frc consts  --      0.0650                 0.1192                 0.1673
 IR Inten    --      0.3366                 0.1424                 0.4254

                     22                     23                     24
                      A                      A                      A
 Frequencies --    335.0212               344.7952               396.6816
 Red. masses --      2.6336                 2.4612                 2.3035
 Frc consts  --      0.1742                 0.1724                 0.2136
 IR Inten    --      0.1092                 0.1954                 0.2635

                     25                     26                     27
                      A                      A                      A
 Frequencies --    402.1380               443.8006               450.8319
 Red. masses --      2.2785                 2.6291                 2.3975
 Frc consts  --      0.2171                 0.3051                 0.2871
 IR Inten    --      0.4817                 0.2395                 0.4606

                     28                     29                     30
                      A                      A                      A
 Frequencies --    495.9008               531.4674               567.8036
 Red. masses --      2.3911                 2.5887                 2.4117
 Frc consts  --      0.3465                 0.4308                 0.4581
 IR Inten    --      0.6770                 0.5704                 1.0796

                     31                     32                     33
                      A                      A                      A
 Frequencies --    742.2634               766.3032               771.6982
 Red. masses --      1.1117                 1.2954                 1.2561
 Frc consts  --      0.3609                 0.4482                 0.4407
 IR Inten    --      1.5577                 1.3349                 2.4869

                     34                     35                     36
                      A                      A                      A
 Frequencies --    834.9903               840.1793               870.8137
 Red. masses --      1.9344                 1.9632                 1.3896
 Frc consts  --      0.7946                 0.8165                 0.6208
 IR Inten    --      1.1853                 0.3264                 0.3513

                     37                     38                     39
                      A                      A                      A
 Frequencies --    893.4388               905.8663               923.0106
 Red. masses --      2.0142                 1.9892                 2.1018
 Frc consts  --      0.9473                 0.9617                 1.0550
 IR Inten    --      2.1078                 2.4071                 1.1318

                     40                     41                     42
                      A                      A                      A
 Frequencies --    929.4432               958.3689               977.8674
 Red. masses --      1.4444                 1.8714                 1.6356
 Frc consts  --      0.7352                 1.0127                 0.9215
 IR Inten    --      4.0465                 6.3880                 5.7119

                     43                     44                     45
                      A                      A                      A
 Frequencies --    987.7125               999.6882              1011.2758
 Red. masses --      1.5301                 2.1676                 1.4541
 Frc consts  --      0.8795                 1.2763                 0.8761
 IR Inten    --      7.3870                 6.7505                 1.3119

                     46                     47                     48
                      A                      A                      A
 Frequencies --   1038.0622              1042.2199              1042.6431
 Red. masses --      2.3841                 2.7492                 2.1938
 Frc consts  --      1.5136                 1.7595                 1.4051
 IR Inten    --      1.1951                 0.4061                 0.9833

                     49                     50                     51
                      A                      A                      A
 Frequencies --   1069.7186              1071.9865              1087.5652
 Red. masses --      2.3658                 1.5632                 2.1756
 Frc consts  --      1.5951                 1.0584                 1.5162
 IR Inten    --      2.6406                 0.7623                 0.7612

                     52                     53                     54
                      A                      A                      A
 Frequencies --   1122.7848              1148.5212              1154.7768
 Red. masses --      2.0048                 2.6533                 2.7499
 Frc consts  --      1.4891                 2.0621                 2.1606
 IR Inten    --      0.7902                75.7436                43.8058

                     55                     56                     57
                      A                      A                      A
 Frequencies --   1162.3460              1170.8427              1182.0141
 Red. masses --      2.2806                 2.1681                 1.9454
 Frc consts  --      1.8154                 1.7511                 1.6014
 IR Inten    --     32.1125                12.8662                 9.5070

                     58                     59                     60
                      A                      A                      A
 Frequencies --   1182.6058              1193.7114              1221.1372
 Red. masses --      1.5005                 1.7274                 1.5721
 Frc consts  --      1.2364                 1.4502                 1.3812
 IR Inten    --      5.4710                 1.2423                 4.4266

                     61                     62                     63
                      A                      A                      A
 Frequencies --   1228.5765              1252.1411              1265.8997
 Red. masses --      1.6433                 1.3170                 1.3610
 Frc consts  --      1.4614                 1.2165                 1.2850
 IR Inten    --     24.8387                 5.4475                 0.9430

                     64                     65                     66
                      A                      A                      A
 Frequencies --   1287.2467              1288.6068              1303.9790
 Red. masses --      1.2288                 1.1576                 1.2363
 Frc consts  --      1.1997                 1.1326                 1.2385
 IR Inten    --      2.8244                 5.5772                 2.6144

                     67                     68                     69
                      A                      A                      A
 Frequencies --   1315.9637              1324.5719              1330.3236
 Red. masses --      1.2891                 1.1644                 1.1388
 Frc consts  --      1.3153                 1.2036                 1.1875
 IR Inten    --      0.7387                 5.5083                 0.9234

                     70                     71                     72
                      A                      A                      A
 Frequencies --   1343.4963              1354.7789              1371.7719
 Red. masses --      1.2712                 1.2489                 1.4198
 Frc consts  --      1.3519                 1.3505                 1.5742
 IR Inten    --      0.6203                 1.6979                 1.6907

                     73                     74                     75
                      A                      A                      A
 Frequencies --   1376.4460              1379.1179              1386.6310
 Red. masses --      1.3530                 1.3461                 1.3700
 Frc consts  --      1.5104                 1.5084                 1.5520
 IR Inten    --      1.0490                 1.3664                 1.5486

                     76                     77                     78
                      A                      A                      A
 Frequencies --   1393.0816              1400.2987              1408.7326
 Red. masses --      1.5522                 1.3369                 1.2662
 Frc consts  --      1.7748                 1.5445                 1.4806
 IR Inten    --      1.3233                 8.1740                 1.0865

                     79                     80                     81
                      A                      A                      A
 Frequencies --   1410.8568              1415.7473              1417.1559
 Red. masses --      1.2525                 1.2677                 1.2396
 Frc consts  --      1.4689                 1.4971                 1.4668
 IR Inten    --      0.9453                 2.7845                 1.9590

                     82                     83                     84
                      A                      A                      A
 Frequencies --   1427.8428              1470.8508              1478.1875
 Red. masses --      1.3261                 1.0810                 1.1273
 Frc consts  --      1.5929                 1.3779                 1.4512
 IR Inten    --     13.8038                 1.8377                 4.5056

                     85                     86                     87
                      A                      A                      A
 Frequencies --   1482.4865              1484.5896              1485.5894
 Red. masses --      1.0836                 1.0601                 1.0670
 Frc consts  --      1.4032                 1.3767                 1.3874
 IR Inten    --      0.5189                 1.8019                 4.3481

                     88                     89                     90
                      A                      A                      A
 Frequencies --   1492.8782              1494.6504              1496.5254
 Red. masses --      1.0672                 1.0641                 1.0578
 Frc consts  --      1.4014                 1.4006                 1.3958
 IR Inten    --      1.7583                 1.7900                 3.3802

                     91                     92                     93
                      A                      A                      A
 Frequencies --   1497.7205              1499.5422              1502.5150
 Red. masses --      1.0589                 1.0412                 1.0660
 Frc consts  --      1.3994                 1.3794                 1.4179
 IR Inten    --      0.5321                 5.4158                 0.2827

                     94                     95                     96
                      A                      A                      A
 Frequencies --   1503.5747              1507.8083              1508.3821
 Red. masses --      1.0517                 1.0575                 1.0686
 Frc consts  --      1.4008                 1.4166                 1.4325
 IR Inten    --      8.8396                 3.1814                 3.7409

                     97                     98                     99
                      A                      A                      A
 Frequencies --   1512.4195              1516.5916              1529.5450
 Red. masses --      1.0693                 1.0552                 1.0873
 Frc consts  --      1.4411                 1.4299                 1.4987
 IR Inten    --     10.8576                 5.2479                 3.5072

                    100                    101                    102
                      A                      A                      A
 Frequencies --   2939.6567              2964.9658              2973.0584
 Red. masses --      1.0622                 1.0414                 1.0820
 Frc consts  --      5.4081                 5.3939                 5.6351
 IR Inten    --     25.1438                70.2735                14.9922

                    103                    104                    105
                      A                      A                      A
 Frequencies --   2976.5606              2982.7820              2991.0673
 Red. masses --      1.0805                 1.0897                 1.0708
 Frc consts  --      5.6401                 5.7122                 5.6443
 IR Inten    --      8.7991                84.6432                10.9724

                    106                    107                    108
                      A                      A                      A
 Frequencies --   2996.5428              3006.4284              3010.5076
 Red. masses --      1.0597                 1.1027                 1.0761
 Frc consts  --      5.6063                 5.8722                 5.7464
 IR Inten    --     10.4214                54.4481                 1.7195

                    109                    110                    111
                      A                      A                      A
 Frequencies --   3015.2059              3016.7532              3020.3858
 Red. masses --      1.0652                 1.0673                 1.0719
 Frc consts  --      5.7055                 5.7232                 5.7615
 IR Inten    --      9.4156                19.8422                82.0022

                    112                    113                    114
                      A                      A                      A
 Frequencies --   3026.8612              3028.5334              3029.9630
 Red. masses --      1.0357                 1.0425                 1.0933
 Frc consts  --      5.5909                 5.6338                 5.9135
 IR Inten    --     40.4289                16.2147                23.3817

                    115                    116                    117
                      A                      A                      A
 Frequencies --   3030.5769              3032.7305              3058.0036
 Red. masses --      1.0377                 1.0400                 1.0950
 Frc consts  --      5.6155                 5.6359                 6.0330
 IR Inten    --     37.2238                18.8017                16.2823

                    118                    119                    120
                      A                      A                      A
 Frequencies --   3058.1222              3072.3783              3091.5913
 Red. masses --      1.0997                 1.0885                 1.0957
 Frc consts  --      6.0595                 6.0536                 6.1706
 IR Inten    --     28.0994                 0.4513                17.8296

                    121                    122                    123
                      A                      A                      A
 Frequencies --   3093.9174              3095.6759              3096.4306
 Red. masses --      1.1015                 1.1004                 1.0981
 Frc consts  --      6.2122                 6.2132                 6.2031
 IR Inten    --     69.6175                51.3645                34.3074

                    124                    125                    126
                      A                      A                      A
 Frequencies --   3097.1610              3098.5979              3104.9856
 Red. masses --      1.0973                 1.0988                 1.0990
 Frc consts  --      6.2015                 6.2157                 6.2427
 IR Inten    --     22.0744                66.1894                54.0768

                    127                    128                    129
                      A                      A                      A
 Frequencies --   3109.5920              3110.6620              3116.9858
 Red. masses --      1.0997                 1.0955                 1.0994
 Frc consts  --      6.2649                 6.2453                 6.2930
 IR Inten    --     50.1078                30.7233                23.1533

 - Thermochemistry -
 -------------------
 Temperature   298.150 Kelvin.  Pressure   1.00000 Atm.
 Atom     1 has atomic number  6 and mass  12.00000

 Molecular mass:   214.22967 amu.
 Principal axes and moments of inertia in atomic units:
                           1         2         3
     Eigenvalues --  2049.204298223.082719954.58476
           X            0.99999  -0.00399   0.00135
           Y            0.00398   0.99996   0.00824
           Z           -0.00138  -0.00824   0.99997
 This molecule is an asymmetric top.
 Rotational symmetry number  1.
 Warning -- assumption of classical behavior for rotation
           may cause significant error
 Rotational temperatures (Kelvin)      0.04227     0.01053     0.00870
 Rotational constants (GHZ):           0.88070     0.21947     0.18130
 Zero-point vibrational energy    1100661.1 (Joules/Mol)
                                  263.06431 (Kcal/Mol)
 Warning -- explicit consideration of  30 degrees of freedom as
           vibrations may cause significant error
 Vibrational temperatures:     23.95    44.69    74.52    80.63    97.47
          (Kelvin)            105.66   107.67   142.53   156.70   184.19
                              217.14   260.49   300.17   327.51   331.62
                              343.96   359.73   370.43   399.05   426.29
                              465.57   482.02   496.08   570.74   578.59
                              638.53   648.65   713.49   764.66   816.94
                             1067.95  1102.54  1110.30  1201.36  1208.83
                             1252.91  1285.46  1303.34  1328.01  1337.26
                             1378.88  1406.93  1421.10  1438.33  1455.00
                             1493.54  1499.52  1500.13  1539.09  1542.35
                             1564.76  1615.44  1652.47  1661.47  1672.36
                             1684.58  1700.65  1701.51  1717.48  1756.94
                             1767.65  1801.55  1821.35  1852.06  1854.02
                             1876.13  1893.38  1905.76  1914.04  1932.99
                             1949.22  1973.67  1980.40  1984.24  1995.05
                             2004.33  2014.72  2026.85  2029.91  2036.94
                             2038.97  2054.35  2116.23  2126.78  2132.97
                             2135.99  2137.43  2147.92  2150.47  2153.17
                             2154.89  2157.51  2161.78  2163.31  2169.40
                             2170.23  2176.03  2182.04  2200.67  4229.51
                             4265.92  4277.57  4282.61  4291.56  4303.48
                             4311.36  4325.58  4331.45  4338.21  4340.44
                             4345.66  4354.98  4357.38  4359.44  4360.32
                             4363.42  4399.79  4399.96  4420.47  4448.11
                             4451.46  4453.99  4455.07  4456.12  4458.19
                             4467.38  4474.01  4475.55  4484.65

 Zero-point correction=                           0.419220 (Hartree/Particle)
 Thermal correction to Energy=                    0.439549
 Thermal correction to Enthalpy=                  0.440493
 Thermal correction to Gibbs Free Energy=         0.368522
 Sum of electronic and zero-point Energies=           -626.416780
 Sum of electronic and thermal Energies=              -626.396451
 Sum of electronic and thermal Enthalpies=            -626.395507
 Sum of electronic and thermal Free Energies=         -626.467478

                     E (Thermal)             CV                S
                      KCal/Mol        Cal/Mol-Kelvin    Cal/Mol-Kelvin
 Total                  275.821             73.324            151.476
 Electronic               0.000              0.000              0.000
 Translational            0.889              2.981             41.989
 Rotational               0.889              2.981             33.483
 Vibrational            274.044             67.363             76.003
 Vibration     1          0.593              1.986              6.999
 Vibration     2          0.594              1.983              5.761
 Vibration     3          0.596              1.977              4.748
 Vibration     4          0.596              1.975              4.592
 Vibration     5          0.598              1.970              4.218
 Vibration     6          0.599              1.967              4.059
 Vibration     7          0.599              1.966              4.022
 Vibration     8          0.604              1.950              3.473
 Vibration     9          0.606              1.942              3.288
 Vibration    10          0.611              1.925              2.976
 Vibration    11          0.618              1.902              2.661
 Vibration    12          0.630              1.865              2.318
 Vibration    13          0.642              1.828              2.056
 Vibration    14          0.651              1.799              1.898
 Vibration    15          0.652              1.794              1.875
 Vibration    16          0.657              1.781              1.810
 Vibration    17          0.663              1.763              1.730
 Vibration    18          0.667              1.750              1.679
 Vibration    19          0.678              1.715              1.550
 Vibration    20          0.690              1.681              1.438
 Vibration    21          0.708              1.628              1.292
 Vibration    22          0.716              1.606              1.236
 Vibration    23          0.723              1.586              1.190
 Vibration    24          0.763              1.477              0.975
 Vibration    25          0.768              1.466              0.955
 Vibration    26          0.803              1.375              0.815
 Vibration    27          0.810              1.359              0.793
 Vibration    28          0.851              1.259              0.668
 Vibration    29          0.886              1.180              0.584
 Vibration    30          0.924              1.101              0.508

 Optimization completed.
    -- Stationary point found.
 Normal termination of Gaussian 16 at Tue May 23 04:47:59 2023.
