 Gaussian 16, Revision A.03,
 Gaussian 16:  ES64L-G16RevA.03 25-Dec-2016

 -----------------------------
 # opt freq b3lyp/6-31g(2df,p)
 -----------------------------

 -------------------
 Title Card Required
 -------------------
 Symbolic Z-matrix:
 Charge =  0 Multiplicity = 1

 SCF Done:  E(RB3LYP) =  -508.405875152     A.U. after   14 cycles
 SCF Done:  E(RB3LYP) =  -508.456153487     A.U. after   12 cycles
 SCF Done:  E(RB3LYP) =  -508.489896607     A.U. after   13 cycles
 SCF Done:  E(RB3LYP) =  -508.533764498     A.U. after   11 cycles
 SCF Done:  E(RB3LYP) =  -508.574263932     A.U. after   11 cycles
 SCF Done:  E(RB3LYP) =  -508.599438498     A.U. after   11 cycles
 SCF Done:  E(RB3LYP) =  -508.612714032     A.U. after   10 cycles
 SCF Done:  E(RB3LYP) =  -508.623443901     A.U. after   11 cycles
 SCF Done:  E(RB3LYP) =  -508.626253851     A.U. after   10 cycles
 SCF Done:  E(RB3LYP) =  -508.627310571     A.U. after   10 cycles
 SCF Done:  E(RB3LYP) =  -508.630106087     A.U. after   10 cycles
 SCF Done:  E(RB3LYP) =  -508.630157806     A.U. after    9 cycles
 SCF Done:  E(RB3LYP) =  -508.630247898     A.U. after    8 cycles
 SCF Done:  E(RB3LYP) =  -508.630286499     A.U. after    8 cycles
 SCF Done:  E(RB3LYP) =  -508.630292643     A.U. after    6 cycles
 SCF Done:  E(RB3LYP) =  -508.630316673     A.U. after    8 cycles
 SCF Done:  E(RB3LYP) =  -508.630317705     A.U. after    7 cycles
 SCF Done:  E(RB3LYP) =  -508.630317848     A.U. after    6 cycles
 SCF Done:  E(RB3LYP) =  -508.630317868     A.U. after    5 cycles
 Optimization completed.
    -- Stationary point found.
 Normal termination of Gaussian 16 at Mon May 22 22:33:17 2023.

 ----------------------------------------------------------------------
 #N Geom=AllCheck Guess=TCheck SCRF=Check GenChk RB3LYP/6-31G(2df,p) Fr
 eq
 ----------------------------------------------------------------------

 Structure from the checkpoint file:  "CCCC1C2CCCC3C1qCrC23C.chk"
 -------------------
 Title Card Required
 -------------------
 Charge =  0 Multiplicity = 1

                         Standard orientation:
 ---------------------------------------------------------------------
 Center     Atomic      Atomic             Coordinates (Angstroms)
 Number     Number       Type             X           Y           Z
 ---------------------------------------------------------------------
      1          6           0        4.157699   -0.544124    0.122440
      2          6           0        2.665645   -0.296755    0.368533
      3          6           0        1.792583   -0.861236   -0.763074
      4          6           0        0.276290   -0.606627   -0.710025
      5          6           0       -0.404604   -0.845882    0.685810
      6          6           0       -1.669681   -1.712327    0.699645
      7          6           0       -2.594174   -1.383851   -0.482822
      8          6           0       -2.825872    0.130634   -0.650651
      9          6           0       -1.637918    1.015806   -0.290805
     10          6           0       -0.161786    0.869152   -0.642810
     11          6           0        0.563595    2.017584   -1.295305
     12          6           0       -0.665342    0.675370    0.800259
     13          6           0       -0.456333    1.487077    2.046908
     14          1           0        4.768834   -0.154857    0.942897
     15          1           0        4.493240   -0.059863   -0.801605
     16          1           0        4.371109   -1.614886    0.027354
     17          1           0        2.490833    0.778323    0.487648
     18          1           0        2.383684   -0.754862    1.323478
     19          1           0        1.948961   -1.948328   -0.806418
     20          1           0        2.169403   -0.474116   -1.720635
     21          1           0       -0.161191   -1.170607   -1.541643
     22          1           0        0.304039   -1.204563    1.435944
     23          1           0       -2.198284   -1.548435    1.649174
     24          1           0       -1.405152   -2.776536    0.673213
     25          1           0       -3.558476   -1.888664   -0.359153
     26          1           0       -2.159949   -1.794477   -1.400119
     27          1           0       -3.653116    0.436214    0.005296
     28          1           0       -3.162789    0.343095   -1.673095
     29          1           0       -1.911156    2.071327   -0.285692
     30          1           0        0.381319    2.033049   -2.377602
     31          1           0        1.647382    1.968928   -1.149943
     32          1           0        0.220612    2.978645   -0.897198
     33          1           0        0.532249    1.305766    2.485830
     34          1           0       -1.204256    1.246033    2.813164
     35          1           0       -0.537908    2.559888    1.840490
 ---------------------------------------------------------------------

 SCF Done:  E(RB3LYP) =  -508.630317868     A.U. after    1 cycles

 The electronic state is 1-A.
 Alpha  occ. eigenvalues --  -10.18128 -10.17874 -10.17548 -10.17534 -10.17370
 Alpha  occ. eigenvalues --  -10.17366 -10.17270 -10.17249 -10.17154 -10.17071
 Alpha  occ. eigenvalues --  -10.17065 -10.16997 -10.16915  -0.89297  -0.78638
 Alpha  occ. eigenvalues --   -0.77692  -0.74282  -0.72672  -0.69914  -0.68759
 Alpha  occ. eigenvalues --   -0.62902  -0.61757  -0.59397  -0.55375  -0.51233
 Alpha  occ. eigenvalues --   -0.48844  -0.47265  -0.45546  -0.44158  -0.43473
 Alpha  occ. eigenvalues --   -0.42605  -0.41334  -0.41126  -0.40290  -0.39186
 Alpha  occ. eigenvalues --   -0.38868  -0.38823  -0.38030  -0.37146  -0.36134
 Alpha  occ. eigenvalues --   -0.34231  -0.33405  -0.32933  -0.32581  -0.31748
 Alpha  occ. eigenvalues --   -0.31237  -0.28483  -0.27910  -0.24619  -0.22747
 Alpha virt. eigenvalues --    0.07559   0.09748   0.09984   0.10819   0.12205
 Alpha virt. eigenvalues --    0.12659   0.13331   0.13729   0.14174   0.14399
 Alpha virt. eigenvalues --    0.15724   0.16001   0.16629   0.16924   0.17380

 Mulliken charges:
               1
     1  C   -0.379767
     2  C   -0.169854
     3  C   -0.210988
     4  C   -0.080057
     5  C   -0.079538
     6  C   -0.226585
     7  C   -0.204771
     8  C   -0.228451
     9  C   -0.137870
    10  C    0.295849
    11  C   -0.508432
    12  C    0.306221
    13  C   -0.515138
    14  H    0.108403
    15  H    0.112503
    16  H    0.112526
    17  H    0.105032
    18  H    0.098513
    19  H    0.089185
    20  H    0.091709
    21  H    0.055137
    22  H    0.058904
    23  H    0.090103
    24  H    0.087653
    25  H    0.084595
    26  H    0.103004
    27  H    0.094492
    28  H    0.091456
    29  H    0.068839
    30  H    0.115268
    31  H    0.116189
    32  H    0.113192
    33  H    0.113588
    34  H    0.115333
    35  H    0.113757
 Sum of Mulliken charges =  -0.00000

 Dipole moment (field-independent basis, Debye):
    X=             -0.0021    Y=              0.0647    Z=              0.0988  Tot=              0.1181
 Quadrupole moment (field-independent basis, Debye-Ang):
   XX=            -83.4349   YY=            -82.1692   ZZ=            -82.8723
   XY=             -0.2678   XZ=             -0.0603   YZ=             -0.0484

  Exact polarizability: 149.605   1.114 126.953  -0.557  -1.036 122.362
 Approx polarizability: 191.931  -1.260 185.606  -2.747  -2.111 191.086

                      1                      2                      3
                      A                      A                      A
 Frequencies --     61.3965                70.9447               117.9126
 Red. masses --      2.3685                 2.6331                 1.9662
 Frc consts  --      0.0053                 0.0078                 0.0161
 IR Inten    --      0.0028                 0.0084                 0.0567

                      4                      5                      6
                      A                      A                      A
 Frequencies --    160.1875               168.5904               184.9410
 Red. masses --      1.9591                 1.9776                 1.4090
 Frc consts  --      0.0296                 0.0331                 0.0284
 IR Inten    --      0.0282                 0.1155                 0.0451

                      7                      8                      9
                      A                      A                      A
 Frequencies --    193.7626               207.0275               223.2466
 Red. masses --      1.3633                 1.4504                 2.7329
 Frc consts  --      0.0302                 0.0366                 0.0803
 IR Inten    --      0.0246                 0.2254                 0.1728

                     10                     11                     12
                      A                      A                      A
 Frequencies --    244.3230               254.5924               274.3848
 Red. masses --      2.1088                 1.3198                 2.4555
 Frc consts  --      0.0742                 0.0504                 0.1089
 IR Inten    --      0.0197                 0.0057                 0.1277

                     13                     14                     15
                      A                      A                      A
 Frequencies --    280.4515               318.5102               386.5339
 Red. masses --      1.7481                 2.5028                 2.5034
 Frc consts  --      0.0810                 0.1496                 0.2204
 IR Inten    --      0.1855                 0.0488                 0.0686

                     16                     17                     18
                      A                      A                      A
 Frequencies --    420.7135               488.6794               531.5221
 Red. masses --      3.1249                 3.8826                 3.0305
 Frc consts  --      0.3259                 0.5463                 0.5044
 IR Inten    --      0.6204                 0.2056                 0.7270

                     19                     20                     21
                      A                      A                      A
 Frequencies --    579.5774               612.5186               660.9012
 Red. masses --      3.4244                 2.4151                 3.1059
 Frc consts  --      0.6777                 0.5339                 0.7993
 IR Inten    --      0.1713                 0.2001                 1.3012

                     22                     23                     24
                      A                      A                      A
 Frequencies --    687.3588               720.4500               761.5139
 Red. masses --      2.6910                 1.5601                 1.9052
 Frc consts  --      0.7491                 0.4771                 0.6510
 IR Inten    --      0.9335                 0.9626                 2.6833

                     25                     26                     27
                      A                      A                      A
 Frequencies --    764.3906               811.3494               847.3653
 Red. masses --      2.5401                 2.0359                 2.5714
 Frc consts  --      0.8744                 0.7896                 1.0878
 IR Inten    --      0.2551                 0.2320                 0.7751

                     28                     29                     30
                      A                      A                      A
 Frequencies --    874.9193               878.4668               903.2740
 Red. masses --      1.8081                 1.5367                 2.0051
 Frc consts  --      0.8154                 0.6987                 0.9639
 IR Inten    --      1.5312                 0.4767                 2.0062

                     31                     32                     33
                      A                      A                      A
 Frequencies --    928.1372               944.5268               975.5381
 Red. masses --      1.7642                 1.6591                 2.1872
 Frc consts  --      0.8954                 0.8721                 1.2264
 IR Inten    --      1.9312                 1.9111                 0.6112

                     34                     35                     36
                      A                      A                      A
 Frequencies --    996.3697              1010.4397              1022.7947
 Red. masses --      1.4721                 1.5612                 2.6462
 Frc consts  --      0.8610                 0.9391                 1.6310
 IR Inten    --      3.6224                 2.3312                 0.2675

                     37                     38                     39
                      A                      A                      A
 Frequencies --   1063.4561              1070.1990              1077.6856
 Red. masses --      1.7027                 1.7127                 1.5822
 Frc consts  --      1.1346                 1.1557                 1.0827
 IR Inten    --      2.7918                 1.5992                 2.4288

                     40                     41                     42
                      A                      A                      A
 Frequencies --   1093.7136              1106.0614              1119.0065
 Red. masses --      1.8358                 1.6483                 2.0382
 Frc consts  --      1.2938                 1.1881                 1.5037
 IR Inten    --      2.9751                 0.8442                 0.0745

                     43                     44                     45
                      A                      A                      A
 Frequencies --   1123.0436              1139.1777              1160.2478
 Red. masses --      1.5740                 1.8948                 1.7493
 Frc consts  --      1.1696                 1.4488                 1.3875
 IR Inten    --      1.0565                 1.5186                 0.3982

                     46                     47                     48
                      A                      A                      A
 Frequencies --   1193.1928              1213.8486              1225.4813
 Red. masses --      1.5223                 1.8429                 1.8930
 Frc consts  --      1.2769                 1.5999                 1.6750
 IR Inten    --      0.5229                 0.2454                 1.9250

                     49                     50                     51
                      A                      A                      A
 Frequencies --   1229.7533              1252.6812              1270.8972
 Red. masses --      1.6399                 1.7303                 1.6296
 Frc consts  --      1.4612                 1.5998                 1.5508
 IR Inten    --      1.2357                 1.3118                 3.3320

                     52                     53                     54
                      A                      A                      A
 Frequencies --   1298.9615              1299.8633              1312.0918
 Red. masses --      1.5099                 1.3950                 1.4327
 Frc consts  --      1.5010                 1.3887                 1.4533
 IR Inten    --      2.5225                 0.2061                 1.4820

                     55                     56                     57
                      A                      A                      A
 Frequencies --   1317.0109              1336.7314              1351.5255
 Red. masses --      1.6061                 1.2342                 1.4692
 Frc consts  --      1.6414                 1.2993                 1.5811
 IR Inten    --      2.0694                 0.4477                 1.2166

                     58                     59                     60
                      A                      A                      A
 Frequencies --   1361.3777              1370.6389              1381.8027
 Red. masses --      1.4565                 1.4105                 1.5337
 Frc consts  --      1.5904                 1.5612                 1.7254
 IR Inten    --      1.5393                 0.4283                 4.8654

                     61                     62                     63
                      A                      A                      A
 Frequencies --   1392.2157              1405.7027              1409.0768
 Red. masses --      1.4985                 1.3895                 1.2831
 Frc consts  --      1.7113                 1.6176                 1.5010
 IR Inten    --      1.4978                 1.0983                 0.4358

                     64                     65                     66
                      A                      A                      A
 Frequencies --   1414.6601              1421.7963              1476.1828
 Red. masses --      1.2749                 1.2864                 1.0848
 Frc consts  --      1.5033                 1.5321                 1.3928
 IR Inten    --      0.9452                 9.0735                 2.0245

                     67                     68                     69
                      A                      A                      A
 Frequencies --   1481.1439              1484.9314              1485.9555
 Red. masses --      1.1377                 1.1836                 1.1851
 Frc consts  --      1.4706                 1.5377                 1.5417
 IR Inten    --      0.8905                 1.0433                 2.1391

                     70                     71                     72
                      A                      A                      A
 Frequencies --   1488.5655              1490.0735              1491.2551
 Red. masses --      1.0552                 1.1440                 1.1526
 Frc consts  --      1.3776                 1.4965                 1.5102
 IR Inten    --      3.8091                 2.2517                 1.1120

                     73                     74                     75
                      A                      A                      A
 Frequencies --   1498.3889              1499.6337              1507.4690
 Red. masses --      1.0577                 1.0416                 1.3726
 Frc consts  --      1.3992                 1.3801                 1.8377
 IR Inten    --      1.8221                 4.8285                 2.2157

                     76                     77                     78
                      A                      A                      A
 Frequencies --   1508.7701              1513.4845              2996.7450
 Red. masses --      1.0928                 1.1012                 1.0604
 Frc consts  --      1.4656                 1.4862                 5.6106
 IR Inten    --      4.6298                 1.2326                16.3485

                     79                     80                     81
                      A                      A                      A
 Frequencies --   3002.6438              3006.1633              3011.7733
 Red. masses --      1.0636                 1.0622                 1.0367
 Frc consts  --      5.6500                 5.6555                 5.5407
 IR Inten    --     43.0385                31.5013                53.3479

                     82                     83                     84
                      A                      A                      A
 Frequencies --   3018.0141              3024.7421              3026.4476
 Red. masses --      1.0415                 1.0751                 1.0547
 Frc consts  --      5.5891                 5.7951                 5.6918
 IR Inten    --     31.3497                24.6378                27.1163

                     85                     86                     87
                      A                      A                      A
 Frequencies --   3027.6358              3034.2718              3036.0506
 Red. masses --      1.0798                 1.0894                 1.0620
 Frc consts  --      5.8319                 5.9093                 5.7677
 IR Inten    --     29.7724                 9.7142                36.2256

                     88                     89                     90
                      A                      A                      A
 Frequencies --   3042.3108              3049.3470              3064.8916
 Red. masses --      1.0883                 1.0842                 1.0984
 Frc consts  --      5.9350                 5.9396                 6.0791
 IR Inten    --     35.8753                82.1799                 2.8069

                     91                     92                     93
                      A                      A                      A
 Frequencies --   3066.6986              3074.5008              3076.1564
 Red. masses --      1.0998                 1.0960                 1.0876
 Frc consts  --      6.0939                 6.1037                 6.0635
 IR Inten    --     22.6081                23.2938                29.5657

                     94                     95                     96
                      A                      A                      A
 Frequencies --   3077.1104              3085.9215              3094.0712
 Red. masses --      1.1012                 1.0995                 1.0995
 Frc consts  --      6.1431                 6.1692                 6.2019
 IR Inten    --     66.2885                16.0238                34.8440

                     97                     98                     99
                      A                      A                      A
 Frequencies --   3097.0517              3099.0086              3101.9120
 Red. masses --      1.1004                 1.1005                 1.0875
 Frc consts  --      6.2188                 6.2273                 6.1652
 IR Inten    --     57.5332                38.5795                43.6740

 - Thermochemistry -
 -------------------
 Temperature   298.150 Kelvin.  Pressure   1.00000 Atm.
 Atom     1 has atomic number  6 and mass  12.00000

 Molecular mass:   178.17215 amu.
 Principal axes and moments of inertia in atomic units:
                           1         2         3
     Eigenvalues --  1464.571873183.446723479.38582
           X            1.00000   0.00172   0.00051
           Y           -0.00173   0.99993   0.01196
           Z           -0.00049  -0.01196   0.99993
 This molecule is an asymmetric top.
 Rotational symmetry number  1.
 Warning -- assumption of classical behavior for rotation
           may cause significant error
 Rotational temperatures (Kelvin)      0.05914     0.02721     0.02489
 Rotational constants (GHZ):           1.23227     0.56691     0.51870
 Zero-point vibrational energy     843479.9 (Joules/Mol)
                                  201.59654 (Kcal/Mol)
 Warning -- explicit consideration of  20 degrees of freedom as
           vibrations may cause significant error
 Vibrational temperatures:     88.34   102.07   169.65   230.47   242.56
          (Kelvin)            266.09   278.78   297.87   321.20   351.53
                              366.30   394.78   403.51   458.27   556.14
                              605.31   703.10   764.74   833.88   881.28
                              950.89   988.96  1036.57  1095.65  1099.79
                             1167.35  1219.17  1258.81  1263.92  1299.61
                             1335.38  1358.96  1403.58  1433.55  1453.80
                             1471.57  1530.08  1539.78  1550.55  1573.61
                             1591.38  1610.00  1615.81  1639.02  1669.34
                             1716.74  1746.46  1763.19  1769.34  1802.33
                             1828.54  1868.92  1870.21  1887.81  1894.88
                             1923.26  1944.54  1958.72  1972.04  1988.11
                             2003.09  2022.49  2027.35  2035.38  2045.65
                             2123.90  2131.04  2136.49  2137.96  2141.71
                             2143.88  2145.58  2155.85  2157.64  2168.91
                             2170.78  2177.57  4311.65  4320.13  4325.20
                             4333.27  4342.25  4351.93  4354.38  4356.09
                             4365.64  4368.20  4377.21  4387.33  4409.70
                             4412.30  4423.52  4425.90  4427.28  4439.95
                             4451.68  4455.97  4458.78  4462.96

 Zero-point correction=                           0.321265 (Hartree/Particle)
 Thermal correction to Energy=                    0.335090
 Thermal correction to Enthalpy=                  0.336034
 Thermal correction to Gibbs Free Energy=         0.281961
 Sum of electronic and zero-point Energies=           -508.309053
 Sum of electronic and thermal Energies=              -508.295228
 Sum of electronic and thermal Enthalpies=            -508.294284
 Sum of electronic and thermal Free Energies=         -508.348357

                     E (Thermal)             CV                S
                      KCal/Mol        Cal/Mol-Kelvin    Cal/Mol-Kelvin
 Total                  210.272             54.388            113.806
 Electronic               0.000              0.000              0.000
 Translational            0.889              2.981             41.440
 Rotational               0.889              2.981             31.162
 Vibrational            208.494             48.426             41.204
 Vibration     1          0.597              1.973              4.412
 Vibration     2          0.598              1.968              4.127
 Vibration     3          0.608              1.934              3.134
 Vibration     4          0.622              1.891              2.548
 Vibration     5          0.625              1.881              2.451
 Vibration     6          0.631              1.860              2.278
 Vibration     7          0.635              1.849              2.192
 Vibration     8          0.641              1.830              2.070
 Vibration     9          0.649              1.806              1.933
 Vibration    10          0.660              1.772              1.771
 Vibration    11          0.665              1.755              1.699
 Vibration    12          0.677              1.721              1.568
 Vibration    13          0.680              1.710              1.531
 Vibration    14          0.705              1.638              1.318
 Vibration    15          0.755              1.499              1.013
 Vibration    16          0.783              1.425              0.890
 Vibration    17          0.845              1.275              0.687
 Vibration    18          0.886              1.180              0.584
 Vibration    19          0.936              1.075              0.486
 Vibration    20          0.972              1.005              0.429

 Optimization completed.
    -- Stationary point found.
 Normal termination of Gaussian 16 at Tue May 23 01:14:17 2023.
