 Gaussian 16, Revision A.03,
 Gaussian 16:  ES64L-G16RevA.03 25-Dec-2016

 -----------------------------
 # opt freq b3lyp/6-31g(2df,p)
 -----------------------------

 -------------------
 Title Card Required
 -------------------
 Symbolic Z-matrix:
 Charge =  0 Multiplicity = 1

 SCF Done:  E(RB3LYP) =  -619.960707057     A.U. after   12 cycles
 SCF Done:  E(RB3LYP) =  -619.985332616     A.U. after   11 cycles
 SCF Done:  E(RB3LYP) =  -619.995019248     A.U. after   11 cycles
 SCF Done:  E(RB3LYP) =  -620.000013248     A.U. after   11 cycles
 SCF Done:  E(RB3LYP) =  -620.001161954     A.U. after   11 cycles
 SCF Done:  E(RB3LYP) =  -620.002638536     A.U. after   10 cycles
 SCF Done:  E(RB3LYP) =  -620.003276616     A.U. after   10 cycles
 SCF Done:  E(RB3LYP) =  -620.003979312     A.U. after   11 cycles
 SCF Done:  E(RB3LYP) =  -620.004234901     A.U. after   12 cycles
 SCF Done:  E(RB3LYP) =  -620.005129983     A.U. after   10 cycles
 SCF Done:  E(RB3LYP) =  -620.005311182     A.U. after   11 cycles
 SCF Done:  E(RB3LYP) =  -620.005677214     A.U. after   11 cycles
 SCF Done:  E(RB3LYP) =  -620.005720463     A.U. after    9 cycles
 SCF Done:  E(RB3LYP) =  -620.005746408     A.U. after   10 cycles
 SCF Done:  E(RB3LYP) =  -620.005752395     A.U. after    9 cycles
 SCF Done:  E(RB3LYP) =  -620.005754193     A.U. after    8 cycles
 SCF Done:  E(RB3LYP) =  -620.005754451     A.U. after    7 cycles
 SCF Done:  E(RB3LYP) =  -620.005754573     A.U. after    6 cycles
 SCF Done:  E(RB3LYP) =  -620.005754636     A.U. after    6 cycles
 Optimization completed.
    -- Stationary point found.
 Normal termination of Gaussian 16 at Sat May 27 12:42:38 2023.

 ----------------------------------------------------------------------
 #N Geom=AllCheck Guess=TCheck SCRF=Check GenChk RB3LYP/6-31G(2df,p) Fr
 eq
 ----------------------------------------------------------------------

 Structure from the checkpoint file:  "CCCCqCOCrOCqCrCCO.chk"
 -------------------
 Title Card Required
 -------------------
 Charge =  0 Multiplicity = 1

                         Standard orientation:
 ---------------------------------------------------------------------
 Center     Atomic      Atomic             Coordinates (Angstroms)
 Number     Number       Type             X           Y           Z
 ---------------------------------------------------------------------
      1          6           0       -2.534256   -3.325627   -0.108385
      2          6           0       -2.324663   -1.855655   -0.482929
      3          6           0       -1.141108   -1.225976    0.263280
      4          6           0       -0.820041    0.231491   -0.103683
      5          6           0       -1.780464    1.267343    0.484672
      6          8           0       -3.062518    1.118677   -0.083865
      7          6           0       -3.991240    2.049499    0.417962
      8          8           0        0.456330    0.597848    0.417425
      9          6           0        1.576465    0.332616   -0.423306
     10          6           0        1.767838    1.467421   -1.433717
     11          6           0        2.773109    0.140089    0.512844
     12          6           0        4.077511   -0.254002   -0.183161
     13          8           0        5.101169   -0.591842    0.740808
     14          1           0       -3.376693   -3.760015   -0.655940
     15          1           0       -2.741961   -3.436355    0.961997
     16          1           0       -1.645487   -3.926462   -0.333512
     17          1           0       -3.232028   -1.281400   -0.280485
     18          1           0       -2.150827   -1.775823   -1.564599
     19          1           0       -0.240798   -1.821965    0.062818
     20          1           0       -1.303514   -1.281852    1.348054
     21          1           0       -0.835639    0.344366   -1.198560
     22          1           0       -1.377352    2.271613    0.278952
     23          1           0       -1.819339    1.148869    1.580933
     24          1           0       -4.944659    1.865193   -0.082985
     25          1           0       -3.677016    3.085878    0.216394
     26          1           0       -4.132416    1.940965    1.504963
     27          1           0        1.408472   -0.609112   -0.970725
     28          1           0        1.991739    2.404034   -0.912603
     29          1           0        0.862424    1.617422   -2.029316
     30          1           0        2.585642    1.250479   -2.128055
     31          1           0        2.519525   -0.638125    1.239806
     32          1           0        2.921313    1.069396    1.080790
     33          1           0        4.412455    0.541222   -0.866636
     34          1           0        3.923745   -1.153991   -0.790056
     35          1           0        5.273650    0.185006    1.282352
 ---------------------------------------------------------------------

 SCF Done:  E(RB3LYP) =  -620.005754636     A.U. after    1 cycles

 The electronic state is 1-A.
 Alpha  occ. eigenvalues --  -19.14221 -19.13274 -19.13140 -10.23424 -10.22779
 Alpha  occ. eigenvalues --  -10.22557 -10.22538 -10.22253 -10.17696 -10.17586
 Alpha  occ. eigenvalues --  -10.17178 -10.16938 -10.16650  -1.03711  -1.02436
 Alpha  occ. eigenvalues --   -1.01232  -0.80487  -0.77623  -0.74162  -0.71283
 Alpha  occ. eigenvalues --   -0.69085  -0.65783  -0.63328  -0.59320  -0.57756
 Alpha  occ. eigenvalues --   -0.56694  -0.50788  -0.49817  -0.48888  -0.47700
 Alpha  occ. eigenvalues --   -0.46218  -0.44870  -0.44109  -0.43654  -0.43081
 Alpha  occ. eigenvalues --   -0.41466  -0.40122  -0.39356  -0.38827  -0.38325
 Alpha  occ. eigenvalues --   -0.36878  -0.36147  -0.35343  -0.34065  -0.33835
 Alpha  occ. eigenvalues --   -0.33004  -0.32422  -0.31894  -0.30756  -0.29935
 Alpha  occ. eigenvalues --   -0.26586  -0.25591  -0.24607
 Alpha virt. eigenvalues --    0.07836   0.07964   0.08521   0.10233   0.11398
 Alpha virt. eigenvalues --    0.11898   0.12264   0.13107   0.13687   0.14740
 Alpha virt. eigenvalues --    0.15382   0.16177   0.16419   0.16819   0.16979

 Mulliken charges:
               1
     1  C   -0.378489
     2  C   -0.171071
     3  C   -0.169376
     4  C    0.063884
     5  C   -0.066405
     6  O   -0.228117
     7  C   -0.226452
     8  O   -0.281020
     9  C    0.126222
    10  C   -0.396990
    11  C   -0.217273
    12  C   -0.063665
    13  O   -0.418095
    14  H    0.108740
    15  H    0.111879
    16  H    0.109308
    17  H    0.119248
    18  H    0.088487
    19  H    0.092654
    20  H    0.093817
    21  H    0.074125
    22  H    0.090118
    23  H    0.091259
    24  H    0.126782
    25  H    0.104967
    26  H    0.105500
    27  H    0.070226
    28  H    0.119078
    29  H    0.119498
    30  H    0.117480
    31  H    0.113016
    32  H    0.091793
    33  H    0.088678
    34  H    0.109947
    35  H    0.280249
 Sum of Mulliken charges =  -0.00000

 Dipole moment (field-independent basis, Debye):
    X=             -0.7945    Y=              1.7936    Z=             -0.2184  Tot=              1.9738
 Quadrupole moment (field-independent basis, Debye-Ang):
   XX=            -85.1789   YY=            -81.5249   ZZ=            -81.3579
   XY=              4.1878   XZ=             -2.4198   YZ=              2.3369

  Exact polarizability: 145.796   0.409 122.190   0.019  -0.266 106.233
 Approx polarizability: 172.095   0.143 163.943   1.883   2.646 163.846

                      1                      2                      3
                      A                      A                      A
 Frequencies --     26.8662                30.9814                54.5564
 Red. masses --      3.2877                 4.6080                 1.6883
 Frc consts  --      0.0014                 0.0026                 0.0030
 IR Inten    --      0.3528                 0.1806                 0.3927

                      4                      5                      6
                      A                      A                      A
 Frequencies --     63.2852                75.9946                87.4939
 Red. masses --      2.6438                 1.9961                 2.1917
 Frc consts  --      0.0062                 0.0068                 0.0099
 IR Inten    --      1.1745                 0.2573                 5.5400

                      7                      8                      9
                      A                      A                      A
 Frequencies --    100.2912               113.2344               124.0874
 Red. masses --      2.6737                 2.7560                 3.0667
 Frc consts  --      0.0158                 0.0208                 0.0278
 IR Inten    --      0.2876                 2.6747                 1.2193

                     10                     11                     12
                      A                      A                      A
 Frequencies --    160.1467               203.2265               226.3046
 Red. masses --      3.4015                 2.8827                 1.4924
 Frc consts  --      0.0514                 0.0701                 0.0450
 IR Inten    --      2.1506                 1.5430                 2.0567

                     13                     14                     15
                      A                      A                      A
 Frequencies --    237.7326               243.8528               256.8773
 Red. masses --      1.2254                 1.1905                 1.7535
 Frc consts  --      0.0408                 0.0417                 0.0682
 IR Inten    --      1.8076                 0.5127                 1.0076

                     16                     17                     18
                      A                      A                      A
 Frequencies --    281.0702               300.8859               319.5877
 Red. masses --      3.8815                 1.1625                 2.6307
 Frc consts  --      0.1807                 0.0620                 0.1583
 IR Inten    --      0.1665                94.8303                 0.6439

                     19                     20                     21
                      A                      A                      A
 Frequencies --    349.0618               370.1739               428.0071
 Red. masses --      3.4846                 3.8436                 2.6857
 Frc consts  --      0.2502                 0.3103                 0.2899
 IR Inten    --     18.6230                 6.5461                 1.0222

                     22                     23                     24
                      A                      A                      A
 Frequencies --    464.9548               484.3880               542.0474
 Red. masses --      3.1513                 2.5131                 3.2256
 Frc consts  --      0.4014                 0.3474                 0.5584
 IR Inten    --      8.2242                 4.4361                 1.6330

                     25                     26                     27
                      A                      A                      A
 Frequencies --    582.4058               745.4789               787.1845
 Red. masses --      2.7914                 1.1161                 1.1835
 Frc consts  --      0.5578                 0.3654                 0.4321
 IR Inten    --      1.4043                 2.8662                 1.9558

                     28                     29                     30
                      A                      A                      A
 Frequencies --    852.6340               860.7425               892.8084
 Red. masses --      1.8690                 1.4761                 1.8346
 Frc consts  --      0.8006                 0.6443                 0.8616
 IR Inten    --      5.0978                 0.6465                 3.8567

                     31                     32                     33
                      A                      A                      A
 Frequencies --    930.3976               935.9554               963.5618
 Red. masses --      2.3614                 1.9597                 1.3965
 Frc consts  --      1.2044                 1.0115                 0.7639
 IR Inten    --      3.8900                 5.3811                 9.3463

                     34                     35                     36
                      A                      A                      A
 Frequencies --   1002.3131              1009.0686              1017.1655
 Red. masses --      2.5556                 1.6360                 2.5790
 Frc consts  --      1.5127                 0.9815                 1.5721
 IR Inten    --     11.5866                 7.2287                20.8835

                     37                     38                     39
                      A                      A                      A
 Frequencies --   1044.9380              1071.6946              1079.2405
 Red. masses --      2.7497                 4.3095                 2.5220
 Frc consts  --      1.7690                 2.9162                 1.7308
 IR Inten    --     27.0484               191.9552                 5.9024

                     40                     41                     42
                      A                      A                      A
 Frequencies --   1105.0803              1116.3821              1135.4308
 Red. masses --      3.4011                 1.9980                 2.2279
 Frc consts  --      2.4471                 1.4671                 1.6922
 IR Inten    --     64.6079                14.2163                10.7485

                     43                     44                     45
                      A                      A                      A
 Frequencies --   1138.8910              1147.5276              1166.4400
 Red. masses --      2.4753                 1.9198                 2.4005
 Frc consts  --      1.8917                 1.4895                 1.9243
 IR Inten    --     76.2548                27.7483               120.7019

                     46                     47                     48
                      A                      A                      A
 Frequencies --   1174.7831              1196.2350              1223.2877
 Red. masses --      1.9369                 1.6198                 1.6427
 Frc consts  --      1.5749                 1.3657                 1.4483
 IR Inten    --     60.8216                 0.7278                29.2698

                     49                     50                     51
                      A                      A                      A
 Frequencies --   1233.7254              1239.1650              1281.7210
 Red. masses --      1.7226                 1.3229                 1.2580
 Frc consts  --      1.5448                 1.1969                 1.2176
 IR Inten    --     23.0737                 3.0340                 4.9402

                     52                     53                     54
                      A                      A                      A
 Frequencies --   1284.1352              1295.5251              1311.6200
 Red. masses --      1.2342                 1.2744                 1.2206
 Frc consts  --      1.1991                 1.2602                 1.2372
 IR Inten    --     10.6387                 5.8159                12.2319

                     55                     56                     57
                      A                      A                      A
 Frequencies --   1324.3575              1344.1083              1370.4940
 Red. masses --      1.1390                 1.2050                 1.3038
 Frc consts  --      1.1771                 1.2827                 1.4429
 IR Inten    --      2.8987                25.4748                14.3950

                     58                     59                     60
                      A                      A                      A
 Frequencies --   1376.7970              1387.6756              1396.7743
 Red. masses --      1.3166                 1.3335                 1.4505
 Frc consts  --      1.4704                 1.5129                 1.6673
 IR Inten    --     13.5954                 8.3161                 2.7613

                     61                     62                     63
                      A                      A                      A
 Frequencies --   1405.8630              1408.4230              1412.0178
 Red. masses --      1.3421                 1.2771                 1.2410
 Frc consts  --      1.5629                 1.4925                 1.4578
 IR Inten    --      2.5877                20.1389                 1.5204

                     64                     65                     66
                      A                      A                      A
 Frequencies --   1424.8416              1431.2234              1477.8118
 Red. masses --      1.2869                 1.4408                 1.1076
 Frc consts  --      1.5393                 1.7388                 1.4252
 IR Inten    --     45.6127                 7.7295                 3.1121

                     67                     68                     69
                      A                      A                      A
 Frequencies --   1483.5729              1484.5790              1485.2834
 Red. masses --      1.0718                 1.1343                 1.0493
 Frc consts  --      1.3899                 1.4730                 1.3638
 IR Inten    --      0.3787                 1.7270                 4.1570

                     70                     71                     72
                      A                      A                      A
 Frequencies --   1491.5444              1494.9608              1499.9042
 Red. masses --      1.0565                 1.0505                 1.0408
 Frc consts  --      1.3848                 1.3832                 1.3796
 IR Inten    --      3.3040                 1.6853                 4.4992

                     73                     74                     75
                      A                      A                      A
 Frequencies --   1500.7985              1504.1513              1513.1134
 Red. masses --      1.0638                 1.0635                 1.0884
 Frc consts  --      1.4117                 1.4176                 1.4682
 IR Inten    --      4.4687                13.8670                 1.7132

                     76                     77                     78
                      A                      A                      A
 Frequencies --   1516.5151              1526.7020              2957.3610
 Red. masses --      1.0915                 1.0883                 1.0528
 Frc consts  --      1.4790                 1.4945                 5.4252
 IR Inten    --      0.1425                 0.7721                25.4198

                     79                     80                     81
                      A                      A                      A
 Frequencies --   2966.9410              2972.4784              2984.5153
 Red. masses --      1.0808                 1.0420                 1.0706
 Frc consts  --      5.6057                 5.4246                 5.6184
 IR Inten    --     23.0265                68.4017                43.5606

                     82                     83                     84
                      A                      A                      A
 Frequencies --   2986.0284              3002.1295              3011.3516
 Red. masses --      1.0818                 1.0986                 1.0603
 Frc consts  --      5.6832                 5.8340                 5.6649
 IR Inten    --     32.2627                63.9010                14.8844

                     85                     86                     87
                      A                      A                      A
 Frequencies --   3014.6697              3015.5991              3019.8321
 Red. masses --      1.1034                 1.0666                 1.0715
 Frc consts  --      5.9082                 5.7149                 5.7570
 IR Inten    --     40.9277                20.8666                29.0645

                     88                     89                     90
                      A                      A                      A
 Frequencies --   3025.7843              3036.0953              3049.2971
 Red. masses --      1.0372                 1.0354                 1.0985
 Frc consts  --      5.5950                 5.6235                 6.0177
 IR Inten    --     40.3805                17.7271                41.7246

                     91                     92                     93
                      A                      A                      A
 Frequencies --   3057.5713              3081.5370              3086.3069
 Red. masses --      1.0898                 1.0970                 1.0990
 Frc consts  --      6.0026                 6.1372                 6.1676
 IR Inten    --     26.5701                10.5815                36.5359

                     94                     95                     96
                      A                      A                      A
 Frequencies --   3097.8087              3108.1953              3110.0550
 Red. masses --      1.1012                 1.1006                 1.1015
 Frc consts  --      6.2263                 6.2644                 6.2773
 IR Inten    --     37.7904                35.9157                22.1298

                     97                     98                     99
                      A                      A                      A
 Frequencies --   3110.7548              3113.9530              3814.2319
 Red. masses --      1.0956                 1.0961                 1.0661
 Frc consts  --      6.2467                 6.2621                 9.1383
 IR Inten    --     46.3030                28.3741                16.5447

 - Thermochemistry -
 -------------------
 Temperature   298.150 Kelvin.  Pressure   1.00000 Atm.
 Atom     1 has atomic number  6 and mass  12.00000

 Molecular mass:   190.15689 amu.
 Principal axes and moments of inertia in atomic units:
                           1         2         3
     Eigenvalues --  1748.855035694.765896877.38455
           X            0.99990   0.01213  -0.00722
           Y           -0.01212   0.99992   0.00197
           Z            0.00724  -0.00189   0.99997
 This molecule is an asymmetric top.
 Rotational symmetry number  1.
 Warning -- assumption of classical behavior for rotation
           may cause significant error
 Rotational temperatures (Kelvin)      0.04953     0.01521     0.01259
 Rotational constants (GHZ):           1.03196     0.31691     0.26242
 Zero-point vibrational energy     826946.5 (Joules/Mol)
                                  197.64495 (Kcal/Mol)
 Warning -- explicit consideration of  25 degrees of freedom as
           vibrations may cause significant error
 Vibrational temperatures:     38.65    44.58    78.49    91.05   109.34
          (Kelvin)            125.88   144.30   162.92   178.53   230.42
                              292.40   325.60   342.04   350.85   369.59
                              404.40   432.91   459.82   502.22   532.60
                              615.81   668.97   696.93   779.89   837.95
                             1072.58  1132.58  1226.75  1238.42  1284.55
                             1338.63  1346.63  1386.35  1442.10  1451.82
                             1463.47  1503.43  1541.93  1552.79  1589.96
                             1606.22  1633.63  1638.61  1651.04  1678.25
                             1690.25  1721.12  1760.04  1775.06  1782.88
                             1844.11  1847.58  1863.97  1887.13  1905.46
                             1933.87  1971.84  1980.90  1996.56  2009.65
                             2022.72  2026.41  2031.58  2050.03  2059.21
                             2126.24  2134.53  2135.98  2136.99  2146.00
                             2150.92  2158.03  2159.31  2164.14  2177.03
                             2181.93  2196.58  4254.98  4268.77  4276.73
                             4294.05  4296.23  4319.39  4332.66  4337.44
                             4338.77  4344.86  4353.43  4368.26  4387.26
                             4399.16  4433.64  4440.51  4457.06  4472.00
                             4474.68  4475.68  4480.28  5487.83

 Zero-point correction=                           0.314967 (Hartree/Particle)
 Thermal correction to Energy=                    0.332233
 Thermal correction to Enthalpy=                  0.333178
 Thermal correction to Gibbs Free Energy=         0.268126
 Sum of electronic and zero-point Energies=           -619.690787
 Sum of electronic and thermal Energies=              -619.673521
 Sum of electronic and thermal Enthalpies=            -619.672577
 Sum of electronic and thermal Free Energies=         -619.737628

                     E (Thermal)             CV                S
                      KCal/Mol        Cal/Mol-Kelvin    Cal/Mol-Kelvin
 Total                  208.480             60.467            136.912
 Electronic               0.000              0.000              0.000
 Translational            0.889              2.981             41.634
 Rotational               0.889              2.981             32.593
 Vibrational            206.702             54.505             62.685
 Vibration     1          0.593              1.984              6.048
 Vibration     2          0.594              1.984              5.766
 Vibration     3          0.596              1.976              4.645
 Vibration     4          0.597              1.972              4.352
 Vibration     5          0.599              1.965              3.992
 Vibration     6          0.601              1.958              3.715
 Vibration     7          0.604              1.949              3.449
 Vibration     8          0.607              1.938              3.213
 Vibration     9          0.610              1.929              3.036
 Vibration    10          0.622              1.891              2.548
 Vibration    11          0.639              1.835              2.104
 Vibration    12          0.650              1.801              1.908
 Vibration    13          0.656              1.783              1.820
 Vibration    14          0.659              1.773              1.775
 Vibration    15          0.666              1.751              1.683
 Vibration    16          0.681              1.709              1.527
 Vibration    17          0.693              1.672              1.412
 Vibration    18          0.706              1.636              1.312
 Vibration    19          0.726              1.577              1.170
 Vibration    20          0.742              1.533              1.079
 Vibration    21          0.790              1.409              0.865
 Vibration    22          0.822              1.328              0.752
 Vibration    23          0.841              1.285              0.698
 Vibration    24          0.897              1.157              0.561
 Vibration    25          0.939              1.069              0.481

 Optimization completed.
    -- Stationary point found.
 Normal termination of Gaussian 16 at Sat May 27 14:23:39 2023.
