 Gaussian 16, Revision A.03,
 Gaussian 16:  ES64L-G16RevA.03 25-Dec-2016

 -----------------------------
 # opt freq b3lyp/6-31g(2df,p)
 -----------------------------

 -------------------
 Title Card Required
 -------------------
 Symbolic Z-matrix:
 Charge =  0 Multiplicity = 1

 SCF Done:  E(RB3LYP) =  -352.442368663     A.U. after   12 cycles
 SCF Done:  E(RB3LYP) =  -352.477010324     A.U. after   11 cycles
 SCF Done:  E(RB3LYP) =  -352.500484364     A.U. after   11 cycles
 SCF Done:  E(RB3LYP) =  -352.509610370     A.U. after   10 cycles
 SCF Done:  E(RB3LYP) =  -352.514764139     A.U. after   10 cycles
 SCF Done:  E(RB3LYP) =  -352.521360385     A.U. after   10 cycles
 SCF Done:  E(RB3LYP) =  -352.527083623     A.U. after   10 cycles
 SCF Done:  E(RB3LYP) =  -352.532143939     A.U. after   12 cycles
 SCF Done:  E(RB3LYP) =  -352.532976646     A.U. after   10 cycles
 SCF Done:  E(RB3LYP) =  -352.533613970     A.U. after    9 cycles
 SCF Done:  E(RB3LYP) =  -352.534415750     A.U. after    7 cycles
 SCF Done:  E(RB3LYP) =  -352.534416905     A.U. after    7 cycles
 SCF Done:  E(RB3LYP) =  -352.534417158     A.U. after    6 cycles
 SCF Done:  E(RB3LYP) =  -352.534417706     A.U. after    6 cycles
 SCF Done:  E(RB3LYP) =  -352.534418153     A.U. after    6 cycles
 SCF Done:  E(RB3LYP) =  -352.534418750     A.U. after    6 cycles
 SCF Done:  E(RB3LYP) =  -352.534419089     A.U. after    6 cycles
 SCF Done:  E(RB3LYP) =  -352.534419205     A.U. after    6 cycles
 SCF Done:  E(RB3LYP) =  -352.534419221     A.U. after    5 cycles
 Optimization completed.
    -- Stationary point found.
 Normal termination of Gaussian 16 at Sun May 28 06:27:37 2023.

 ----------------------------------------------------------------------
 #N Geom=AllCheck Guess=TCheck SCRF=Check GenChk RB3LYP/6-31G(2df,p) Fr
 eq
 ----------------------------------------------------------------------

 Structure from the checkpoint file:  "CCCC1C2CC1C2C.chk"
 -------------------
 Title Card Required
 -------------------
 Charge =  0 Multiplicity = 1

                         Standard orientation:
 ---------------------------------------------------------------------
 Center     Atomic      Atomic             Coordinates (Angstroms)
 Number     Number       Type             X           Y           Z
 ---------------------------------------------------------------------
      1          6           0        3.564471    0.102574   -0.039189
      2          6           0        2.168903   -0.363013   -0.462962
      3          6           0        1.125626   -0.243547    0.656539
      4          6           0       -0.229615   -0.839587    0.276958
      5          6           0       -1.584257   -0.366137    0.893465
      6          6           0       -2.270553   -1.208832   -0.223103
      7          6           0       -1.139068   -0.407300   -0.933872
      8          6           0       -1.647730    0.829172   -0.124514
      9          6           0       -0.872770    2.143065   -0.019506
     10          1           0        4.284567    0.009123   -0.858311
     11          1           0        3.939806   -0.488734    0.803591
     12          1           0        3.553530    1.152234    0.275688
     13          1           0        2.216313   -1.406554   -0.801879
     14          1           0        1.835219    0.218898   -1.332042
     15          1           0        1.052874    0.795866    0.982374
     16          1           0        1.487230   -0.797031    1.534843
     17          1           0       -0.122081   -1.931983    0.305446
     18          1           0       -1.852641   -0.341700    1.952556
     19          1           0       -3.296739   -0.937205   -0.483192
     20          1           0       -2.142673   -2.292431   -0.164047
     21          1           0       -0.888036   -0.440322   -1.996513
     22          1           0       -2.689421    1.075452   -0.362928
     23          1           0        0.189061    2.055008   -0.247914
     24          1           0       -0.967954    2.585237    0.979069
     25          1           0       -1.289100    2.865768   -0.729635
 ---------------------------------------------------------------------

 SCF Done:  E(RB3LYP) =  -352.534419221     A.U. after    1 cycles

 The electronic state is 1-A.
 Alpha  occ. eigenvalues --  -10.19174 -10.19126 -10.18614 -10.18362 -10.17935
 Alpha  occ. eigenvalues --  -10.17579 -10.17051 -10.16961 -10.16907  -0.90161
 Alpha  occ. eigenvalues --   -0.78209  -0.72907  -0.70330  -0.62366  -0.61633
 Alpha  occ. eigenvalues --   -0.61206  -0.57496  -0.51351  -0.48721  -0.45923
 Alpha  occ. eigenvalues --   -0.43757  -0.42809  -0.40600  -0.40449  -0.38481
 Alpha  occ. eigenvalues --   -0.37396  -0.36932  -0.34120  -0.32738  -0.32264
 Alpha  occ. eigenvalues --   -0.30786  -0.30223  -0.29264  -0.28870  -0.28011
 Alpha virt. eigenvalues --    0.08532   0.11056   0.11298   0.12435   0.13138
 Alpha virt. eigenvalues --    0.13415   0.14651   0.15004   0.15739   0.16073
 Alpha virt. eigenvalues --    0.17027   0.17580   0.18175   0.18630   0.19441

 Mulliken charges:
               1
     1  C   -0.380388
     2  C   -0.154372
     3  C   -0.249240
     4  C    0.077711
     5  C   -0.096738
     6  C   -0.223299
     7  C   -0.081275
     8  C    0.082783
     9  C   -0.450993
    10  H    0.109699
    11  H    0.112884
    12  H    0.112584
    13  H    0.093240
    14  H    0.097051
    15  H    0.097942
    16  H    0.087862
    17  H    0.059498
    18  H    0.060308
    19  H    0.085382
    20  H    0.085542
    21  H    0.061805
    22  H    0.061018
    23  H    0.125026
    24  H    0.115253
    25  H    0.110718
 Sum of Mulliken charges =   0.00000

 Dipole moment (field-independent basis, Debye):
    X=              0.0859    Y=              0.0977    Z=             -0.0028  Tot=              0.1301
 Quadrupole moment (field-independent basis, Debye-Ang):
   XX=            -58.7461   YY=            -57.8643   ZZ=            -58.0486
   XY=             -0.6693   XZ=             -0.0599   YZ=             -0.1823

  Exact polarizability: 106.973   0.758  92.940   1.068  -0.208  82.310
 Approx polarizability: 134.118  -1.164 133.824   1.061  -0.640 129.673

                      1                      2                      3
                      A                      A                      A
 Frequencies --     46.4565                67.9729                95.8330
 Red. masses --      2.0366                 1.4453                 1.6066
 Frc consts  --      0.0026                 0.0039                 0.0087
 IR Inten    --      0.0359                 0.0224                 0.0184

                      4                      5                      6
                      A                      A                      A
 Frequencies --    119.7995               237.1357               267.3723
 Red. masses --      2.7489                 1.1454                 2.2737
 Frc consts  --      0.0232                 0.0379                 0.0958
 IR Inten    --      0.0105                 0.0071                 0.0909

                      7                      8                      9
                      A                      A                      A
 Frequencies --    301.0767               338.8548               361.9176
 Red. masses --      2.9852                 2.1726                 2.4956
 Frc consts  --      0.1594                 0.1470                 0.1926
 IR Inten    --      0.1339                 0.2567                 0.6177

                     10                     11                     12
                      A                      A                      A
 Frequencies --    395.6285               556.1588               650.1543
 Red. masses --      2.9165                 2.5970                 3.1021
 Frc consts  --      0.2690                 0.4733                 0.7726
 IR Inten    --      0.4320                 0.0141                 0.3054

                     13                     14                     15
                      A                      A                      A
 Frequencies --    734.6359               750.1610               781.4735
 Red. masses --      1.4721                 1.9481                 1.9167
 Frc consts  --      0.4681                 0.6459                 0.6897
 IR Inten    --      1.4625                 1.1422                 0.9390

                     16                     17                     18
                      A                      A                      A
 Frequencies --    793.9329               826.2842               883.0650
 Red. masses --      2.1787                 2.2828                 2.3037
 Frc consts  --      0.8091                 0.9183                 1.0584
 IR Inten    --      0.2136                 0.1144                 1.3635

                     19                     20                     21
                      A                      A                      A
 Frequencies --    890.0440               907.5458               911.8985
 Red. masses --      2.2456                 1.7173                 1.3816
 Frc consts  --      1.0481                 0.8333                 0.6769
 IR Inten    --      0.0147                 0.6948                 0.1220

                     22                     23                     24
                      A                      A                      A
 Frequencies --   1010.5081              1027.5858              1030.1438
 Red. masses --      1.1350                 1.5575                 1.0554
 Frc consts  --      0.6829                 0.9690                 0.6599
 IR Inten    --      1.8500                 0.3945                 0.2232

                     25                     26                     27
                      A                      A                      A
 Frequencies --   1046.4808              1055.9875              1071.0010
 Red. masses --      2.4577                 2.3604                 1.3471
 Frc consts  --      1.5858                 1.5508                 0.9104
 IR Inten    --      0.4393                 1.2957                 2.6674

                     28                     29                     30
                      A                      A                      A
 Frequencies --   1080.9553              1112.0382              1129.4496
 Red. masses --      1.6614                 1.4981                 1.9727
 Frc consts  --      1.1438                 1.0915                 1.4827
 IR Inten    --      5.3465                 0.1374                 0.2400

                     31                     32                     33
                      A                      A                      A
 Frequencies --   1145.1621              1162.8254              1175.9662
 Red. masses --      2.0409                 2.2534                 1.3969
 Frc consts  --      1.5769                 1.7952                 1.1382
 IR Inten    --      1.2111                 0.6959                 0.7012

                     34                     35                     36
                      A                      A                      A
 Frequencies --   1185.5929              1223.2002              1233.5037
 Red. masses --      2.8405                 1.4400                 1.7726
 Frc consts  --      2.3524                 1.2694                 1.5891
 IR Inten    --      1.5061                 0.3147                 2.2602

                     37                     38                     39
                      A                      A                      A
 Frequencies --   1246.8581              1260.6746              1289.2669
 Red. masses --      1.6126                 1.3938                 1.8467
 Frc consts  --      1.4771                 1.3052                 1.8085
 IR Inten    --      7.5882                 0.6161                 1.6516

                     40                     41                     42
                      A                      A                      A
 Frequencies --   1312.1091              1328.3053              1387.5868
 Red. masses --      1.3927                 1.1076                 1.5157
 Frc consts  --      1.4127                 1.1514                 1.7194
 IR Inten    --      7.0576                 0.0449                 0.4618

                     43                     44                     45
                      A                      A                      A
 Frequencies --   1408.8900              1412.1244              1428.1883
 Red. masses --      1.2201                 1.2305                 1.2362
 Frc consts  --      1.4269                 1.4457                 1.4857
 IR Inten    --      0.5916                 0.5089                 5.9642

                     46                     47                     48
                      A                      A                      A
 Frequencies --   1459.5688              1486.4573              1491.4814
 Red. masses --      1.2150                 1.0612                 1.0584
 Frc consts  --      1.5250                 1.3815                 1.3872
 IR Inten    --      6.8859                 1.1964                 3.5534

                     49                     50                     51
                      A                      A                      A
 Frequencies --   1495.7180              1499.4972              1507.5889
 Red. masses --      1.0491                 1.0407                 1.0714
 Frc consts  --      1.3829                 1.3786                 1.4347
 IR Inten    --      1.1593                 5.3962                 4.5400

                     52                     53                     54
                      A                      A                      A
 Frequencies --   1526.3634              1528.8007              2998.9353
 Red. masses --      1.1225                 1.0861                 1.0793
 Frc consts  --      1.5408                 1.4956                 5.7189
 IR Inten    --      2.4000                 0.0967                19.2307

                     55                     56                     57
                      A                      A                      A
 Frequencies --   3012.2493              3015.7252              3017.9552
 Red. masses --      1.0708                 1.0674                 1.0791
 Frc consts  --      5.7246                 5.7195                 5.7910
 IR Inten    --     33.7419                46.2034                20.0826

                     58                     59                     60
                      A                      A                      A
 Frequencies --   3027.2290              3035.3799              3043.9247
 Red. masses --      1.0361                 1.0453                 1.0974
 Frc consts  --      5.5944                 5.6746                 5.9906
 IR Inten    --     36.4062                39.6886                16.8672

                     61                     62                     63
                      A                      A                      A
 Frequencies --   3051.4781              3077.1247              3084.7024
 Red. masses --      1.0548                 1.0892                 1.0975
 Frc consts  --      5.7871                 6.0766                 6.1527
 IR Inten    --     51.2263               122.6852                11.1524

                     64                     65                     66
                      A                      A                      A
 Frequencies --   3086.3317              3091.7360              3099.0286
 Red. masses --      1.0943                 1.1001                 1.1010
 Frc consts  --      6.1412                 6.1955                 6.2300
 IR Inten    --     26.0074                27.3662                37.8450

                     67                     68                     69
                      A                      A                      A
 Frequencies --   3104.5683              3118.1187              3144.9866
 Red. masses --      1.0912                 1.1106                 1.0931
 Frc consts  --      6.1966                 6.3620                 6.3701
 IR Inten    --     55.3801                55.9759                23.4471

 - Thermochemistry -
 -------------------
 Temperature   298.150 Kelvin.  Pressure   1.00000 Atm.
 Atom     1 has atomic number  6 and mass  12.00000

 Molecular mass:   124.12520 amu.
 Principal axes and moments of inertia in atomic units:
                           1         2         3
     Eigenvalues --   634.263981817.101222117.96779
           X            1.00000  -0.00062   0.00129
           Y            0.00061   0.99999   0.00354
           Z           -0.00130  -0.00354   0.99999
 This molecule is an asymmetric top.
 Rotational symmetry number  1.
 Warning -- assumption of classical behavior for rotation
           may cause significant error
 Rotational temperatures (Kelvin)      0.13656     0.04767     0.04089
 Rotational constants (GHZ):           2.84541     0.99320     0.85211
 Zero-point vibrational energy     602240.5 (Joules/Mol)
                                  143.93894 (Kcal/Mol)
 Warning -- explicit consideration of  11 degrees of freedom as
           vibrations may cause significant error
 Vibrational temperatures:     66.84    97.80   137.88   172.36   341.19
          (Kelvin)            384.69   433.18   487.54   520.72   569.22
                              800.19   935.43  1056.98  1079.31  1124.37
                             1142.29  1188.84  1270.53  1280.57  1305.76
                             1312.02  1453.90  1478.47  1482.15  1505.65
                             1519.33  1540.93  1555.25  1599.97  1625.03
                             1647.63  1673.05  1691.95  1705.80  1759.91
                             1774.74  1793.95  1813.83  1854.97  1887.83
                             1911.14  1996.43  2027.08  2031.73  2054.84
                             2099.99  2138.68  2145.91  2152.00  2157.44
                             2169.08  2196.10  2199.60  4314.80  4333.95
                             4338.96  4342.16  4355.51  4367.23  4379.53
                             4390.40  4427.30  4438.20  4440.54  4448.32
                             4458.81  4466.78  4486.28  4524.93

 Zero-point correction=                           0.229381 (Hartree/Particle)
 Thermal correction to Energy=                    0.239179
 Thermal correction to Enthalpy=                  0.240123
 Thermal correction to Gibbs Free Energy=         0.193819
 Sum of electronic and zero-point Energies=           -352.305038
 Sum of electronic and thermal Energies=              -352.295240
 Sum of electronic and thermal Enthalpies=            -352.294296
 Sum of electronic and thermal Free Energies=         -352.340601

                     E (Thermal)             CV                S
                      KCal/Mol        Cal/Mol-Kelvin    Cal/Mol-Kelvin
 Total                  150.087             37.038             97.456
 Electronic               0.000              0.000              0.000
 Translational            0.889              2.981             40.362
 Rotational               0.889              2.981             29.280
 Vibrational            148.310             31.077             27.814
 Vibration     1          0.595              1.979              4.963
 Vibration     2          0.598              1.969              4.211
 Vibration     3          0.603              1.952              3.537
 Vibration     4          0.609              1.933              3.104
 Vibration     5          0.656              1.784              1.824
 Vibration     6          0.672              1.733              1.613
 Vibration     7          0.693              1.672              1.411
 Vibration     8          0.719              1.598              1.218
 Vibration     9          0.736              1.551              1.114
 Vibration    10          0.762              1.480              0.979
 Vibration    11          0.912              1.126              0.532

 Optimization completed.
    -- Stationary point found.
 Normal termination of Gaussian 16 at Sun May 28 07:10:00 2023.
