 Gaussian 16, Revision A.03,
 Gaussian 16:  ES64L-G16RevA.03 25-Dec-2016

 -----------------------------
 # opt freq b3lyp/6-31g(2df,p)
 -----------------------------

 -------------------
 Title Card Required
 -------------------
 Symbolic Z-matrix:
 Charge =  0 Multiplicity = 1

 SCF Done:  E(RB3LYP) =  -705.460870945     A.U. after   12 cycles
 SCF Done:  E(RB3LYP) =  -705.476192702     A.U. after   10 cycles
 SCF Done:  E(RB3LYP) =  -705.478376539     A.U. after   10 cycles
 SCF Done:  E(RB3LYP) =  -705.480269655     A.U. after   10 cycles
 SCF Done:  E(RB3LYP) =  -705.480688072     A.U. after   10 cycles
 SCF Done:  E(RB3LYP) =  -705.480898937     A.U. after    9 cycles
 SCF Done:  E(RB3LYP) =  -705.481008848     A.U. after    9 cycles
 SCF Done:  E(RB3LYP) =  -705.480951029     A.U. after    9 cycles
 SCF Done:  E(RB3LYP) =  -705.481560005     A.U. after    9 cycles
 SCF Done:  E(RB3LYP) =  -705.481373131     A.U. after    9 cycles
 SCF Done:  E(RB3LYP) =  -705.481889507     A.U. after    9 cycles
 SCF Done:  E(RB3LYP) =  -705.481728236     A.U. after    9 cycles
 SCF Done:  E(RB3LYP) =  -705.481959797     A.U. after   10 cycles
 SCF Done:  E(RB3LYP) =  -705.481939492     A.U. after    9 cycles
 SCF Done:  E(RB3LYP) =  -705.481971377     A.U. after    9 cycles
 SCF Done:  E(RB3LYP) =  -705.481971800     A.U. after    7 cycles
 SCF Done:  E(RB3LYP) =  -705.481971888     A.U. after    6 cycles
 SCF Done:  E(RB3LYP) =  -705.481971899     A.U. after    5 cycles
 SCF Done:  E(RB3LYP) =  -705.481971897     A.U. after    5 cycles
 Optimization completed.
    -- Stationary point found.
 Normal termination of Gaussian 16 at Mon May 22 19:58:34 2023.

 ----------------------------------------------------------------------
 #N Geom=AllCheck Guess=TCheck SCRF=Check GenChk RB3LYP/6-31G(2df,p) Fr
 eq
 ----------------------------------------------------------------------

 Structure from the checkpoint file:  "CCCCCCCCCCqCCrCCCCO.chk"
 -------------------
 Title Card Required
 -------------------
 Charge =  0 Multiplicity = 1

                         Standard orientation:
 ---------------------------------------------------------------------
 Center     Atomic      Atomic             Coordinates (Angstroms)
 Number     Number       Type             X           Y           Z
 ---------------------------------------------------------------------
      1          6           0       -9.090171   -0.921207    0.113941
      2          6           0       -7.794910   -0.617461   -0.643874
      3          6           0       -6.560129   -0.572903    0.262727
      4          6           0       -5.259031   -0.269519   -0.487536
      5          6           0       -4.024714   -0.224509    0.419641
      6          6           0       -2.723395    0.078567   -0.330904
      7          6           0       -1.489179    0.124527    0.576565
      8          6           0       -0.188086    0.428314   -0.174117
      9          6           0        1.047873    0.447735    0.736322
     10          6           0        2.384932    0.764870    0.014470
     11          6           0        2.805497    2.239946    0.175413
     12          6           0        1.803952    3.273950   -0.349773
     13          6           0        3.493113   -0.193645    0.499981
     14          6           0        4.826982   -0.112893   -0.253393
     15          6           0        5.818608   -1.201028    0.174991
     16          6           0        7.158449   -1.113463   -0.555985
     17          8           0        8.054902   -2.156238   -0.204000
     18          1           0       -9.952729   -0.946434   -0.559533
     19          1           0       -9.288043   -0.162640    0.879642
     20          1           0       -9.034577   -1.891734    0.619768
     21          1           0       -7.893320    0.342653   -1.167882
     22          1           0       -7.641950   -1.373167   -1.425922
     23          1           0       -6.461704   -1.533532    0.787944
     24          1           0       -6.713127    0.183001    1.046031
     25          1           0       -5.358485    0.690811   -1.012889
     26          1           0       -5.106708   -1.025869   -1.270380
     27          1           0       -3.925317   -1.184682    0.945219
     28          1           0       -4.176917    0.532054    1.202278
     29          1           0       -2.823043    1.038367   -0.857117
     30          1           0       -2.570812   -0.678451   -1.112998
     31          1           0       -1.389395   -0.835264    1.102993
     32          1           0       -1.642202    0.881268    1.359009
     33          1           0       -0.286953    1.387863   -0.696457
     34          1           0       -0.038743   -0.325835   -0.959681
     35          1           0        1.123825   -0.532957    1.223461
     36          1           0        0.890181    1.167074    1.551725
     37          1           0        2.240810    0.575021   -1.060404
     38          1           0        3.760234    2.398299   -0.338423
     39          1           0        2.999479    2.431888    1.240531
     40          1           0        1.585581    3.112799   -1.411458
     41          1           0        2.204286    4.287649   -0.245456
     42          1           0        0.854857    3.241026    0.193743
     43          1           0        3.114152   -1.221147    0.418290
     44          1           0        3.669540   -0.024694    1.572528
     45          1           0        5.290335    0.869974   -0.103911
     46          1           0        4.638592   -0.199926   -1.332947
     47          1           0        5.390490   -2.195883    0.000399
     48          1           0        5.997458   -1.126123    1.258200
     49          1           0        7.612848   -0.122641   -0.388382
     50          1           0        7.002972   -1.213102   -1.636277
     51          1           0        8.230417   -2.083457    0.739539
 ---------------------------------------------------------------------

 SCF Done:  E(RB3LYP) =  -705.481971897     A.U. after    1 cycles

 The electronic state is 1-A.
 Alpha  occ. eigenvalues --  -19.12838 -10.22076 -10.17996 -10.17876 -10.17710
 Alpha  occ. eigenvalues --  -10.17522 -10.17507 -10.17444 -10.17262 -10.17246
 Alpha  occ. eigenvalues --  -10.17235 -10.17224 -10.17211 -10.17194 -10.17150
 Alpha  occ. eigenvalues --  -10.17072 -10.16880  -1.00918  -0.81966  -0.80477
 Alpha  occ. eigenvalues --   -0.78786  -0.77577  -0.75181  -0.72773  -0.71146
 Alpha  occ. eigenvalues --   -0.67723  -0.64884  -0.61421  -0.61255  -0.58765
 Alpha  occ. eigenvalues --   -0.57449  -0.57146  -0.56729  -0.55037  -0.49911
 Alpha  occ. eigenvalues --   -0.48087  -0.47049  -0.46136  -0.45240  -0.44021
 Alpha  occ. eigenvalues --   -0.43340  -0.42610  -0.42500  -0.41760  -0.40975
 Alpha  occ. eigenvalues --   -0.40023  -0.39728  -0.39182  -0.38243  -0.37410
 Alpha  occ. eigenvalues --   -0.36797  -0.36338  -0.35425  -0.34869  -0.34684
 Alpha  occ. eigenvalues --   -0.33878  -0.33621  -0.33226  -0.32415  -0.32252
 Alpha  occ. eigenvalues --   -0.31896  -0.31750  -0.31598  -0.31538  -0.31131
 Alpha  occ. eigenvalues --   -0.30872  -0.30105  -0.28439  -0.25899
 Alpha virt. eigenvalues --    0.08003   0.08431   0.09129   0.09430   0.10258
 Alpha virt. eigenvalues --    0.10818   0.10930   0.11435   0.11916   0.12537
 Alpha virt. eigenvalues --    0.12800   0.13693   0.13830   0.14606   0.14993

 Mulliken charges:
               1
     1  C   -0.378955
     2  C   -0.162612
     3  C   -0.158049
     4  C   -0.177749
     5  C   -0.179767
     6  C   -0.180809
     7  C   -0.180112
     8  C   -0.183142
     9  C   -0.206749
    10  C    0.030802
    11  C   -0.168753
    12  C   -0.388115
    13  C   -0.194599
    14  C   -0.195821
    15  C   -0.197583
    16  C   -0.057483
    17  O   -0.419342
    18  H    0.109375
    19  H    0.112189
    20  H    0.112249
    21  H    0.092622
    22  H    0.092690
    23  H    0.089426
    24  H    0.089335
    25  H    0.089888
    26  H    0.089971
    27  H    0.090081
    28  H    0.089884
    29  H    0.090316
    30  H    0.090170
    31  H    0.090465
    32  H    0.089896
    33  H    0.096655
    34  H    0.090050
    35  H    0.087022
    36  H    0.088954
    37  H    0.062749
    38  H    0.094641
    39  H    0.089136
    40  H    0.113155
    41  H    0.108410
    42  H    0.118679
    43  H    0.089963
    44  H    0.089860
    45  H    0.098464
    46  H    0.094859
    47  H    0.104349
    48  H    0.082696
    49  H    0.082707
    50  H    0.109396
    51  H    0.278534
 Sum of Mulliken charges =  -0.00000

 Dipole moment (field-independent basis, Debye):
    X=             -0.7194    Y=              0.9983    Z=              0.9703  Tot=              1.5670
 Quadrupole moment (field-independent basis, Debye-Ang):
   XX=           -125.0300   YY=           -115.4263   ZZ=           -111.3101
   XY=              8.6303   XZ=              9.6166   YZ=             -1.9333

  Exact polarizability: 234.750  -2.087 166.196   0.755  -2.464 154.616
 Approx polarizability: 246.147  -1.990 245.496   1.478   0.244 244.480

                      1                      2                      3
                      A                      A                      A
 Frequencies --     13.1547                23.4295                33.2488
 Red. masses --      4.4340                 2.1971                 2.2701
 Frc consts  --      0.0005                 0.0007                 0.0015
 IR Inten    --      0.0716                 0.0685                 0.2214

                      4                      5                      6
                      A                      A                      A
 Frequencies --     39.8263                51.0012                57.2011
 Red. masses --      3.1205                 1.8463                 3.5349
 Frc consts  --      0.0029                 0.0028                 0.0068
 IR Inten    --      0.1159                 2.2303                 0.4736

                      7                      8                      9
                      A                      A                      A
 Frequencies --     75.5060                79.7434                97.7927
 Red. masses --      3.2576                 2.0176                 2.0990
 Frc consts  --      0.0109                 0.0076                 0.0118
 IR Inten    --      0.6683                 0.2480                 0.0696

                     10                     11                     12
                      A                      A                      A
 Frequencies --    104.2751               120.0199               131.2717
 Red. masses --      2.6175                 2.2540                 1.9197
 Frc consts  --      0.0168                 0.0191                 0.0195
 IR Inten    --      0.5126                 0.1686                 0.0490

                     13                     14                     15
                      A                      A                      A
 Frequencies --    141.4028               144.2153               156.0011
 Red. masses --      3.0976                 1.9479                 2.2302
 Frc consts  --      0.0365                 0.0239                 0.0320
 IR Inten    --      0.3596                 1.4773                 0.0949

                     16                     17                     18
                      A                      A                      A
 Frequencies --    160.7448               164.8713               201.5271
 Red. masses --      2.8776                 1.9850                 3.1345
 Frc consts  --      0.0438                 0.0318                 0.0750
 IR Inten    --      0.2293                 0.0114                 0.3352

                     19                     20                     21
                      A                      A                      A
 Frequencies --    222.0596               247.2654               258.5446
 Red. masses --      2.5948                 1.1209                 1.8095
 Frc consts  --      0.0754                 0.0404                 0.0713
 IR Inten    --      0.5498                 0.0012                 0.6632

                     22                     23                     24
                      A                      A                      A
 Frequencies --    268.9930               283.5965               305.5221
 Red. masses --      1.5086                 3.5466                 1.1846
 Frc consts  --      0.0643                 0.1681                 0.0651
 IR Inten    --      2.4910                 0.8856               105.8062

                     25                     26                     27
                      A                      A                      A
 Frequencies --    345.7569               362.5334               400.9879
 Red. masses --      2.8332                 3.2658                 2.5898
 Frc consts  --      0.1996                 0.2529                 0.2453
 IR Inten    --      0.0641                 4.4149                 2.8101

                     28                     29                     30
                      A                      A                      A
 Frequencies --    440.5669               461.8015               485.6461
 Red. masses --      2.6430                 3.0592                 3.2108
 Frc consts  --      0.3023                 0.3844                 0.4462
 IR Inten    --      2.8675                 1.4609                 1.5214

                     31                     32                     33
                      A                      A                      A
 Frequencies --    524.9282               558.5637               728.6815
 Red. masses --      2.8105                 2.8119                 1.0769
 Frc consts  --      0.4563                 0.5169                 0.3369
 IR Inten    --      0.8255                 1.0073                 2.9693

                     34                     35                     36
                      A                      A                      A
 Frequencies --    731.0875               737.4965               739.3535
 Red. masses --      1.0621                 1.1268                 1.0999
 Frc consts  --      0.3345                 0.3611                 0.3543
 IR Inten    --      3.6752                 2.6730                 0.4656

                     37                     38                     39
                      A                      A                      A
 Frequencies --    765.3140               775.9809               784.2939
 Red. masses --      1.1686                 1.3357                 1.1829
 Frc consts  --      0.4033                 0.4739                 0.4287
 IR Inten    --      0.1209                 1.6234                 0.9479

                     40                     41                     42
                      A                      A                      A
 Frequencies --    816.8174               844.6696               890.3818
 Red. masses --      1.2694                 1.5324                 1.2696
 Frc consts  --      0.4990                 0.6442                 0.5930
 IR Inten    --      0.6426                 0.6505                 0.1640

                     43                     44                     45
                      A                      A                      A
 Frequencies --    897.4311               926.2813               959.1470
 Red. masses --      1.9556                 1.2983                 1.6135
 Frc consts  --      0.9279                 0.6563                 0.8746
 IR Inten    --      1.2405                 6.1178                 2.9605

                     46                     47                     48
                      A                      A                      A
 Frequencies --    965.9227               983.4922               999.5390
 Red. masses --      2.2541                 2.6819                 3.3241
 Frc consts  --      1.2391                 1.5284                 1.9567
 IR Inten    --      0.7705                 2.6643                 0.9347

                     49                     50                     51
                      A                      A                      A
 Frequencies --   1007.7075              1024.3790              1031.5588
 Red. masses --      3.7941                 1.5304                 2.0185
 Frc consts  --      2.2700                 0.9462                 1.2655
 IR Inten    --      5.9145                 5.9780                 1.4034

                     52                     53                     54
                      A                      A                      A
 Frequencies --   1036.7626              1042.3527              1051.4052
 Red. masses --      2.0604                 1.8756                 2.4159
 Frc consts  --      1.3049                 1.2007                 1.5735
 IR Inten    --      3.3185                 0.9535                 3.4417

                     55                     56                     57
                      A                      A                      A
 Frequencies --   1058.0052              1063.3264              1069.4101
 Red. masses --      2.4064                 2.5590                 2.4033
 Frc consts  --      1.5871                 1.7047                 1.6194
 IR Inten    --      3.6889                 0.9346                 1.5566

                     58                     59                     60
                      A                      A                      A
 Frequencies --   1070.7862              1073.1306              1076.0327
 Red. masses --      2.1550                 1.8471                 1.8950
 Frc consts  --      1.4558                 1.2532                 1.2927
 IR Inten    --      1.1053                 6.9506                 5.5865

                     61                     62                     63
                      A                      A                      A
 Frequencies --   1081.0602              1114.8837              1137.3520
 Red. masses --      3.6330                 1.7759                 1.8302
 Frc consts  --      2.5016                 1.3006                 1.3949
 IR Inten    --     99.8483                 0.3824                 4.8246

                     64                     65                     66
                      A                      A                      A
 Frequencies --   1148.2087              1171.5923              1196.5082
 Red. masses --      2.2571                 1.8264                 1.8661
 Frc consts  --      1.7533                 1.4771                 1.5740
 IR Inten    --      1.6903                 0.1593                 0.4359

                     67                     68                     69
                      A                      A                      A
 Frequencies --   1217.4640              1229.1853              1249.3124
 Red. masses --      1.7368                 1.3165                 1.3305
 Frc consts  --      1.5167                 1.1719                 1.2235
 IR Inten    --      0.1188                 8.6411                 0.3269

                     70                     71                     72
                      A                      A                      A
 Frequencies --   1251.6564              1265.8077              1272.5253
 Red. masses --      1.3689                 1.3802                 1.3372
 Frc consts  --      1.2635                 1.3030                 1.2758
 IR Inten    --      0.2313                 7.6895                 4.3131

                     73                     74                     75
                      A                      A                      A
 Frequencies --   1286.0311              1297.8356              1314.0069
 Red. masses --      1.3123                 1.2649                 1.2474
 Frc consts  --      1.2787                 1.2553                 1.2690
 IR Inten    --      1.0505                 0.0736                 0.8262

                     76                     77                     78
                      A                      A                      A
 Frequencies --   1317.5300              1323.1235              1324.0464
 Red. masses --      1.1789                 1.2383                 1.0425
 Frc consts  --      1.2057                 1.2773                 1.0768
 IR Inten    --      0.4251                 3.2225                 0.3294

                     79                     80                     81
                      A                      A                      A
 Frequencies --   1324.4695              1329.2202              1335.2221
 Red. masses --      1.1072                 1.0925                 1.1220
 Frc consts  --      1.1443                 1.1373                 1.1786
 IR Inten    --      1.1596                 0.2484                 0.7299

                     82                     83                     84
                      A                      A                      A
 Frequencies --   1336.7939              1339.1824              1350.9364
 Red. masses --      1.1466                 1.1227                 1.2907
 Frc consts  --      1.2072                 1.1862                 1.3879
 IR Inten    --      0.3077                 0.0522                 1.5934

                     85                     86                     87
                      A                      A                      A
 Frequencies --   1358.2426              1369.4046              1383.4706
 Red. masses --      1.2354                 1.3710                 1.4511
 Frc consts  --      1.3428                 1.5148                 1.6364
 IR Inten    --      2.1061                 1.4517                 1.0995

                     88                     89                     90
                      A                      A                      A
 Frequencies --   1391.5766              1396.5131              1399.2537
 Red. masses --      1.4600                 1.3687                 1.5575
 Frc consts  --      1.6658                 1.5727                 1.7967
 IR Inten    --      0.6676                 3.4904                 0.3845

                     91                     92                     93
                      A                      A                      A
 Frequencies --   1401.3626              1402.8225              1403.8807
 Red. masses --      1.5420                 1.5757                 1.5053
 Frc consts  --      1.7841                 1.8269                 1.7480
 IR Inten    --      2.0994                 0.6246                 2.7010

                     94                     95                     96
                      A                      A                      A
 Frequencies --   1411.8207              1413.1891              1424.4932
 Red. masses --      1.2481                 1.2602                 1.2918
 Frc consts  --      1.4658                 1.4828                 1.5445
 IR Inten    --      0.9342                 0.5675                55.9621

                     97                     98                     99
                      A                      A                      A
 Frequencies --   1479.4872              1481.1916              1481.5141
 Red. masses --      1.0727                 1.0728                 1.0735
 Frc consts  --      1.3835                 1.3867                 1.3883
 IR Inten    --      0.6188                 0.2896                 0.1733

                    100                    101                    102
                      A                      A                      A
 Frequencies --   1484.3192              1484.9694              1486.2926
 Red. masses --      1.0685                 1.0733                 1.0835
 Frc consts  --      1.3870                 1.3945                 1.4102
 IR Inten    --      0.1303                 1.4603                 0.3757

                    103                    104                    105
                      A                      A                      A
 Frequencies --   1486.9047              1490.7733              1497.7258
 Red. masses --      1.0712                 1.0746                 1.0807
 Frc consts  --      1.3954                 1.4071                 1.4283
 IR Inten    --      0.0860                 0.2378                 0.3008

                    106                    107                    108
                      A                      A                      A
 Frequencies --   1499.7063              1501.4928              1502.5274
 Red. masses --      1.0403                 1.0891                 1.0617
 Frc consts  --      1.3786                 1.4467                 1.4121
 IR Inten    --      4.8621                 2.2355                 3.3565

                    109                    110                    111
                      A                      A                      A
 Frequencies --   1506.2042              1509.4169              1513.0476
 Red. masses --      1.0808                 1.0694                 1.0863
 Frc consts  --      1.4446                 1.4355                 1.4653
 IR Inten    --      3.1615                 3.2365                 1.4661

                    112                    113                    114
                      A                      A                      A
 Frequencies --   1516.6807              1517.6144              2964.6779
 Red. masses --      1.0958                 1.0962                 1.0710
 Frc consts  --      1.4852                 1.4875                 5.5462
 IR Inten    --      3.9649                 0.4831                54.0299

                    115                    116                    117
                      A                      A                      A
 Frequencies --   2979.3203              2995.4986              2996.8039
 Red. masses --      1.0802                 1.0628                 1.0584
 Frc consts  --      5.6490                 5.6190                 5.6005
 IR Inten    --      4.4324                 3.1788                 2.0391

                    118                    119                    120
                      A                      A                      A
 Frequencies --   2997.1988              2997.5011              2999.4400
 Red. masses --      1.0612                 1.0582                 1.0577
 Frc consts  --      5.6168                 5.6019                 5.6065
 IR Inten    --      7.8889                 0.1985                 0.3812

                    121                    122                    123
                      A                      A                      A
 Frequencies --   3002.0691              3004.3822              3008.0744
 Red. masses --      1.0595                 1.0621                 1.0640
 Frc consts  --      5.6259                 5.6485                 5.6726
 IR Inten    --      0.1109                 3.3846                16.5947

                    124                    125                    126
                      A                      A                      A
 Frequencies --   3010.3412              3012.0109              3015.6295
 Red. masses --      1.0630                 1.0629                 1.0618
 Frc consts  --      5.6756                 5.6814                 5.6890
 IR Inten    --     14.8497                19.4885                 6.0186

                    127                    128                    129
                      A                      A                      A
 Frequencies --   3017.1792              3017.7287              3020.3280
 Red. masses --      1.0859                 1.0792                 1.0933
 Frc consts  --      5.8244                 5.7906                 5.8763
 IR Inten    --     83.1169               129.8945                26.1868

                    130                    131                    132
                      A                      A                      A
 Frequencies --   3027.0318              3027.5755              3029.3409
 Red. masses --      1.0958                 1.0357                 1.0961
 Frc consts  --      5.9157                 5.5932                 5.9266
 IR Inten    --      6.7026                43.4596                 4.2664

                    133                    134                    135
                      A                      A                      A
 Frequencies --   3030.7568              3034.9512              3038.9965
 Red. masses --      1.0427                 1.0914                 1.1035
 Frc consts  --      5.6430                 5.9231                 6.0048
 IR Inten    --     25.7045                10.2990                 1.9158

                    136                    137                    138
                      A                      A                      A
 Frequencies --   3044.8518              3050.4255              3056.2747
 Red. masses --      1.0929                 1.1044                 1.0956
 Frc consts  --      5.9699                 6.0547                 6.0294
 IR Inten    --     15.9834                 1.9249                21.3683

                    139                    140                    141
                      A                      A                      A
 Frequencies --   3060.6649              3061.8720              3068.1632
 Red. masses --      1.1042                 1.0932                 1.1031
 Frc consts  --      6.0946                 6.0387                 6.1180
 IR Inten    --     36.7464                28.2359               168.7222

                    142                    143                    144
                      A                      A                      A
 Frequencies --   3074.6770              3093.6604              3094.7539
 Red. masses --      1.1008                 1.1020                 1.1010
 Frc consts  --      6.1313                 6.2142                 6.2127
 IR Inten    --    108.0200                60.5694                38.5109

                    145                    146                    147
                      A                      A                      A
 Frequencies --   3098.9699              3105.6673              3814.1996
 Red. masses --      1.1009                 1.1007                 1.0661
 Frc consts  --      6.2295                 6.2551                 9.1378
 IR Inten    --     40.1843                48.6962                14.8752

 - Thermochemistry -
 -------------------
 Temperature   298.150 Kelvin.  Pressure   1.00000 Atm.
 Atom     1 has atomic number  6 and mass  12.00000

 Molecular mass:   242.26097 amu.
 Principal axes and moments of inertia in atomic units:
                           1         2         3
     Eigenvalues --  1720.86735********************
           X            0.99998   0.00586   0.00062
           Y           -0.00585   0.99992  -0.01148
           Z           -0.00069   0.01148   0.99993
 This molecule is an asymmetric top.
 Rotational symmetry number  1.
 Warning -- assumption of classical behavior for rotation
           may cause significant error
 Rotational temperatures (Kelvin)      0.05033     0.00368     0.00350
 Rotational constants (GHZ):           1.04874     0.07672     0.07293
 Zero-point vibrational energy    1252332.3 (Joules/Mol)
                                  299.31461 (Kcal/Mol)
 Warning -- explicit consideration of  32 degrees of freedom as
           vibrations may cause significant error
 Vibrational temperatures:     18.93    33.71    47.84    57.30    73.38
          (Kelvin)             82.30   108.64   114.73   140.70   150.03
                              172.68   188.87   203.45   207.49   224.45
                              231.28   237.21   289.95   319.49   355.76
                              371.99   387.02   408.03   439.58   497.47
                              521.60   576.93   633.88   664.43   698.74
                              755.25   803.65  1048.41  1051.87  1061.09
                             1063.76  1101.12  1116.46  1128.42  1175.22
                             1215.29  1281.06  1291.20  1332.71  1380.00
                             1389.75  1415.03  1438.11  1449.87  1473.85
                             1484.18  1491.67  1499.71  1512.74  1522.23
                             1529.89  1538.64  1540.62  1544.00  1548.17
                             1555.40  1604.07  1636.40  1652.02  1685.66
                             1721.51  1751.66  1768.52  1797.48  1800.85
                             1821.21  1830.88  1850.31  1867.30  1890.56
                             1895.63  1903.68  1905.01  1905.62  1912.45
                             1921.09  1923.35  1926.78  1943.70  1954.21
                             1970.27  1990.51  2002.17  2009.27  2013.21
                             2016.25  2018.35  2019.87  2031.30  2033.26
                             2049.53  2128.65  2131.10  2131.57  2135.60
                             2136.54  2138.44  2139.32  2144.89  2154.89
                             2157.74  2160.31  2161.80  2167.09  2171.71
                             2176.94  2182.17  2183.51  4265.51  4286.58
                             4309.85  4311.73  4312.30  4312.74  4315.53
                             4319.31  4322.64  4327.95  4331.21  4333.61
                             4338.82  4341.05  4341.84  4345.58  4355.22
                             4356.01  4358.55  4360.58  4366.62  4372.44
                             4380.86  4388.88  4397.30  4403.61  4405.35
                             4414.40  4423.77  4451.09  4452.66  4458.73
                             4468.36  5487.78

 Zero-point correction=                           0.476988 (Hartree/Particle)
 Thermal correction to Energy=                    0.500120
 Thermal correction to Enthalpy=                  0.501064
 Thermal correction to Gibbs Free Energy=         0.420602
 Sum of electronic and zero-point Energies=           -705.004984
 Sum of electronic and thermal Energies=              -704.981852
 Sum of electronic and thermal Enthalpies=            -704.980908
 Sum of electronic and thermal Free Energies=         -705.061370

                     E (Thermal)             CV                S
                      KCal/Mol        Cal/Mol-Kelvin    Cal/Mol-Kelvin
 Total                  313.830             82.316            169.346
 Electronic               0.000              0.000              0.000
 Translational            0.889              2.981             42.356
 Rotational               0.889              2.981             35.259
 Vibrational            312.052             76.355             91.731
 Vibration     1          0.593              1.987              7.466
 Vibration     2          0.593              1.985              6.320
 Vibration     3          0.594              1.983              5.625
 Vibration     4          0.594              1.981              5.268
 Vibration     5          0.595              1.977              4.778
 Vibration     6          0.596              1.975              4.551
 Vibration     7          0.599              1.965              4.004
 Vibration     8          0.600              1.963              3.897
 Vibration     9          0.603              1.951              3.498
 Vibration    10          0.605              1.946              3.373
 Vibration    11          0.609              1.933              3.100
 Vibration    12          0.612              1.922              2.927
 Vibration    13          0.615              1.912              2.785
 Vibration    14          0.616              1.909              2.747
 Vibration    15          0.620              1.896              2.598
 Vibration    16          0.622              1.890              2.541
 Vibration    17          0.623              1.886              2.493
 Vibration    18          0.638              1.838              2.119
 Vibration    19          0.648              1.807              1.942
 Vibration    20          0.661              1.767              1.750
 Vibration    21          0.667              1.748              1.672
 Vibration    22          0.673              1.730              1.603
 Vibration    23          0.682              1.704              1.512
 Vibration    24          0.696              1.663              1.386
 Vibration    25          0.724              1.584              1.185
 Vibration    26          0.736              1.549              1.111
 Vibration    27          0.767              1.468              0.959
 Vibration    28          0.800              1.382              0.825
 Vibration    29          0.820              1.335              0.761
 Vibration    30          0.842              1.282              0.695
 Vibration    31          0.880              1.195              0.599
 Vibration    32          0.914              1.121              0.527

 Optimization completed.
    -- Stationary point found.
 Normal termination of Gaussian 16 at Tue May 23 00:51:41 2023.
