 Gaussian 16, Revision A.03,
 Gaussian 16:  ES64L-G16RevA.03 25-Dec-2016

 -----------------------------
 # opt freq b3lyp/6-31g(2df,p)
 -----------------------------

 -------------------
 Title Card Required
 -------------------
 Symbolic Z-matrix:
 Charge =  0 Multiplicity = 1

 SCF Done:  E(RB3LYP) =  -981.325382687     A.U. after   18 cycles
 SCF Done:  E(RB3LYP) =  -981.369880559     A.U. after   14 cycles
 SCF Done:  E(RB3LYP) =  -981.423839248     A.U. after   13 cycles
 SCF Done:  E(RB3LYP) =  -981.458888533     A.U. after   13 cycles
 SCF Done:  E(RB3LYP) =  -981.466485706     A.U. after   11 cycles
 SCF Done:  E(RB3LYP) =  -981.468625473     A.U. after   11 cycles
 SCF Done:  E(RB3LYP) =  -981.469456449     A.U. after   11 cycles
 SCF Done:  E(RB3LYP) =  -981.469999112     A.U. after   11 cycles
 SCF Done:  E(RB3LYP) =  -981.470642277     A.U. after   11 cycles
 SCF Done:  E(RB3LYP) =  -981.470986621     A.U. after   10 cycles
 SCF Done:  E(RB3LYP) =  -981.471164852     A.U. after    9 cycles
 SCF Done:  E(RB3LYP) =  -981.471205629     A.U. after   10 cycles
 SCF Done:  E(RB3LYP) =  -981.471219889     A.U. after    9 cycles
 SCF Done:  E(RB3LYP) =  -981.471224421     A.U. after    9 cycles
 SCF Done:  E(RB3LYP) =  -981.471224982     A.U. after    7 cycles
 SCF Done:  E(RB3LYP) =  -981.471224843     A.U. after    7 cycles
 SCF Done:  E(RB3LYP) =  -981.471225059     A.U. after    6 cycles
 SCF Done:  E(RB3LYP) =  -981.471225063     A.U. after    6 cycles
 SCF Done:  E(RB3LYP) =  -981.471225057     A.U. after    6 cycles
 Optimization completed.
    -- Stationary point found.
 Normal termination of Gaussian 16 at Tue May 23 09:25:02 2023.

 ----------------------------------------------------------------------
 #N Geom=AllCheck Guess=TCheck SCRF=Check GenChk RB3LYP/6-31G(2df,p) Fr
 eq
 ----------------------------------------------------------------------

 Structure from the checkpoint file:  "CCCCCqCCCrN[PH]qdOrCOCC.chk"
 -------------------
 Title Card Required
 -------------------
 Charge =  0 Multiplicity = 1

                         Standard orientation:
 ---------------------------------------------------------------------
 Center     Atomic      Atomic             Coordinates (Angstroms)
 Number     Number       Type             X           Y           Z
 ---------------------------------------------------------------------
      1          6           0        4.419186   -3.093011    0.298194
      2          6           0        3.158323   -2.672795   -0.461506
      3          6           0        2.592695   -1.327159    0.009728
      4          6           0        1.339881   -0.911395   -0.766164
      5          6           0        0.639670    0.371528   -0.286702
      6          6           0        1.527415    1.637809   -0.332162
      7          6           0        2.234093    1.967533    0.989478
      8          6           0        3.099148    3.227075    0.889260
      9          7           0       -0.553275    0.556116   -1.148737
     10         15           0       -1.863373    1.460582   -0.652411
     11          8           0       -1.571300    2.838221   -0.204943
     12          6           0       -2.785798    0.500661    0.616530
     13          8           0       -2.968502   -0.804322    0.113749
     14          6           0       -3.747323   -1.636680    0.958482
     15          6           0       -3.869962   -3.004363    0.310259
     16          1           0        4.798183   -4.055928   -0.058089
     17          1           0        4.221171   -3.189622    1.371557
     18          1           0        5.219475   -2.354671    0.176333
     19          1           0        2.387919   -3.447716   -0.352139
     20          1           0        3.378855   -2.615531   -1.535698
     21          1           0        3.369100   -0.559844   -0.093335
     22          1           0        2.360967   -1.388276    1.081910
     23          1           0        0.610605   -1.733088   -0.717625
     24          1           0        1.593330   -0.782457   -1.827678
     25          1           0        0.325724    0.212324    0.757923
     26          1           0        0.890534    2.485699   -0.595455
     27          1           0        2.262892    1.534029   -1.141868
     28          1           0        2.852783    1.126816    1.323787
     29          1           0        1.470806    2.112195    1.765217
     30          1           0        3.893848    3.104715    0.144464
     31          1           0        3.574588    3.462433    1.846741
     32          1           0        2.498269    4.093021    0.591598
     33          1           0       -0.837426   -0.296082   -1.618148
     34          1           0       -2.695657    1.299734   -1.788477
     35          1           0       -3.745264    1.007191    0.809176
     36          1           0       -2.217327    0.507211    1.560326
     37          1           0       -4.741585   -1.186825    1.112754
     38          1           0       -3.269900   -1.714584    1.948995
     39          1           0       -4.352988   -2.924279   -0.667665
     40          1           0       -4.468118   -3.670158    0.939202
     41          1           0       -2.882822   -3.454254    0.170678
 ---------------------------------------------------------------------

 SCF Done:  E(RB3LYP) =  -981.471225057     A.U. after    1 cycles

 The electronic state is 1-A.
 Alpha  occ. eigenvalues --  -77.14707 -19.15614 -19.07722 -14.32439 -10.24030
 Alpha  occ. eigenvalues --  -10.23321 -10.22044 -10.18616 -10.18555 -10.18262
 Alpha  occ. eigenvalues --  -10.18226 -10.17472 -10.17122 -10.16571 -10.16412
 Alpha  occ. eigenvalues --   -6.60525  -4.76864  -4.76790  -4.76652  -1.04666
 Alpha  occ. eigenvalues --   -0.95803  -0.89695  -0.80408  -0.77954  -0.77315
 Alpha  occ. eigenvalues --   -0.74259  -0.69919  -0.68862  -0.64925  -0.61818
 Alpha  occ. eigenvalues --   -0.60191  -0.58102  -0.57306  -0.55951  -0.50384
 Alpha  occ. eigenvalues --   -0.50011  -0.48739  -0.48048  -0.45686  -0.45352
 Alpha  occ. eigenvalues --   -0.44879  -0.43121  -0.42577  -0.41289  -0.40614
 Alpha  occ. eigenvalues --   -0.39719  -0.39477  -0.38505  -0.37866  -0.37463
 Alpha  occ. eigenvalues --   -0.36473  -0.35797  -0.35625  -0.34596  -0.33837
 Alpha  occ. eigenvalues --   -0.33312  -0.32955  -0.32565  -0.32207  -0.32110
 Alpha  occ. eigenvalues --   -0.30756  -0.27610  -0.26718  -0.26339  -0.24871
 Alpha virt. eigenvalues --    0.05474   0.06636   0.08021   0.08609   0.09914
 Alpha virt. eigenvalues --    0.10360   0.10691   0.11303   0.11790   0.12386
 Alpha virt. eigenvalues --    0.13206   0.13857   0.14207   0.14731   0.15218

 Mulliken charges:
               1
     1  C   -0.381842
     2  C   -0.166125
     3  C   -0.171269
     4  C   -0.216125
     5  C    0.009180
     6  C   -0.169468
     7  C   -0.174265
     8  C   -0.381804
     9  N   -0.267991
    10  P    0.277011
    11  O   -0.338594
    12  C   -0.162139
    13  O   -0.247115
    14  C   -0.033300
    15  C   -0.385963
    16  H    0.112162
    17  H    0.113870
    18  H    0.115479
    19  H    0.093335
    20  H    0.096388
    21  H    0.106927
    22  H    0.094907
    23  H    0.092057
    24  H    0.103954
    25  H    0.070496
    26  H    0.148220
    27  H    0.083659
    28  H    0.092435
    29  H    0.101920
    30  H    0.109234
    31  H    0.107199
    32  H    0.125271
    33  H    0.243610
    34  H    0.002637
    35  H    0.117069
    36  H    0.116689
    37  H    0.094002
    38  H    0.092136
    39  H    0.129347
    40  H    0.120973
    41  H    0.125833
 Sum of Mulliken charges =  -0.00000

 Dipole moment (field-independent basis, Debye):
    X=             -0.5570    Y=             -4.4294    Z=              0.5881  Tot=              4.5028
 Quadrupole moment (field-independent basis, Debye-Ang):
   XX=            -94.4209   YY=           -114.3669   ZZ=           -100.6577
   XY=              6.4927   XZ=             -2.7426   YZ=              0.2176

  Exact polarizability: 172.937   1.508 165.786   2.054   1.747 131.880
 Approx polarizability: 215.069   2.169 218.163  -0.249   4.099 207.578

                      1                      2                      3
                      A                      A                      A
 Frequencies --     12.1306                16.4551                45.7863
 Red. masses --      4.0568                 3.9619                 2.5027
 Frc consts  --      0.0004                 0.0006                 0.0031
 IR Inten    --      0.4032                 0.2647                 0.0040

                      4                      5                      6
                      A                      A                      A
 Frequencies --     52.3684                58.7257                64.8376
 Red. masses --      2.3726                 2.1901                 2.1148
 Frc consts  --      0.0038                 0.0045                 0.0052
 IR Inten    --      2.3664                 2.6414                 0.6351

                      7                      8                      9
                      A                      A                      A
 Frequencies --     76.9743                85.4660                90.7228
 Red. masses --      2.4976                 2.9773                 2.6595
 Frc consts  --      0.0087                 0.0128                 0.0129
 IR Inten    --      0.4153                 0.6708                 3.1712

                     10                     11                     12
                      A                      A                      A
 Frequencies --    110.9304               143.5537               153.0830
 Red. masses --      2.4411                 3.0181                 2.1693
 Frc consts  --      0.0177                 0.0366                 0.0300
 IR Inten    --      2.4223                10.0619                 2.3391

                     13                     14                     15
                      A                      A                      A
 Frequencies --    165.5494               192.1757               231.8267
 Red. masses --      2.6024                 2.9100                 3.9310
 Frc consts  --      0.0420                 0.0633                 0.1245
 IR Inten    --      3.1667                 0.7372                 1.0348

                     16                     17                     18
                      A                      A                      A
 Frequencies --    239.4136               245.3391               246.3349
 Red. masses --      2.6599                 1.1139                 1.1686
 Frc consts  --      0.0898                 0.0395                 0.0418
 IR Inten    --     13.7109                 0.1589                 1.4183

                     19                     20                     21
                      A                      A                      A
 Frequencies --    248.3122               277.2942               308.4349
 Red. masses --      1.1902                 2.6634                 5.8800
 Frc consts  --      0.0432                 0.1207                 0.3296
 IR Inten    --      0.8742                 0.7691                 6.1778

                     22                     23                     24
                      A                      A                      A
 Frequencies --    360.2943               362.1239               401.5390
 Red. masses --      3.9213                 2.1706                 3.2753
 Frc consts  --      0.2999                 0.1677                 0.3111
 IR Inten    --      5.6360                 6.9841                 5.9178

                     25                     26                     27
                      A                      A                      A
 Frequencies --    412.4084               450.9194               468.3128
 Red. masses --      2.0638                 2.8882                 3.0803
 Frc consts  --      0.2068                 0.3460                 0.3980
 IR Inten    --     61.6413                 2.0526                 6.1677

                     28                     29                     30
                      A                      A                      A
 Frequencies --    499.4337               599.9907               737.3875
 Red. masses --      2.6158                 3.7731                 1.1292
 Frc consts  --      0.3844                 0.8003                 0.3618
 IR Inten    --      2.6186                52.5666                 3.1306

                     31                     32                     33
                      A                      A                      A
 Frequencies --    743.8720               749.9956               795.4999
 Red. masses --      1.0783                 3.0833                 1.2182
 Frc consts  --      0.3516                 1.0218                 0.4542
 IR Inten    --      3.5725                21.0169                 0.1118

                     34                     35                     36
                      A                      A                      A
 Frequencies --    818.1549               838.7701               841.6355
 Red. masses --      1.1217                 1.5876                 2.1483
 Frc consts  --      0.4424                 0.6581                 0.8966
 IR Inten    --      3.6051                 7.4031                39.1843

                     37                     38                     39
                      A                      A                      A
 Frequencies --    865.1796               888.6339               890.5073
 Red. masses --      1.5702                 1.6666                 1.9274
 Frc consts  --      0.6925                 0.7754                 0.9005
 IR Inten    --      3.3501                 4.1542                 5.7605

                     40                     41                     42
                      A                      A                      A
 Frequencies --    914.1980               925.8659               966.1760
 Red. masses --      1.8196                 1.8246                 1.4569
 Frc consts  --      0.8960                 0.9215                 0.8013
 IR Inten    --     10.8748                 9.3433                21.4167

                     43                     44                     45
                      A                      A                      A
 Frequencies --    982.1882              1018.1658              1028.2888
 Red. masses --      1.3713                 2.0240                 2.6161
 Frc consts  --      0.7794                 1.2362                 1.6298
 IR Inten    --     12.9984               191.2637                 4.5809

                     46                     47                     48
                      A                      A                      A
 Frequencies --   1038.5537              1047.7914              1057.8287
 Red. masses --      2.9314                 2.4527                 1.5383
 Frc consts  --      1.8629                 1.5865                 1.0142
 IR Inten    --     57.5650                 6.8030                 5.2118

                     49                     50                     51
                      A                      A                      A
 Frequencies --   1071.2449              1077.8957              1100.5736
 Red. masses --      2.2278                 1.6745                 2.1749
 Frc consts  --      1.5063                 1.1463                 1.5521
 IR Inten    --      2.9086                 1.5529                13.7080

                     52                     53                     54
                      A                      A                      A
 Frequencies --   1132.9067              1134.8496              1153.5164
 Red. masses --      2.0928                 3.0244                 2.9174
 Frc consts  --      1.5826                 2.2949                 2.2872
 IR Inten    --      1.4324                42.0734                21.3064

                     55                     56                     57
                      A                      A                      A
 Frequencies --   1155.7557              1184.1034              1191.7459
 Red. masses --      3.9319                 1.4506                 1.9904
 Frc consts  --      3.0945                 1.1983                 1.6655
 IR Inten    --    135.0913                 1.3603                 3.4632

                     58                     59                     60
                      A                      A                      A
 Frequencies --   1222.0019              1240.2282              1261.1691
 Red. masses --      1.1570                 1.4917                 3.8872
 Frc consts  --      1.0179                 1.3518                 3.6428
 IR Inten    --     18.7821                 0.2659               129.7333

                     61                     62                     63
                      A                      A                      A
 Frequencies --   1273.5320              1280.0611              1295.1420
 Red. masses --      1.3667                 1.3371                 1.1052
 Frc consts  --      1.3060                 1.2909                 1.0922
 IR Inten    --     10.9628                16.5124                 2.2308

                     64                     65                     66
                      A                      A                      A
 Frequencies --   1309.4659              1319.4377              1322.5438
 Red. masses --      1.2232                 1.2328                 1.4051
 Frc consts  --      1.2357                 1.2645                 1.4480
 IR Inten    --      3.2344                 1.0998                16.7436

                     67                     68                     69
                      A                      A                      A
 Frequencies --   1332.9275              1337.1871              1340.3731
 Red. masses --      1.0939                 1.1180                 1.2093
 Frc consts  --      1.1451                 1.1779                 1.2801
 IR Inten    --      2.6121                 7.5118                 6.5217

                     70                     71                     72
                      A                      A                      A
 Frequencies --   1363.4455              1381.7979              1394.1602
 Red. masses --      1.2703                 1.4125                 1.5647
 Frc consts  --      1.3913                 1.5891                 1.7919
 IR Inten    --      6.6294                 1.6791                 4.4609

                     73                     74                     75
                      A                      A                      A
 Frequencies --   1399.8739              1409.2350              1413.1532
 Red. masses --      1.2317                 1.3570                 1.2312
 Frc consts  --      1.4221                 1.5878                 1.4487
 IR Inten    --      2.4229                12.7290                 1.9553

                     76                     77                     78
                      A                      A                      A
 Frequencies --   1415.8599              1427.7705              1428.1078
 Red. masses --      1.3259                 1.4312                 1.3846
 Frc consts  --      1.5660                 1.7190                 1.6638
 IR Inten    --     23.5704                22.3071                43.0388

                     79                     80                     81
                      A                      A                      A
 Frequencies --   1482.2020              1483.6940              1484.7143
 Red. masses --      1.0783                 1.0409                 1.1018
 Frc consts  --      1.3957                 1.3500                 1.4310
 IR Inten    --      0.9346                 3.9779                11.5592

                     82                     83                     84
                      A                      A                      A
 Frequencies --   1485.6568              1488.5557              1494.7395
 Red. masses --      1.0681                 1.0651                 1.0619
 Frc consts  --      1.3890                 1.3905                 1.3979
 IR Inten    --      2.9732                 2.9749                 3.0185

                     85                     86                     87
                      A                      A                      A
 Frequencies --   1499.4981              1499.7491              1499.8059
 Red. masses --      1.0414                 1.0408                 1.0446
 Frc consts  --      1.3797                 1.3793                 1.3844
 IR Inten    --      4.9113                 4.9932                 1.0365

                     88                     89                     90
                      A                      A                      A
 Frequencies --   1501.0113              1510.5599              1513.7946
 Red. masses --      1.0718                 1.0818                 1.0903
 Frc consts  --      1.4227                 1.4543                 1.4721
 IR Inten    --      0.2815                 4.6616                 2.2600

                     91                     92                     93
                      A                      A                      A
 Frequencies --   1529.5845              2381.7835              2956.1574
 Red. masses --      1.0880                 1.0402                 1.0807
 Frc consts  --      1.4998                 3.4767                 5.5640
 IR Inten    --      3.5789               114.6822                18.6312

                     94                     95                     96
                      A                      A                      A
 Frequencies --   2963.1089              2974.0186              2993.1412
 Red. masses --      1.0551                 1.0543                 1.1056
 Frc consts  --      5.4583                 5.4942                 5.8359
 IR Inten    --     27.2918                46.8606                57.1221

                     97                     98                     99
                      A                      A                      A
 Frequencies --   2995.5056              3009.2614              3010.3604
 Red. masses --      1.0592                 1.0598                 1.1050
 Frc consts  --      5.5998                 5.6547                 5.9002
 IR Inten    --     16.7375                 0.8224                23.6140

                    100                    101                    102
                      A                      A                      A
 Frequencies --   3012.9395              3017.0340              3025.0778
 Red. masses --      1.0683                 1.0646                 1.0616
 Frc consts  --      5.7138                 5.7094                 5.7237
 IR Inten    --      8.1980                54.0080                18.6721

                    103                    104                    105
                      A                      A                      A
 Frequencies --   3029.1035              3029.2958              3035.2505
 Red. masses --      1.0419                 1.0369                 1.0881
 Frc consts  --      5.6327                 5.6065                 5.9063
 IR Inten    --     25.6474                43.8736                44.9888

                    106                    107                    108
                      A                      A                      A
 Frequencies --   3039.4241              3045.3027              3057.0330
 Red. masses --      1.1012                 1.0347                 1.0970
 Frc consts  --      5.9937                 5.6536                 6.0402
 IR Inten    --      0.7916                14.4327                15.3683

                    109                    110                    111
                      A                      A                      A
 Frequencies --   3069.4182              3094.0713              3095.9948
 Red. masses --      1.1024                 1.1001                 1.1021
 Frc consts  --      6.1191                 6.2051                 6.2238
 IR Inten    --     43.2705                29.0652                59.2718

                    112                    113                    114
                      A                      A                      A
 Frequencies --   3100.8947              3101.6279              3107.2968
 Red. masses --      1.1001                 1.1010                 1.0968
 Frc consts  --      6.2322                 6.2403                 6.2396
 IR Inten    --     24.1761                39.0788                31.3497

                    115                    116                    117
                      A                      A                      A
 Frequencies --   3120.3311              3121.8737              3555.3859
 Red. masses --      1.1018                 1.1024                 1.0738
 Frc consts  --      6.3206                 6.3303                 7.9977
 IR Inten    --     25.9471                22.6171                11.8514

 - Thermochemistry -
 -------------------
 Temperature   298.150 Kelvin.  Pressure   1.00000 Atm.
 Atom     1 has atomic number  6 and mass  12.00000

 Molecular mass:   235.17012 amu.
 Principal axes and moments of inertia in atomic units:
                           1         2         3
     Eigenvalues --  3784.575136360.889629294.21891
           X            0.99959   0.02861  -0.00185
           Y           -0.02860   0.99956   0.00831
           Z            0.00209  -0.00825   0.99996
 This molecule is an asymmetric top.
 Rotational symmetry number  1.
 Warning -- assumption of classical behavior for rotation
           may cause significant error
 Rotational temperatures (Kelvin)      0.02289     0.01362     0.00932
 Rotational constants (GHZ):           0.47687     0.28372     0.19418
 Zero-point vibrational energy     960324.7 (Joules/Mol)
                                  229.52311 (Kcal/Mol)
 Warning -- explicit consideration of  29 degrees of freedom as
           vibrations may cause significant error
 Vibrational temperatures:     17.45    23.68    65.88    75.35    84.49
          (Kelvin)             93.29   110.75   122.97   130.53   159.60
                              206.54   220.25   238.19   276.50   333.55
                              344.46   352.99   354.42   357.27   398.96
                              443.77   518.38   521.02   577.73   593.36
                              648.77   673.80   718.57   863.25  1060.94
                             1070.27  1079.08  1144.55  1177.14  1206.80
                             1210.93  1244.80  1278.55  1281.24  1315.33
                             1332.11  1390.11  1413.15  1464.91  1479.48
                             1494.25  1507.54  1521.98  1541.28  1550.85
                             1583.48  1630.00  1632.80  1659.65  1662.87
                             1703.66  1714.66  1758.19  1784.41  1814.54
                             1832.33  1841.72  1863.42  1884.03  1898.38
                             1902.85  1917.79  1923.91  1928.50  1961.69
                             1988.10  2005.89  2014.11  2027.57  2033.21
                             2037.11  2054.24  2054.73  2132.56  2134.70
                             2136.17  2137.53  2141.70  2150.60  2157.44
                             2157.80  2157.89  2159.62  2173.36  2178.01
                             2200.73  3426.86  4253.25  4263.25  4278.95
                             4306.46  4309.86  4329.66  4331.24  4334.95
                             4340.84  4352.41  4358.20  4358.48  4367.05
                             4373.05  4381.51  4398.39  4416.21  4451.68
                             4454.45  4461.50  4462.55  4470.71  4489.46
                             4491.68  5115.41

 Zero-point correction=                           0.365768 (Hartree/Particle)
 Thermal correction to Energy=                    0.386317
 Thermal correction to Enthalpy=                  0.387261
 Thermal correction to Gibbs Free Energy=         0.312892
 Sum of electronic and zero-point Energies=           -981.105457
 Sum of electronic and thermal Energies=              -981.084908
 Sum of electronic and thermal Enthalpies=            -981.083964
 Sum of electronic and thermal Free Energies=         -981.158333

                     E (Thermal)             CV                S
                      KCal/Mol        Cal/Mol-Kelvin    Cal/Mol-Kelvin
 Total                  242.418             72.189            156.524
 Electronic               0.000              0.000              0.000
 Translational            0.889              2.981             42.267
 Rotational               0.889              2.981             33.769
 Vibrational            240.640             66.228             80.488
 Vibration     1          0.593              1.987              7.627
 Vibration     2          0.593              1.986              7.022
 Vibration     3          0.595              1.979              4.992
 Vibration     4          0.596              1.977              4.726
 Vibration     5          0.596              1.974              4.500
 Vibration     6          0.597              1.971              4.304
 Vibration     7          0.599              1.965              3.967
 Vibration     8          0.601              1.959              3.761
 Vibration     9          0.602              1.956              3.644
 Vibration    10          0.607              1.940              3.253
 Vibration    11          0.616              1.910              2.756
 Vibration    12          0.619              1.899              2.634
 Vibration    13          0.624              1.885              2.485
 Vibration    14          0.634              1.851              2.207
 Vibration    15          0.653              1.792              1.865
 Vibration    16          0.657              1.780              1.807
 Vibration    17          0.660              1.770              1.764
 Vibration    18          0.661              1.769              1.757
 Vibration    19          0.662              1.766              1.743
 Vibration    20          0.678              1.715              1.550
 Vibration    21          0.698              1.658              1.371
 Vibration    22          0.735              1.554              1.121
 Vibration    23          0.736              1.550              1.113
 Vibration    24          0.767              1.467              0.957
 Vibration    25          0.776              1.443              0.918
 Vibration    26          0.810              1.359              0.793
 Vibration    27          0.826              1.320              0.742
 Vibration    28          0.855              1.251              0.660
 Vibration    29          0.958              1.032              0.450

                           ! Non-Optimized Parameters !
 Normal termination of Gaussian 16 at Tue May 23 12:21:09 2023.
