 Gaussian 16, Revision A.03,
 Gaussian 16:  ES64L-G16RevA.03 25-Dec-2016

 -----------------------------
 # opt freq b3lyp/6-31g(2df,p)
 -----------------------------

 -------------------
 Title Card Required
 -------------------
 Symbolic Z-matrix:
 Charge =  0 Multiplicity = 1

 SCF Done:  E(RB3LYP) =  -762.936246227     A.U. after   12 cycles
 SCF Done:  E(RB3LYP) =  -762.947201014     A.U. after   11 cycles
 SCF Done:  E(RB3LYP) =  -762.951512711     A.U. after   10 cycles
 SCF Done:  E(RB3LYP) =  -762.953507907     A.U. after   11 cycles
 SCF Done:  E(RB3LYP) =  -762.953492726     A.U. after   10 cycles
 SCF Done:  E(RB3LYP) =  -762.955532614     A.U. after   10 cycles
 SCF Done:  E(RB3LYP) =  -762.957136920     A.U. after   10 cycles
 SCF Done:  E(RB3LYP) =  -762.959197259     A.U. after   10 cycles
 SCF Done:  E(RB3LYP) =  -762.958409379     A.U. after   10 cycles
 SCF Done:  E(RB3LYP) =  -762.960629455     A.U. after   10 cycles
 SCF Done:  E(RB3LYP) =  -762.964730692     A.U. after    9 cycles
 SCF Done:  E(RB3LYP) =  -762.964854817     A.U. after    9 cycles
 SCF Done:  E(RB3LYP) =  -762.964909224     A.U. after    8 cycles
 SCF Done:  E(RB3LYP) =  -762.964947847     A.U. after    9 cycles
 SCF Done:  E(RB3LYP) =  -762.964953958     A.U. after    8 cycles
 SCF Done:  E(RB3LYP) =  -762.964956225     A.U. after    6 cycles
 SCF Done:  E(RB3LYP) =  -762.964956705     A.U. after    6 cycles
 SCF Done:  E(RB3LYP) =  -762.964956903     A.U. after    5 cycles
 SCF Done:  E(RB3LYP) =  -762.964957005     A.U. after    5 cycles
 Optimization completed.
    -- Stationary point found.

 The electronic state is 1-A.
 Alpha  occ. eigenvalues --  -14.30305 -10.19879 -10.19279 -10.19174 -10.18715
 Alpha  occ. eigenvalues --  -10.17785 -10.17503 -10.17243 -10.17196 -10.17146
 Alpha  occ. eigenvalues --  -10.17067 -10.17019 -10.16921 -10.16777 -10.16777
 Alpha  occ. eigenvalues --  -10.16584 -10.16474 -10.16448 -10.16399  -0.89544
 Alpha  occ. eigenvalues --   -0.84709  -0.80375  -0.77574  -0.75714  -0.74858
 Alpha  occ. eigenvalues --   -0.72974  -0.70493  -0.69438  -0.66978  -0.65993
 Alpha  occ. eigenvalues --   -0.62413  -0.61770  -0.59853  -0.59124  -0.58208
 Alpha  occ. eigenvalues --   -0.57370  -0.52851  -0.50736  -0.48715  -0.47114
 Alpha  occ. eigenvalues --   -0.46616  -0.45915  -0.45301  -0.44010  -0.43846
 Alpha  occ. eigenvalues --   -0.42811  -0.42326  -0.41205  -0.40822  -0.39871
 Alpha  occ. eigenvalues --   -0.39597  -0.39184  -0.38795  -0.38124  -0.37693
 Alpha  occ. eigenvalues --   -0.37113  -0.36449  -0.36265  -0.35694  -0.35397
 Alpha  occ. eigenvalues --   -0.35075  -0.34860  -0.34373  -0.33942  -0.33912
 Alpha  occ. eigenvalues --   -0.33045  -0.32978  -0.32205  -0.31893  -0.30871
 Alpha  occ. eigenvalues --   -0.30050  -0.29489  -0.28049  -0.26534  -0.26214
 Alpha  occ. eigenvalues --   -0.21439
 Alpha virt. eigenvalues --    0.07017   0.08351   0.08744   0.09568   0.10058
 Alpha virt. eigenvalues --    0.10511   0.11367   0.11657   0.11760   0.12940
 Alpha virt. eigenvalues --    0.13355   0.13700   0.14122   0.14679   0.14796

 Mulliken charges:
               1
     1  C   -0.380073
     2  C   -0.179197
     3  C   -0.196087
     4  C   -0.019031
     5  C   -0.266864
     6  C   -0.262836
     7  C    0.295058
     8  C   -0.244968
     9  C   -0.408611
    10  C    0.166545
    11  C   -0.444991
    12  C   -0.190511
    13  C   -0.408211
    14  C   -0.004655
    15  C   -0.416074
    16  C   -0.157082
    17  N   -0.301278
    18  C   -0.094424
    19  C   -0.390263
    20  H    0.109496
    21  H    0.111529
    22  H    0.112868
    23  H    0.093879
    24  H    0.108760
    25  H    0.095783
    26  H    0.089591
    27  H    0.065138
    28  H    0.095259
    29  H    0.089005
    30  H    0.092630
    31  H    0.093137
    32  H    0.096318
    33  H    0.105970
    34  H    0.116696
    35  H    0.110020
    36  H    0.121326
    37  H    0.112239
    38  H    0.114310
    39  H    0.109345
    40  H    0.095960
    41  H    0.101320
    42  H    0.114734
    43  H    0.105267
    44  H    0.121548
    45  H    0.082928
    46  H    0.102914
    47  H    0.119567
    48  H    0.116462
    49  H    0.097870
    50  H    0.072193
    51  H    0.210359
    52  H    0.099656
    53  H    0.071699
    54  H    0.125351
    55  H    0.112827
    56  H    0.109600
 Sum of Mulliken charges =  -0.00000

 Dipole moment (field-independent basis, Debye):
    X=             -0.3954    Y=             -0.3013    Z=             -0.4639  Tot=              0.6800
 Quadrupole moment (field-independent basis, Debye-Ang):
   XX=           -124.1712   YY=           -126.5059   ZZ=           -124.2111
   XY=              1.1175   XZ=              1.6383   YZ=             -1.5258

 Normal termination of Gaussian 16 at Mon May 22 19:41:37 2023.

 ----------------------------------------------------------------------
 #N Geom=AllCheck Guess=TCheck SCRF=Check GenChk RB3LYP/6-31G(2df,p) Fr
 eq
 ----------------------------------------------------------------------

 Structure from the checkpoint file:  "CCCC1CCC1qCCrCqCrqCCrCqCrCNCC.chk"
 -------------------
 Title Card Required
 -------------------
 Charge =  0 Multiplicity = 1

                         Standard orientation:
 ---------------------------------------------------------------------
 Center     Atomic      Atomic             Coordinates (Angstroms)
 Number     Number       Type             X           Y           Z
 ---------------------------------------------------------------------
      1          6           0        1.496964    4.338758    0.382046
      2          6           0        1.153730    2.973344   -0.222874
      3          6           0        2.341323    2.004217   -0.174152
      4          6           0        2.164742    0.592051   -0.752245
      5          6           0        3.478705   -0.227635   -0.837539
      6          6           0        2.734095   -1.481806   -0.342564
      7          6           0        1.478700   -0.614919    0.052302
      8          6           0        1.393172   -0.309960    1.577625
      9          6           0        2.685970   -0.334772    2.410796
     10          6           0        0.085654   -1.187733   -0.480474
     11          6           0        0.180177   -1.653879   -1.953836
     12          6           0       -0.343641   -2.449086    0.343901
     13          6           0        0.663342   -3.588807    0.551826
     14          6           0       -1.059870   -0.088577   -0.363533
     15          6           0       -1.146285    0.857718   -1.580426
     16          6           0       -2.479955   -0.649906   -0.108322
     17          7           0       -3.455367    0.419244    0.096868
     18          6           0       -4.767230   -0.069506    0.509767
     19          6           0       -5.761109    1.080362    0.647855
     20          1           0        0.645456    5.024590    0.331078
     21          1           0        2.334787    4.807143   -0.146964
     22          1           0        1.785395    4.244457    1.435109
     23          1           0        0.832965    3.110494   -1.262567
     24          1           0        0.292863    2.550364    0.307242
     25          1           0        2.699817    1.941708    0.859573
     26          1           0        3.170711    2.460913   -0.734965
     27          1           0        1.731137    0.675736   -1.751443
     28          1           0        4.236913    0.129341   -0.134339
     29          1           0        3.943660   -0.293039   -1.825416
     30          1           0        3.216129   -2.043602    0.458016
     31          1           0        2.532112   -2.180993   -1.151991
     32          1           0        0.708240   -1.015243    2.053264
     33          1           0        0.925745    0.671794    1.708413
     34          1           0        3.112588   -1.339775    2.476402
     35          1           0        2.463511   -0.014685    3.434289
     36          1           0        3.464864    0.328113    2.025965
     37          1           0        0.752707   -2.577818   -2.057033
     38          1           0        0.636566   -0.912777   -2.613522
     39          1           0       -0.820823   -1.862585   -2.344529
     40          1           0       -1.215776   -2.876208   -0.162841
     41          1           0       -0.705792   -2.147977    1.331191
     42          1           0        1.084095   -3.961080   -0.386349
     43          1           0        0.156123   -4.431490    1.033742
     44          1           0        1.495450   -3.300407    1.197875
     45          1           0       -0.837783    0.524378    0.515237
     46          1           0       -1.649974    0.373369   -2.424728
     47          1           0       -0.174610    1.195226   -1.932206
     48          1           0       -1.714327    1.755374   -1.321045
     49          1           0       -2.495920   -1.252085    0.802939
     50          1           0       -2.772020   -1.328178   -0.934836
     51          1           0       -3.567965    0.950098   -0.760341
     52          1           0       -4.649017   -0.572549    1.478624
     53          1           0       -5.176557   -0.831008   -0.182367
     54          1           0       -5.389952    1.826599    1.356274
     55          1           0       -6.732139    0.717344    0.997734
     56          1           0       -5.922506    1.580556   -0.314469
 ---------------------------------------------------------------------

 SCF Done:  E(RB3LYP) =  -762.964957005     A.U. after    1 cycles
