 Gaussian 16, Revision A.03,
 Gaussian 16:  ES64L-G16RevA.03 25-Dec-2016

 -----------------------------
 # opt freq b3lyp/6-31g(2df,p)
 -----------------------------

 -------------------
 Title Card Required
 -------------------
 Symbolic Z-matrix:
 Charge =  0 Multiplicity = 1

 SCF Done:  E(RB3LYP) =  -659.107917151     A.U. after   14 cycles
 SCF Done:  E(RB3LYP) =  -659.121721165     A.U. after   12 cycles
 SCF Done:  E(RB3LYP) =  -659.124684723     A.U. after   11 cycles
 SCF Done:  E(RB3LYP) =  -659.125863610     A.U. after   12 cycles
 SCF Done:  E(RB3LYP) =  -659.127645476     A.U. after   11 cycles
 SCF Done:  E(RB3LYP) =  -659.129010269     A.U. after   11 cycles
 SCF Done:  E(RB3LYP) =  -659.130383125     A.U. after   12 cycles
 SCF Done:  E(RB3LYP) =  -659.130862444     A.U. after   11 cycles
 SCF Done:  E(RB3LYP) =  -659.131268605     A.U. after   11 cycles
 SCF Done:  E(RB3LYP) =  -659.131319525     A.U. after    9 cycles
 SCF Done:  E(RB3LYP) =  -659.131324497     A.U. after    8 cycles
 SCF Done:  E(RB3LYP) =  -659.131326086     A.U. after    8 cycles
 SCF Done:  E(RB3LYP) =  -659.131326619     A.U. after    7 cycles
 SCF Done:  E(RB3LYP) =  -659.131326575     A.U. after    7 cycles
 SCF Done:  E(RB3LYP) =  -659.131326932     A.U. after    7 cycles
 SCF Done:  E(RB3LYP) =  -659.131326967     A.U. after    6 cycles
 Optimization completed.
    -- Stationary point found.
 Normal termination of Gaussian 16 at Mon May 22 10:56:41 2023.

 ----------------------------------------------------------------------
 #N Geom=AllCheck Guess=TCheck SCRF=Check GenChk RB3LYP/6-31G(2df,p) Fr
 eq
 ----------------------------------------------------------------------

 Structure from the checkpoint file:  "CCCCCC1dCCCCCCCqdOrO1.chk"
 -------------------
 Title Card Required
 -------------------
 Charge =  0 Multiplicity = 1

                         Standard orientation:
 ---------------------------------------------------------------------
 Center     Atomic      Atomic             Coordinates (Angstroms)
 Number     Number       Type             X           Y           Z
 ---------------------------------------------------------------------
      1          6           0       -6.237692    0.121114    0.548663
      2          6           0       -4.894965   -0.588244    0.354239
      3          6           0       -3.744277    0.375022    0.044058
      4          6           0       -2.398030   -0.330838   -0.153441
      5          6           0       -1.260417    0.645897   -0.459987
      6          6           0        0.094505    0.039986   -0.697323
      7          6           0        0.440491   -1.244649   -0.634234
      8          6           0        1.793624   -1.820035   -0.956272
      9          6           0        2.776086   -2.022817    0.234054
     10          6           0        3.749636   -0.854273    0.509447
     11          6           0        3.317087    0.238369    1.500676
     12          6           0        2.003529    0.981608    1.183253
     13          6           0        1.983322    1.495334   -0.246196
     14          8           0        2.765781    2.297415   -0.673266
     15          8           0        1.022800    1.005420   -1.094010
     16          1           0       -7.038388   -0.591818    0.768536
     17          1           0       -6.525161    0.677741   -0.350258
     18          1           0       -6.191565    0.836053    1.377744
     19          1           0       -4.981431   -1.321308   -0.458747
     20          1           0       -4.650491   -1.164937    1.256265
     21          1           0       -3.656028    1.108842    0.857397
     22          1           0       -3.987630    0.953040   -0.858208
     23          1           0       -2.484229   -1.058413   -0.970508
     24          1           0       -2.156425   -0.907908    0.748781
     25          1           0       -1.171592    1.378907    0.356281
     26          1           0       -1.509727    1.243913   -1.347750
     27          1           0       -0.332614   -1.947883   -0.341048
     28          1           0        2.285330   -1.200354   -1.713996
     29          1           0        1.625065   -2.798017   -1.421098
     30          1           0        3.384629   -2.902440   -0.002714
     31          1           0        2.219063   -2.282084    1.143590
     32          1           0        4.018809   -0.384862   -0.445283
     33          1           0        4.683529   -1.274138    0.901397
     34          1           0        4.123284    0.977371    1.552148
     35          1           0        3.219813   -0.192904    2.504421
     36          1           0        1.935316    1.864086    1.827525
     37          1           0        1.144404    0.345593    1.392125
 ---------------------------------------------------------------------

 SCF Done:  E(RB3LYP) =  -659.131326967     A.U. after    1 cycles

 The electronic state is 1-A.
 Alpha  occ. eigenvalues --  -19.18023 -19.11647 -10.30342 -10.24138 -10.19431
 Alpha  occ. eigenvalues --  -10.19390 -10.18944 -10.18783 -10.18783 -10.18609
 Alpha  occ. eigenvalues --  -10.18311 -10.18273 -10.18260 -10.18215 -10.17495
 Alpha  occ. eigenvalues --   -1.09469  -1.01616  -0.82190  -0.81130  -0.79249
 Alpha  occ. eigenvalues --   -0.76785  -0.73741  -0.71216  -0.67599  -0.63781
 Alpha  occ. eigenvalues --   -0.62381  -0.59909  -0.58122  -0.56890  -0.50559
 Alpha  occ. eigenvalues --   -0.49452  -0.48539  -0.48387  -0.47020  -0.45753
 Alpha  occ. eigenvalues --   -0.44563  -0.43842  -0.43012  -0.42249  -0.41024
 Alpha  occ. eigenvalues --   -0.40336  -0.39749  -0.38608  -0.38170  -0.36925
 Alpha  occ. eigenvalues --   -0.36594  -0.35594  -0.34897  -0.34254  -0.33505
 Alpha  occ. eigenvalues --   -0.33223  -0.32849  -0.32681  -0.32135  -0.31605
 Alpha  occ. eigenvalues --   -0.29480  -0.26916  -0.23760
 Alpha virt. eigenvalues --    0.01217   0.01616   0.07954   0.08544   0.09933
 Alpha virt. eigenvalues --    0.10832   0.11171   0.11847   0.12526   0.12960
 Alpha virt. eigenvalues --    0.13505   0.14779   0.14917   0.16259   0.16442

 Mulliken charges:
               1
     1  C   -0.380046
     2  C   -0.167947
     3  C   -0.164445
     4  C   -0.191783
     5  C   -0.280803
     6  C    0.331245
     7  C   -0.146197
     8  C   -0.266831
     9  C   -0.190020
    10  C   -0.194829
    11  C   -0.185882
    12  C   -0.335054
    13  C    0.407552
    14  O   -0.327415
    15  O   -0.254480
    16  H    0.112191
    17  H    0.114986
    18  H    0.114031
    19  H    0.095566
    20  H    0.094023
    21  H    0.093645
    22  H    0.096310
    23  H    0.105152
    24  H    0.099645
    25  H    0.108952
    26  H    0.125583
    27  H    0.094660
    28  H    0.119636
    29  H    0.101719
    30  H    0.099726
    31  H    0.091645
    32  H    0.117760
    33  H    0.096400
    34  H    0.120681
    35  H    0.096893
    36  H    0.129874
    37  H    0.117854
 Sum of Mulliken charges =  -0.00000

 Dipole moment (field-independent basis, Debye):
    X=             -2.0491    Y=             -2.6725    Z=              2.0831  Tot=              3.9598
 Quadrupole moment (field-independent basis, Debye-Ang):
   XX=            -94.6497   YY=            -97.4807   ZZ=            -93.4142
   XY=             -8.5860   XZ=              5.2429   YZ=              4.5514

  Exact polarizability: 174.975  -2.272 143.520   2.746   1.754 117.921
 Approx polarizability: 207.744   2.763 224.544   0.779  -3.553 185.232

                      1                      2                      3
                      A                      A                      A
 Frequencies --     29.9051                43.8791                55.1492
 Red. masses --      3.8455                 5.2782                 1.5944
 Frc consts  --      0.0020                 0.0060                 0.0029
 IR Inten    --      0.3070                 1.1052                 0.0672

                      4                      5                      6
                      A                      A                      A
 Frequencies --     79.1185                84.4434               119.2394
 Red. masses --      3.7785                 3.0959                 2.5517
 Frc consts  --      0.0139                 0.0130                 0.0214
 IR Inten    --      0.2589                 0.6695                 0.7426

                      7                      8                      9
                      A                      A                      A
 Frequencies --    138.5772               145.0306               165.1280
 Red. masses --      1.9956                 2.4818                 2.9398
 Frc consts  --      0.0226                 0.0308                 0.0472
 IR Inten    --      1.1369                 0.9418                 0.5589

                     10                     11                     12
                      A                      A                      A
 Frequencies --    176.8336               219.0969               247.1239
 Red. masses --      2.7506                 3.3775                 1.1175
 Frc consts  --      0.0507                 0.0955                 0.0402
 IR Inten    --      0.1031                 0.4565                 0.0046

                     13                     14                     15
                      A                      A                      A
 Frequencies --    255.0343               284.4817               298.2340
 Red. masses --      3.6124                 5.2162                 2.1468
 Frc consts  --      0.1384                 0.2487                 0.1125
 IR Inten    --      0.7556                 1.4022                 1.8471

                     16                     17                     18
                      A                      A                      A
 Frequencies --    335.6782               379.8465               432.4303
 Red. masses --      2.3935                 2.9929                 2.5498
 Frc consts  --      0.1589                 0.2544                 0.2809
 IR Inten    --      1.0423                 0.2538                 2.3809

                     19                     20                     21
                      A                      A                      A
 Frequencies --    451.8174               455.6520               468.0698
 Red. masses --      1.8740                 3.1649                 3.2012
 Frc consts  --      0.2254                 0.3871                 0.4132
 IR Inten    --      1.3371                 2.7110                 0.6024

                     22                     23                     24
                      A                      A                      A
 Frequencies --    550.6952               585.6294               665.8768
 Red. masses --      4.3498                 3.2824                 3.3994
 Frc consts  --      0.7772                 0.6633                 0.8880
 IR Inten    --      6.0229                 8.9062                 1.1924

                     25                     26                     27
                      A                      A                      A
 Frequencies --    670.3515               731.5517               736.2842
 Red. masses --      3.5218                 1.9616                 1.0784
 Frc consts  --      0.9324                 0.6185                 0.3444
 IR Inten    --      1.4441                 0.7157                 3.5162

                     28                     29                     30
                      A                      A                      A
 Frequencies --    761.3446               765.4627               805.4699
 Red. masses --      1.9110                 1.3249                 1.9630
 Frc consts  --      0.6526                 0.4574                 0.7504
 IR Inten    --      0.9311                 0.3798                14.7963

                     31                     32                     33
                      A                      A                      A
 Frequencies --    846.1034               853.6319               874.4536
 Red. masses --      1.3997                 2.6258                 1.3152
 Frc consts  --      0.5904                 1.1273                 0.5925
 IR Inten    --      1.6119                 1.8916                10.5954

                     34                     35                     36
                      A                      A                      A
 Frequencies --    901.0165               928.5117               945.4569
 Red. masses --      1.9823                 2.0556                 2.2634
 Frc consts  --      0.9482                 1.0441                 1.1920
 IR Inten    --      3.6028                 6.0009                 0.4436

                     37                     38                     39
                      A                      A                      A
 Frequencies --    963.6339               981.7056              1005.6834
 Red. masses --      2.3424                 1.2313                 2.6098
 Frc consts  --      1.2816                 0.6992                 1.5552
 IR Inten    --      8.5350                 0.0709                11.3624

                     40                     41                     42
                      A                      A                      A
 Frequencies --   1017.9620              1036.0893              1055.7955
 Red. masses --      3.6804                 2.3238                 2.6631
 Frc consts  --      2.2470                 1.4697                 1.7491
 IR Inten    --      1.1506                17.8500                 2.4909

                     43                     44                     45
                      A                      A                      A
 Frequencies --   1068.8908              1072.9468              1100.6050
 Red. masses --      2.3803                 2.3199                 2.3231
 Frc consts  --      1.6023                 1.5735                 1.6580
 IR Inten    --      4.8108                24.9647                36.4230

                     46                     47                     48
                      A                      A                      A
 Frequencies --   1108.3831              1127.6056              1138.8064
 Red. masses --      2.4925                 2.2174                 1.6591
 Frc consts  --      1.8041                 1.6612                 1.2677
 IR Inten    --     10.0045                53.8443                 2.8411

                     49                     50                     51
                      A                      A                      A
 Frequencies --   1145.9029              1157.1931              1195.7479
 Red. masses --      2.4655                 2.2354                 1.5686
 Frc consts  --      1.9074                 1.7637                 1.3215
 IR Inten    --    156.4250                62.3645                56.2888

                     52                     53                     54
                      A                      A                      A
 Frequencies --   1224.2646              1233.1150              1257.3632
 Red. masses --      1.3549                 1.5137                 1.2696
 Frc consts  --      1.1965                 1.3561                 1.1826
 IR Inten    --     52.0691                 4.9034                 2.2641

                     55                     56                     57
                      A                      A                      A
 Frequencies --   1272.6180              1278.7104              1294.2795
 Red. masses --      1.3043                 1.1706                 1.2249
 Frc consts  --      1.2446                 1.1278                 1.2090
 IR Inten    --     15.4721                10.3869                 0.1582

                     58                     59                     60
                      A                      A                      A
 Frequencies --   1309.4623              1326.4048              1333.0695
 Red. masses --      1.1929                 1.1034                 1.0819
 Frc consts  --      1.2051                 1.1437                 1.1328
 IR Inten    --      6.7917                 0.0483                 0.5537

                     61                     62                     63
                      A                      A                      A
 Frequencies --   1333.7731              1346.3689              1363.2102
 Red. masses --      1.2994                 1.3869                 1.3693
 Frc consts  --      1.3619                 1.4812                 1.4992
 IR Inten    --      0.5972                12.9164                 3.5419

                     64                     65                     66
                      A                      A                      A
 Frequencies --   1371.2566              1375.5469              1392.1971
 Red. masses --      1.4088                 1.3096                 1.3771
 Frc consts  --      1.5608                 1.4600                 1.5726
 IR Inten    --     16.4603                28.9779                 6.9495

                     67                     68                     69
                      A                      A                      A
 Frequencies --   1396.3504              1397.1230              1406.3094
 Red. masses --      1.3735                 1.5625                 1.5959
 Frc consts  --      1.5778                 1.7970                 1.8596
 IR Inten    --      0.7652                 3.5905                 2.9973

                     70                     71                     72
                      A                      A                      A
 Frequencies --   1414.7073              1470.7693              1474.2925
 Red. masses --      1.2876                 1.0813                 1.0831
 Frc consts  --      1.5183                 1.3781                 1.3871
 IR Inten    --      1.5619                 4.4650                 1.1175

                     73                     74                     75
                      A                      A                      A
 Frequencies --   1482.0165              1484.6515              1485.7655
 Red. masses --      1.0964                 1.0694                 1.0954
 Frc consts  --      1.4188                 1.3888                 1.4247
 IR Inten    --      8.6533                 0.6189                 3.4072

                     76                     77                     78
                      A                      A                      A
 Frequencies --   1489.9675              1490.5704              1498.5115
 Red. masses --      1.0687                 1.0983                 1.0848
 Frc consts  --      1.3979                 1.4377                 1.4352
 IR Inten    --      0.1888                13.7938                 8.2576

                     79                     80                     81
                      A                      A                      A
 Frequencies --   1499.9447              1503.6843              1514.1836
 Red. masses --      1.0401                 1.0770                 1.0929
 Frc consts  --      1.3787                 1.4348                 1.4763
 IR Inten    --      5.1281                 1.1461                 3.1686

                     82                     83                     84
                      A                      A                      A
 Frequencies --   1746.1223              1845.4822              2995.7507
 Red. masses --      7.4330                12.1192                 1.0643
 Frc consts  --     13.3526                24.3189                 5.6278
 IR Inten    --     36.6945               308.1805                11.3399

                     85                     86                     87
                      A                      A                      A
 Frequencies --   3003.6788              3012.0359              3019.6193
 Red. masses --      1.0580                 1.0596                 1.0667
 Frc consts  --      5.6239                 5.6639                 5.7308
 IR Inten    --      6.3762                 3.4149                44.4622

                     88                     89                     90
                      A                      A                      A
 Frequencies --   3020.4200              3023.8202              3026.7596
 Red. masses --      1.0620                 1.0632                 1.0872
 Frc consts  --      5.7083                 5.7275                 5.8685
 IR Inten    --     25.1587                12.7241                13.1529

                     91                     92                     93
                      A                      A                      A
 Frequencies --   3028.1996              3029.4099              3029.5939
 Red. masses --      1.0951                 1.0374                 1.0652
 Frc consts  --      5.9168                 5.6091                 5.7603
 IR Inten    --      5.1090                46.7474                17.3161

                     94                     95                     96
                      A                      A                      A
 Frequencies --   3031.2357              3047.3688              3059.4900
 Red. masses --      1.0629                 1.1032                 1.0956
 Frc consts  --      5.7542                 6.0363                 6.0422
 IR Inten    --     14.9570                 2.5062                31.1217

                     97                     98                     99
                      A                      A                      A
 Frequencies --   3063.2371              3065.5019              3067.2844
 Red. masses --      1.0716                 1.0943                 1.1047
 Frc consts  --      5.9246                 6.0590                 6.1238
 IR Inten    --     32.2986                44.6621                64.2704

                    100                    101                    102
                      A                      A                      A
 Frequencies --   3076.1369              3079.6135              3095.6143
 Red. masses --      1.1002                 1.1010                 1.1021
 Frc consts  --      6.1337                 6.1522                 6.2223
 IR Inten    --     11.8651                30.9123                56.6487

                    103                    104                    105
                      A                      A                      A
 Frequencies --   3101.8280              3136.5014              3178.7744
 Red. masses --      1.1010                 1.0958                 1.0882
 Frc consts  --      6.2411                 6.3514                 6.4788
 IR Inten    --     36.5525                12.7395                12.3782

 - Thermochemistry -
 -------------------
 Temperature   298.150 Kelvin.  Pressure   1.00000 Atm.
 Atom     1 has atomic number  6 and mass  12.00000

 Molecular mass:   210.16198 amu.
 Principal axes and moments of inertia in atomic units:
                           1         2         3
     Eigenvalues --  1600.405047610.909188248.86352
           X            0.99992  -0.01257   0.00247
           Y            0.01247   0.99925   0.03661
           Z           -0.00292  -0.03657   0.99933
 This molecule is an asymmetric top.
 Rotational symmetry number  1.
 Warning -- assumption of classical behavior for rotation
           may cause significant error
 Rotational temperatures (Kelvin)      0.05412     0.01138     0.01050
 Rotational constants (GHZ):           1.12768     0.23713     0.21879
 Zero-point vibrational energy     868294.6 (Joules/Mol)
                                  207.52740 (Kcal/Mol)
 Warning -- explicit consideration of  23 degrees of freedom as
           vibrations may cause significant error
 Vibrational temperatures:     43.03    63.13    79.35   113.83   121.50
          (Kelvin)            171.56   199.38   208.67   237.58   254.42
                              315.23   355.56   366.94   409.31   429.09
                              482.97   546.51   622.17   650.06   655.58
                              673.45   792.33   842.59   958.05   964.49
                             1052.54  1059.35  1095.41  1101.33  1158.89
                             1217.35  1228.19  1258.14  1296.36  1335.92
                             1360.30  1386.45  1412.46  1446.95  1464.62
                             1490.70  1519.05  1537.90  1543.73  1583.53
                             1594.72  1622.37  1638.49  1648.70  1664.94
                             1720.41  1761.44  1774.18  1809.07  1831.01
                             1839.78  1862.18  1884.02  1908.40  1917.99
                             1919.00  1937.12  1961.36  1972.93  1979.11
                             2003.06  2009.04  2010.15  2023.37  2035.45
                             2116.11  2121.18  2132.29  2136.08  2137.69
                             2143.73  2144.60  2156.02  2158.09  2163.47
                             2178.57  2512.28  2655.24  4310.22  4321.62
                             4333.65  4344.56  4345.71  4350.60  4354.83
                             4356.90  4358.65  4358.91  4361.27  4384.48
                             4401.92  4407.31  4410.57  4413.14  4425.87
                             4430.88  4453.90  4462.84  4512.73  4573.55

 Zero-point correction=                           0.330716 (Hartree/Particle)
 Thermal correction to Energy=                    0.347061
 Thermal correction to Enthalpy=                  0.348005
 Thermal correction to Gibbs Free Energy=         0.285804
 Sum of electronic and zero-point Energies=           -658.800611
 Sum of electronic and thermal Energies=              -658.784266
 Sum of electronic and thermal Enthalpies=            -658.783322
 Sum of electronic and thermal Free Energies=         -658.845523

                     E (Thermal)             CV                S
                      KCal/Mol        Cal/Mol-Kelvin    Cal/Mol-Kelvin
 Total                  217.784             61.290            130.914
 Electronic               0.000              0.000              0.000
 Translational            0.889              2.981             41.932
 Rotational               0.889              2.981             32.974
 Vibrational            216.007             55.329             56.008
 Vibration     1          0.594              1.984              5.836
 Vibration     2          0.595              1.980              5.076
 Vibration     3          0.596              1.976              4.624
 Vibration     4          0.600              1.963              3.913
 Vibration     5          0.601              1.960              3.785
 Vibration     6          0.609              1.933              3.113
 Vibration     7          0.614              1.915              2.823
 Vibration     8          0.616              1.908              2.736
 Vibration     9          0.624              1.885              2.490
 Vibration    10          0.628              1.871              2.362
 Vibration    11          0.647              1.812              1.967
 Vibration    12          0.661              1.768              1.751
 Vibration    13          0.665              1.754              1.696
 Vibration    14          0.683              1.702              1.507
 Vibration    15          0.691              1.677              1.427
 Vibration    16          0.717              1.604              1.233
 Vibration    17          0.750              1.513              1.040
 Vibration    18          0.793              1.400              0.851
 Vibration    19          0.810              1.357              0.790
 Vibration    20          0.814              1.348              0.779
 Vibration    21          0.825              1.321              0.743
 Vibration    22          0.906              1.138              0.543
 Vibration    23          0.943              1.062              0.475

 Optimization completed.
    -- Stationary point found.
 Normal termination of Gaussian 16 at Mon May 22 14:22:04 2023.
