 Gaussian 16, Revision A.03,
 Gaussian 16:  ES64L-G16RevA.03 25-Dec-2016

 -----------------------------
 # opt freq b3lyp/6-31g(2df,p)
 -----------------------------

 -------------------
 Title Card Required
 -------------------
 Symbolic Z-matrix:
 Charge =  0 Multiplicity = 1

 SCF Done:  E(RB3LYP) =  -754.869540111     A.U. after   13 cycles
 SCF Done:  E(RB3LYP) =  -754.881001257     A.U. after   11 cycles
 SCF Done:  E(RB3LYP) =  -754.884208126     A.U. after   11 cycles
 SCF Done:  E(RB3LYP) =  -754.886321475     A.U. after   13 cycles
 SCF Done:  E(RB3LYP) =  -754.887968039     A.U. after   13 cycles
 SCF Done:  E(RB3LYP) =  -754.889403334     A.U. after   11 cycles
 SCF Done:  E(RB3LYP) =  -754.889697904     A.U. after   10 cycles
 SCF Done:  E(RB3LYP) =  -754.889768310     A.U. after   10 cycles
 SCF Done:  E(RB3LYP) =  -754.889779598     A.U. after    9 cycles
 SCF Done:  E(RB3LYP) =  -754.889782639     A.U. after    8 cycles
 SCF Done:  E(RB3LYP) =  -754.889781401     A.U. after    7 cycles
 SCF Done:  E(RB3LYP) =  -754.889782627     A.U. after    8 cycles
 SCF Done:  E(RB3LYP) =  -754.889780463     A.U. after    9 cycles
 SCF Done:  E(RB3LYP) =  -754.889780131     A.U. after    6 cycles
 SCF Done:  E(RB3LYP) =  -754.889782552     A.U. after    9 cycles
 SCF Done:  E(RB3LYP) =  -754.889780125     A.U. after    9 cycles
 SCF Done:  E(RB3LYP) =  -754.889780208     A.U. after    5 cycles
 SCF Done:  E(RB3LYP) =  -754.889782559     A.U. after    9 cycles
 SCF Done:  E(RB3LYP) =  -754.889780110     A.U. after    9 cycles
 Optimization completed.
    -- Stationary point found.
 Normal termination of Gaussian 16 at Mon May 29 22:17:53 2023.

 ----------------------------------------------------------------------
 #N Geom=AllCheck Guess=TCheck SCRF=Check GenChk RB3LYP/6-31G(2df,p) Fr
 eq
 ----------------------------------------------------------------------

 Structure from the checkpoint file:  "CCCCCCC1CCCdCCqCONOrC1.chk"
 -------------------
 Title Card Required
 -------------------
 Charge =  0 Multiplicity = 1

                         Standard orientation:
 ---------------------------------------------------------------------
 Center     Atomic      Atomic             Coordinates (Angstroms)
 Number     Number       Type             X           Y           Z
 ---------------------------------------------------------------------
      1          6           0        7.098993   -0.237831   -0.672239
      2          6           0        5.864921   -0.780843    0.053382
      3          6           0        4.583101   -0.005688   -0.270228
      4          6           0        3.342780   -0.543095    0.451219
      5          6           0        2.059177    0.227546    0.119819
      6          6           0        0.828516   -0.330820    0.848410
      7          6           0       -0.519190    0.375596    0.570947
      8          6           0       -0.505870    1.832872    1.064012
      9          6           0       -1.884046    2.501031    1.203558
     10          6           0       -2.636641    2.781673   -0.076734
     11          6           0       -2.834341    1.973410   -1.119778
     12          6           0       -2.383315    0.537946   -1.291203
     13          6           0       -3.387267   -0.379554   -0.576823
     14          8           0       -3.001165   -1.729661   -0.814860
     15          7           0       -3.864488   -2.602370   -0.103586
     16          8           0       -3.272084   -2.836089    1.181449
     17          6           0       -0.915143    0.242819   -0.910764
     18          1           0        7.996875   -0.811804   -0.421960
     19          1           0        7.287387    0.808032   -0.404671
     20          1           0        6.969400   -0.280343   -1.759581
     21          1           0        6.037491   -0.757790    1.137718
     22          1           0        5.722749   -1.838335   -0.206538
     23          1           0        4.410891   -0.028640   -1.355684
     24          1           0        4.725005    1.053214   -0.011315
     25          1           0        3.513564   -0.516177    1.536743
     26          1           0        3.205003   -1.603132    0.195434
     27          1           0        1.897812    0.197902   -0.965265
     28          1           0        2.201303    1.285082    0.377658
     29          1           0        1.018034   -0.301296    1.930423
     30          1           0        0.717610   -1.392560    0.590982
     31          1           0       -1.260117   -0.172261    1.169875
     32          1           0        0.116092    2.444380    0.398461
     33          1           0       -0.024232    1.861680    2.050149
     34          1           0       -1.750768    3.450347    1.734332
     35          1           0       -2.509041    1.885511    1.868601
     36          1           0       -3.085390    3.771904   -0.135063
     37          1           0       -3.433144    2.364299   -1.940503
     38          1           0       -2.465339    0.300025   -2.359434
     39          1           0       -4.404482   -0.209222   -0.952697
     40          1           0       -3.388882   -0.179102    0.501791
     41          1           0       -3.656762   -3.480457   -0.579257
     42          1           0       -3.888474   -2.397037    1.778435
     43          1           0       -0.281308    0.900706   -1.517043
     44          1           0       -0.703910   -0.782698   -1.230668
 ---------------------------------------------------------------------

 SCF Done:  E(RB3LYP) =  -754.889780110     A.U. after    1 cycles

 The electronic state is 1-A.
 Alpha  occ. eigenvalues --  -19.16823 -19.16566 -14.41924 -10.22295 -10.18741
 Alpha  occ. eigenvalues --  -10.18119 -10.17769 -10.17531 -10.17524 -10.17304
 Alpha  occ. eigenvalues --  -10.17273 -10.17005 -10.16963 -10.16866 -10.16824
 Alpha  occ. eigenvalues --  -10.16777 -10.16738  -1.10494  -1.00888  -0.83283
 Alpha  occ. eigenvalues --   -0.80275  -0.79202  -0.77596  -0.75265  -0.74436
 Alpha  occ. eigenvalues --   -0.69799  -0.66823  -0.64791  -0.62536  -0.60145
 Alpha  occ. eigenvalues --   -0.57861  -0.56846  -0.53499  -0.52592  -0.51504
 Alpha  occ. eigenvalues --   -0.49496  -0.48350  -0.47072  -0.46665  -0.46219
 Alpha  occ. eigenvalues --   -0.44347  -0.43455  -0.42272  -0.42034  -0.41629
 Alpha  occ. eigenvalues --   -0.39997  -0.39393  -0.38679  -0.38423  -0.37733
 Alpha  occ. eigenvalues --   -0.36291  -0.35648  -0.34942  -0.34261  -0.34038
 Alpha  occ. eigenvalues --   -0.32746  -0.32393  -0.31894  -0.31378  -0.31139
 Alpha  occ. eigenvalues --   -0.30366  -0.29882  -0.29652  -0.28921  -0.28133
 Alpha  occ. eigenvalues --   -0.24351  -0.24047
 Alpha virt. eigenvalues --    0.01857   0.06500   0.08210   0.09450   0.10048
 Alpha virt. eigenvalues --    0.10644   0.10871   0.11312   0.12007   0.12803
 Alpha virt. eigenvalues --    0.12869   0.13112   0.14400   0.14548   0.15588

 Mulliken charges:
               1
     1  C   -0.378904
     2  C   -0.161962
     3  C   -0.161681
     4  C   -0.172395
     5  C   -0.177933
     6  C   -0.217351
     7  C    0.011841
     8  C   -0.180879
     9  C   -0.268358
    10  C   -0.044830
    11  C   -0.085689
    12  C   -0.086623
    13  C   -0.027227
    14  O   -0.241922
    15  N   -0.117500
    16  O   -0.386393
    17  C   -0.201432
    18  H    0.108915
    19  H    0.111799
    20  H    0.112090
    21  H    0.092280
    22  H    0.092848
    23  H    0.089448
    24  H    0.088720
    25  H    0.088958
    26  H    0.090804
    27  H    0.095139
    28  H    0.092138
    29  H    0.082672
    30  H    0.095244
    31  H    0.071510
    32  H    0.096426
    33  H    0.085084
    34  H    0.096204
    35  H    0.104592
    36  H    0.083998
    37  H    0.083531
    38  H    0.079751
    39  H    0.096133
    40  H    0.090244
    41  H    0.269280
    42  H    0.304482
    43  H    0.090962
    44  H    0.105981
 Sum of Mulliken charges =  -0.00000

 Dipole moment (field-independent basis, Debye):
    X=             -0.7959    Y=              0.5015    Z=              0.5509  Tot=              1.0902
 Quadrupole moment (field-independent basis, Debye-Ang):
   XX=           -104.8387   YY=           -105.8165   ZZ=           -103.5727
   XY=              0.1232   XZ=             -2.1740   YZ=              1.8047

  Exact polarizability: 186.544  -3.918 166.316   4.876   3.571 150.817
 Approx polarizability: 217.610   0.673 239.386   6.125  10.080 244.874

                      1                      2                      3
                      A                      A                      A
 Frequencies --     20.7398                22.1939                36.3196
 Red. masses --      5.4270                 4.0163                 3.4658
 Frc consts  --      0.0014                 0.0012                 0.0027
 IR Inten    --      0.1339                 0.0750                 0.2455

                      4                      5                      6
                      A                      A                      A
 Frequencies --     40.8860                50.2885                70.5172
 Red. masses --      1.7057                 3.7802                 3.4969
 Frc consts  --      0.0017                 0.0056                 0.0102
 IR Inten    --      0.0138                 0.5504                 0.3104

                      7                      8                      9
                      A                      A                      A
 Frequencies --     92.2830               101.8541               125.5477
 Red. masses --      3.0560                 4.3983                 1.7050
 Frc consts  --      0.0153                 0.0269                 0.0158
 IR Inten    --      0.2149                 0.8497                 0.0452

                     10                     11                     12
                      A                      A                      A
 Frequencies --    140.0350               154.3234               174.5928
 Red. masses --      3.4009                 2.2512                 3.1614
 Frc consts  --      0.0393                 0.0316                 0.0568
 IR Inten    --      0.3947                 0.0151                 1.8630

                     13                     14                     15
                      A                      A                      A
 Frequencies --    203.8068               206.2433               234.5918
 Red. masses --      2.6906                 2.1919                 3.2696
 Frc consts  --      0.0658                 0.0549                 0.1060
 IR Inten    --      0.4991                 1.5184                 0.6760

                     16                     17                     18
                      A                      A                      A
 Frequencies --    246.6606               267.8827               318.2050
 Red. masses --      1.1186                 2.6432                 3.0798
 Frc consts  --      0.0401                 0.1118                 0.1837
 IR Inten    --      0.0007                 0.3475                 0.5686

                     19                     20                     21
                      A                      A                      A
 Frequencies --    336.2065               350.8718               387.5545
 Red. masses --      2.3017                 2.1155                 4.2800
 Frc consts  --      0.1533                 0.1535                 0.3788
 IR Inten    --      3.3953                13.2750                 0.5999

                     22                     23                     24
                      A                      A                      A
 Frequencies --    391.7089               414.6286               444.5205
 Red. masses --      2.3290                 1.5453                 2.7614
 Frc consts  --      0.2105                 0.1565                 0.3215
 IR Inten    --      3.1823                83.1956                 0.9717

                     25                     26                     27
                      A                      A                      A
 Frequencies --    448.3087               490.0102               551.4389
 Red. masses --      2.2024                 2.7453                 3.3386
 Frc consts  --      0.2608                 0.3884                 0.5982
 IR Inten    --      2.5241                 0.2832                 2.6123

                     28                     29                     30
                      A                      A                      A
 Frequencies --    590.6285               626.2773               703.6417
 Red. masses --      5.2818                 3.0615                 1.8401
 Frc consts  --      1.0856                 0.7075                 0.5368
 IR Inten    --      1.2050                 0.4680                 3.2503

                     31                     32                     33
                      A                      A                      A
 Frequencies --    730.9711               740.8040               749.9742
 Red. masses --      1.0672                 1.1239                 1.5167
 Frc consts  --      0.3360                 0.3634                 0.5026
 IR Inten    --      4.1676                 1.8895                28.8119

                     34                     35                     36
                      A                      A                      A
 Frequencies --    787.6466               796.7930               833.1301
 Red. masses --      1.2469                 3.1682                 2.2638
 Frc consts  --      0.4558                 1.1851                 0.9258
 IR Inten    --      0.7190                 2.3954                 8.7118

                     37                     38                     39
                      A                      A                      A
 Frequencies --    863.9927               869.3883               890.7468
 Red. masses --      5.5582                 3.0358                 1.4115
 Frc consts  --      2.4446                 1.3519                 0.6599
 IR Inten    --    118.3125                27.9456                 0.9683

                     40                     41                     42
                      A                      A                      A
 Frequencies --    898.9037               903.1589               926.9096
 Red. masses --      1.9895                 1.9435                 2.3419
 Frc consts  --      0.9472                 0.9340                 1.1855
 IR Inten    --      2.0441                 7.3288                 4.0434

                     43                     44                     45
                      A                      A                      A
 Frequencies --    956.4213               962.2530               979.7968
 Red. masses --      2.3152                 4.8990                 1.8449
 Frc consts  --      1.2478                 2.6726                 1.0435
 IR Inten    --      0.0892                14.2822                 2.6757

                     46                     47                     48
                      A                      A                      A
 Frequencies --    992.6783              1006.8466              1013.1723
 Red. masses --      1.4011                 1.3319                 3.3540
 Frc consts  --      0.8135                 0.7955                 2.0285
 IR Inten    --      2.2416                 1.5563                 1.9210

                     49                     50                     51
                      A                      A                      A
 Frequencies --   1023.4330              1040.8929              1052.6175
 Red. masses --      2.8679                 1.9855                 2.4450
 Frc consts  --      1.7698                 1.2675                 1.5961
 IR Inten    --     34.3755                10.6468                 0.0942

                     52                     53                     54
                      A                      A                      A
 Frequencies --   1054.4813              1068.8137              1071.0740
 Red. masses --      1.9327                 2.3105                 2.2010
 Frc consts  --      1.2662                 1.5551                 1.4877
 IR Inten    --      1.5421                 2.4146                 1.2278

                     55                     56                     57
                      A                      A                      A
 Frequencies --   1101.2633              1114.0131              1133.6017
 Red. masses --      2.0484                 2.1629                 2.1858
 Frc consts  --      1.4637                 1.5815                 1.6549
 IR Inten    --      1.9113                 0.9441                 2.4862

                     58                     59                     60
                      A                      A                      A
 Frequencies --   1140.3577              1178.3840              1194.1488
 Red. masses --      2.1444                 1.8120                 1.4334
 Frc consts  --      1.6430                 1.4824                 1.2043
 IR Inten    --      6.9753                 0.6513                 0.1765

                     61                     62                     63
                      A                      A                      A
 Frequencies --   1208.0380              1227.9097              1230.4249
 Red. masses --      1.3452                 1.5449                 1.2096
 Frc consts  --      1.1567                 1.3724                 1.0790
 IR Inten    --     94.0741                 0.2056                 3.6657

                     64                     65                     66
                      A                      A                      A
 Frequencies --   1249.9528              1261.1102              1275.5021
 Red. masses --      1.1814                 1.1936                 1.1692
 Frc consts  --      1.0875                 1.1184                 1.1207
 IR Inten    --      4.7119                 2.9478                 4.9265

                     67                     68                     69
                      A                      A                      A
 Frequencies --   1285.6294              1303.5570              1304.4421
 Red. masses --      1.2567                 1.1780                 1.3402
 Frc consts  --      1.2238                 1.1794                 1.3436
 IR Inten    --      0.0168                 0.4359                 2.5569

                     70                     71                     72
                      A                      A                      A
 Frequencies --   1315.0600              1328.4445              1329.8215
 Red. masses --      1.2484                 1.2090                 1.0745
 Frc consts  --      1.2720                 1.2571                 1.1195
 IR Inten    --      0.3976                 2.6149                 0.0722

                     73                     74                     75
                      A                      A                      A
 Frequencies --   1330.8687              1336.2407              1346.6582
 Red. masses --      1.2928                 1.1855                 1.2065
 Frc consts  --      1.3492                 1.2471                 1.2892
 IR Inten    --      0.9110                 5.7060                 0.7532

                     76                     77                     78
                      A                      A                      A
 Frequencies --   1369.5709              1374.4348              1380.6018
 Red. masses --      1.4762                 1.3379                 1.3445
 Frc consts  --      1.6314                 1.4891                 1.5099
 IR Inten    --      1.2266                 3.2124                 4.2033

                     79                     80                     81
                      A                      A                      A
 Frequencies --   1397.7089              1399.2882              1400.2185
 Red. masses --      1.4042                 1.4819                 1.5972
 Frc consts  --      1.6162                 1.7096                 1.8450
 IR Inten    --     20.1973                 1.8040                 1.7842

                     82                     83                     84
                      A                      A                      A
 Frequencies --   1406.7572              1412.8821              1423.4312
 Red. masses --      1.3986                 1.2532                 1.3725
 Frc consts  --      1.6307                 1.4740                 1.6384
 IR Inten    --     11.1797                 0.7036                 5.5795

                     85                     86                     87
                      A                      A                      A
 Frequencies --   1424.9934              1431.0477              1477.2401
 Red. masses --      1.3348                 1.4160                 1.0915
 Frc consts  --      1.5970                 1.7085                 1.4033
 IR Inten    --     13.0585                 3.1709                 1.3688

                     88                     89                     90
                      A                      A                      A
 Frequencies --   1480.4688              1482.2847              1483.2143
 Red. masses --      1.0795                 1.0879                 1.0723
 Frc consts  --      1.3940                 1.4083                 1.3899
 IR Inten    --      2.2523                 4.7234                 0.4749

                     91                     92                     93
                      A                      A                      A
 Frequencies --   1485.5481              1490.6395              1496.8933
 Red. masses --      1.0760                 1.0900                 1.0798
 Frc consts  --      1.3991                 1.4270                 1.4255
 IR Inten    --      0.7443                 2.7223                 2.5447

                     94                     95                     96
                      A                      A                      A
 Frequencies --   1499.6577              1507.3498              1513.4847
 Red. masses --      1.0404                 1.0859                 1.0799
 Frc consts  --      1.3785                 1.4537                 1.4575
 IR Inten    --      4.8357                 0.0046                12.1314

                     97                     98                     99
                      A                      A                      A
 Frequencies --   1515.1328              1522.0514              1725.9975
 Red. masses --      1.0949                 1.0765                 6.9007
 Frc consts  --      1.4809                 1.4694                12.1123
 IR Inten    --      2.7335                 1.4770                 2.3601

                    100                    101                    102
                      A                      A                      A
 Frequencies --   2991.2988              2995.5273              2998.2004
 Red. masses --      1.0700                 1.0660                 1.0603
 Frc consts  --      5.6407                 5.6360                 5.6155
 IR Inten    --     18.9307                 2.1912                 1.1964

                    103                    104                    105
                      A                      A                      A
 Frequencies --   3001.8612              3008.4478              3012.0743
 Red. masses --      1.0585                 1.0647                 1.0605
 Frc consts  --      5.6200                 5.6778                 5.6686
 IR Inten    --      6.3337                14.9901                35.8764

                    106                    107                    108
                      A                      A                      A
 Frequencies --   3014.0017              3014.3277              3015.7916
 Red. masses --      1.0600                 1.0668                 1.0755
 Frc consts  --      5.6734                 5.7108                 5.7630
 IR Inten    --     30.7237                30.6455                21.5477

                    109                    110                    111
                      A                      A                      A
 Frequencies --   3019.0817              3020.8267              3027.3651
 Red. masses --      1.0960                 1.0642                 1.0358
 Frc consts  --      5.8856                 5.7217                 5.5933
 IR Inten    --      3.0019                58.6412                40.4827

                    112                    113                    114
                      A                      A                      A
 Frequencies --   3029.7759              3035.1957              3036.7441
 Red. masses --      1.0951                 1.0738                 1.0966
 Frc consts  --      5.9227                 5.8285                 5.9582
 IR Inten    --      8.0696                27.3440                11.2155

                    115                    116                    117
                      A                      A                      A
 Frequencies --   3052.2766              3052.5186              3053.9885
 Red. masses --      1.0971                 1.0975                 1.1047
 Frc consts  --      6.0223                 6.0251                 6.0706
 IR Inten    --     62.0486                 8.9391                14.6091

                    118                    119                    120
                      A                      A                      A
 Frequencies --   3058.0601              3068.6174              3078.0720
 Red. masses --      1.0999                 1.1043                 1.1010
 Frc consts  --      6.0603                 6.1264                 6.1459
 IR Inten    --     65.3962               103.4273                31.8349

                    121                    122                    123
                      A                      A                      A
 Frequencies --   3093.4135              3098.6236              3123.1533
 Red. masses --      1.1020                 1.1009                 1.0830
 Frc consts  --      6.2132                 6.2280                 6.2241
 IR Inten    --     60.7150                41.0921                 7.5290

                    124                    125                    126
                      A                      A                      A
 Frequencies --   3148.5121              3462.4900              3800.6792
 Red. masses --      1.0945                 1.0763                 1.0680
 Frc consts  --      6.3923                 7.6025                 9.0899
 IR Inten    --     50.9777                 2.6183                33.7896

 - Thermochemistry -
 -------------------
 Temperature   298.150 Kelvin.  Pressure   1.00000 Atm.
 Atom     1 has atomic number  6 and mass  12.00000

 Molecular mass:   241.20418 amu.
 Principal axes and moments of inertia in atomic units:
                           1         2         3
     Eigenvalues --  2870.98677********************
           X            0.99994  -0.01080  -0.00332
           Y            0.01082   0.99991   0.00821
           Z            0.00323  -0.00824   0.99996
 This molecule is an asymmetric top.
 Rotational symmetry number  1.
 Warning -- assumption of classical behavior for rotation
           may cause significant error
 Rotational temperatures (Kelvin)      0.03017     0.00803     0.00700
 Rotational constants (GHZ):           0.62861     0.16738     0.14585
 Zero-point vibrational energy    1047120.7 (Joules/Mol)
                                  250.26786 (Kcal/Mol)
 Warning -- explicit consideration of  28 degrees of freedom as
           vibrations may cause significant error
 Vibrational temperatures:     29.84    31.93    52.26    58.83    72.35
          (Kelvin)            101.46   132.77   146.55   180.64   201.48
                              222.04   251.20   293.23   296.74   337.53
                              354.89   385.42   457.83   483.73   504.83
                              557.60   563.58   596.56   639.57   645.02
                              705.02   793.40   849.78   901.07  1012.38
                             1051.70  1065.85  1079.05  1133.25  1146.41
                             1198.69  1243.09  1250.86  1281.59  1293.32
                             1299.44  1333.62  1376.08  1384.47  1409.71
                             1428.24  1448.63  1457.73  1472.49  1497.61
                             1514.48  1517.16  1537.78  1541.04  1584.47
                             1602.82  1631.00  1640.72  1695.43  1718.11
                             1738.10  1766.69  1770.31  1798.40  1814.46
                             1835.16  1849.73  1875.53  1876.80  1892.08
                             1911.34  1913.32  1914.82  1922.55  1937.54
                             1970.51  1977.51  1986.38  2010.99  2013.26
                             2014.60  2024.01  2032.82  2048.00  2050.25
                             2058.96  2125.42  2130.06  2132.68  2134.01
                             2137.37  2144.70  2153.70  2157.67  2168.74
                             2177.57  2179.94  2189.89  2483.33  4303.81
                             4309.90  4313.74  4319.01  4328.49  4333.70
                             4336.48  4336.95  4339.05  4343.79  4346.30
                             4355.70  4359.17  4366.97  4369.20  4391.55
                             4391.89  4394.01  4399.87  4415.06  4428.66
                             4450.73  4458.23  4493.52  4530.01  4981.75
                             5468.33

 Zero-point correction=                           0.398827 (Hartree/Particle)
 Thermal correction to Energy=                    0.418598
 Thermal correction to Enthalpy=                  0.419542
 Thermal correction to Gibbs Free Energy=         0.347546
 Sum of electronic and zero-point Energies=           -754.490953
 Sum of electronic and thermal Energies=              -754.471182
 Sum of electronic and thermal Enthalpies=            -754.470238
 Sum of electronic and thermal Free Energies=         -754.542234

                     E (Thermal)             CV                S
                      KCal/Mol        Cal/Mol-Kelvin    Cal/Mol-Kelvin
 Total                  262.674             73.018            151.529
 Electronic               0.000              0.000              0.000
 Translational            0.889              2.981             42.343
 Rotational               0.889              2.981             34.304
 Vibrational            260.897             67.057             74.883
 Vibration     1          0.593              1.986              6.562
 Vibration     2          0.593              1.985              6.428
 Vibration     3          0.594              1.982              5.450
 Vibration     4          0.594              1.981              5.216
 Vibration     5          0.595              1.977              4.806
 Vibration     6          0.598              1.968              4.139
 Vibration     7          0.602              1.955              3.611
 Vibration     8          0.604              1.948              3.419
 Vibration     9          0.610              1.928              3.013
 Vibration    10          0.615              1.913              2.803
 Vibration    11          0.620              1.898              2.618
 Vibration    12          0.627              1.874              2.385
 Vibration    13          0.639              1.834              2.098
 Vibration    14          0.641              1.831              2.077
 Vibration    15          0.654              1.788              1.844
 Vibration    16          0.661              1.768              1.754
 Vibration    17          0.673              1.732              1.610
 Vibration    18          0.705              1.639              1.319
 Vibration    19          0.717              1.603              1.230
 Vibration    20          0.728              1.573              1.162
 Vibration    21          0.756              1.497              1.010
 Vibration    22          0.759              1.488              0.994
 Vibration    23          0.778              1.438              0.910
 Vibration    24          0.804              1.373              0.813
 Vibration    25          0.807              1.365              0.801
 Vibration    26          0.846              1.272              0.684
 Vibration    27          0.907              1.137              0.541
 Vibration    28          0.948              1.052              0.466

                           ! Non-Optimized Parameters !
 Normal termination of Gaussian 16 at Tue May 30 02:43:01 2023.
