 Gaussian 16, Revision A.03,
 Gaussian 16:  ES64L-G16RevA.03 25-Dec-2016

 -----------------------------
 # opt freq b3lyp/6-31g(2df,p)
 -----------------------------

 -------------------
 Title Card Required
 -------------------
 Symbolic Z-matrix:
 Charge =  0 Multiplicity = 1

 SCF Done:  E(RB3LYP) =  -589.702150348     A.U. after   11 cycles
 SCF Done:  E(RB3LYP) =  -589.710854217     A.U. after   10 cycles
 SCF Done:  E(RB3LYP) =  -589.712560190     A.U. after    9 cycles
 SCF Done:  E(RB3LYP) =  -589.714256595     A.U. after    9 cycles
 SCF Done:  E(RB3LYP) =  -589.714905864     A.U. after    9 cycles
 SCF Done:  E(RB3LYP) =  -589.715042287     A.U. after    8 cycles
 SCF Done:  E(RB3LYP) =  -589.715065140     A.U. after    8 cycles
 SCF Done:  E(RB3LYP) =  -589.715069890     A.U. after    8 cycles
 SCF Done:  E(RB3LYP) =  -589.715070467     A.U. after    6 cycles
 SCF Done:  E(RB3LYP) =  -589.715070560     A.U. after    6 cycles
 Optimization completed.
    -- Stationary point found.
 Normal termination of Gaussian 16 at Mon May 22 10:20:23 2023.

 ----------------------------------------------------------------------
 #N Geom=AllCheck Guess=TCheck SCRF=Check GenChk RB3LYP/6-31G(2df,p) Fr
 eq
 ----------------------------------------------------------------------

 Structure from the checkpoint file:  "CCCCCCCCCC1CC1CCC.chk"
 -------------------
 Title Card Required
 -------------------
 Charge =  0 Multiplicity = 1

                         Standard orientation:
 ---------------------------------------------------------------------
 Center     Atomic      Atomic             Coordinates (Angstroms)
 Number     Number       Type             X           Y           Z
 ---------------------------------------------------------------------
      1          6           0       -7.931684    0.535135   -0.247635
      2          6           0       -6.517208    1.027936    0.069646
      3          6           0       -5.440632   -0.039725   -0.153201
      4          6           0       -4.021648    0.445001    0.161961
      5          6           0       -2.945424   -0.622935   -0.061146
      6          6           0       -1.526329   -0.137857    0.254224
      7          6           0       -0.449929   -1.205638    0.031146
      8          6           0        0.968798   -0.719535    0.345714
      9          6           0        2.045301   -1.790582    0.125845
     10          6           0        3.445923   -1.309241    0.442366
     11          6           0        4.651763   -1.978546   -0.172306
     12          6           0        4.271754   -0.578003   -0.589610
     13          6           0        5.133139    0.606958   -0.206582
     14          6           0        4.369933    1.938111   -0.196781
     15          6           0        5.247786    3.132635    0.185596
     16          1           0       -8.677031    1.318868   -0.078993
     17          1           0       -8.202313   -0.321806    0.379491
     18          1           0       -8.014719    0.216433   -1.292822
     19          1           0       -6.474184    1.372548    1.111510
     20          1           0       -6.288031    1.906642   -0.547965
     21          1           0       -5.483846   -0.385396   -1.195792
     22          1           0       -5.670050   -0.919686    0.464366
     23          1           0       -3.979379    0.790555    1.204517
     24          1           0       -3.793195    1.325016   -0.455700
     25          1           0       -2.987604   -0.968414   -1.103704
     26          1           0       -3.173818   -1.502974    0.556448
     27          1           0       -1.484113    0.207483    1.296817
     28          1           0       -1.297853    0.742209   -0.363249
     29          1           0       -0.492422   -1.551399   -1.011407
     30          1           0       -0.678011   -2.085727    0.648854
     31          1           0        1.011144   -0.373685    1.388144
     32          1           0        1.201978    0.157701   -0.272677
     33          1           0        2.010114   -2.133907   -0.917298
     34          1           0        1.811433   -2.671329    0.740523
     35          1           0        3.577342   -0.965017    1.467260
     36          1           0        4.480972   -2.788815   -0.874226
     37          1           0        5.539149   -2.103579    0.440314
     38          1           0        3.812626   -0.494889   -1.573748
     39          1           0        5.984083    0.683065   -0.898427
     40          1           0        5.568535    0.430139    0.786743
     41          1           0        3.524276    1.861538    0.498400
     42          1           0        3.931312    2.108285   -1.189110
     43          1           0        5.672437    3.007181    1.188088
     44          1           0        4.677767    4.067062    0.181049
     45          1           0        6.084137    3.249615   -0.512822
 ---------------------------------------------------------------------

 SCF Done:  E(RB3LYP) =  -589.715070560     A.U. after    1 cycles

 The electronic state is 1-A.
 Alpha  occ. eigenvalues --  -10.18005 -10.17980 -10.17469 -10.17453 -10.17411
 Alpha  occ. eigenvalues --  -10.17407 -10.17330 -10.17195 -10.17181 -10.17171
 Alpha  occ. eigenvalues --  -10.17159 -10.17147 -10.17144 -10.16896 -10.16851
 Alpha  occ. eigenvalues --   -0.85617  -0.80572  -0.78766  -0.77485  -0.75566
 Alpha  occ. eigenvalues --   -0.71810  -0.68670  -0.66724  -0.62109  -0.58835
 Alpha  occ. eigenvalues --   -0.58033  -0.57247  -0.56826  -0.56610  -0.55366
 Alpha  occ. eigenvalues --   -0.47888  -0.46762  -0.46590  -0.45580  -0.44343
 Alpha  occ. eigenvalues --   -0.43276  -0.42532  -0.41177  -0.40529  -0.40241
 Alpha  occ. eigenvalues --   -0.39678  -0.38398  -0.37445  -0.37089  -0.36843
 Alpha  occ. eigenvalues --   -0.35597  -0.34460  -0.34249  -0.33526  -0.33286
 Alpha  occ. eigenvalues --   -0.32565  -0.32452  -0.32192  -0.32136  -0.31678
 Alpha  occ. eigenvalues --   -0.31518  -0.31488  -0.29704  -0.26554  -0.26164
 Alpha virt. eigenvalues --    0.08961   0.09495   0.09661   0.09990   0.10795
 Alpha virt. eigenvalues --    0.11434   0.11594   0.12251   0.12792   0.13330
 Alpha virt. eigenvalues --    0.13943   0.14368   0.15267   0.15749   0.16444

 Mulliken charges:
               1
     1  C   -0.378941
     2  C   -0.162563
     3  C   -0.157989
     4  C   -0.177720
     5  C   -0.179975
     6  C   -0.180302
     7  C   -0.179665
     8  C   -0.173222
     9  C   -0.215105
    10  C    0.013832
    11  C   -0.330398
    12  C    0.014672
    13  C   -0.193080
    14  C   -0.156451
    15  C   -0.379673
    16  H    0.109272
    17  H    0.112211
    18  H    0.112193
    19  H    0.092598
    20  H    0.092589
    21  H    0.089343
    22  H    0.089384
    23  H    0.089850
    24  H    0.089855
    25  H    0.089896
    26  H    0.090011
    27  H    0.089968
    28  H    0.090175
    29  H    0.089662
    30  H    0.090259
    31  H    0.088708
    32  H    0.096081
    33  H    0.087548
    34  H    0.091199
    35  H    0.073499
    36  H    0.103384
    37  H    0.103295
    38  H    0.073261
    39  H    0.090527
    40  H    0.087069
    41  H    0.099127
    42  H    0.091401
    43  H    0.112025
    44  H    0.109637
    45  H    0.112554
 Sum of Mulliken charges =  -0.00000

 Dipole moment (field-independent basis, Debye):
    X=             -0.0804    Y=              0.0938    Z=              0.0116  Tot=              0.1241
 Quadrupole moment (field-independent basis, Debye-Ang):
   XX=           -102.0276   YY=           -100.5518   ZZ=            -97.4338
   XY=              0.2936   XZ=              0.1111   YZ=             -0.3305

  Exact polarizability: 203.243  -1.441 159.476  -0.362   0.749 136.081
 Approx polarizability: 223.090  -0.130 221.514  -1.885  -1.581 219.852

                      1                      2                      3
                      A                      A                      A
 Frequencies --     20.6738                27.2410                32.2511
 Red. masses --      3.6489                 2.4934                 1.9505
 Frc consts  --      0.0009                 0.0011                 0.0012
 IR Inten    --      0.0031                 0.0033                 0.0004

                      4                      5                      6
                      A                      A                      A
 Frequencies --     51.6183                64.9967                78.8262
 Red. masses --      3.2133                 2.7787                 1.7596
 Frc consts  --      0.0050                 0.0069                 0.0064
 IR Inten    --      0.0001                 0.0107                 0.0025

                      7                      8                      9
                      A                      A                      A
 Frequencies --     86.2456                97.0092               114.2289
 Red. masses --      1.9251                 2.2548                 2.6206
 Frc consts  --      0.0084                 0.0125                 0.0201
 IR Inten    --      0.0064                 0.0080                 0.0136

                     10                     11                     12
                      A                      A                      A
 Frequencies --    129.5544               137.1831               157.0120
 Red. masses --      2.1650                 2.3488                 2.1961
 Frc consts  --      0.0214                 0.0260                 0.0319
 IR Inten    --      0.0106                 0.0103                 0.0070

                     13                     14                     15
                      A                      A                      A
 Frequencies --    166.0862               192.0316               206.5378
 Red. masses --      1.9478                 3.2401                 3.1552
 Frc consts  --      0.0317                 0.0704                 0.0793
 IR Inten    --      0.0004                 0.0008                 0.0187

                     16                     17                     18
                      A                      A                      A
 Frequencies --    245.3095               247.8218               274.0376
 Red. masses --      1.1274                 1.1208                 2.9355
 Frc consts  --      0.0400                 0.0406                 0.1299
 IR Inten    --      0.0005                 0.0011                 0.0327

                     19                     20                     21
                      A                      A                      A
 Frequencies --    285.5269               329.6638               371.6631
 Red. masses --      2.1808                 2.9574                 3.2011
 Frc consts  --      0.1048                 0.1894                 0.2605
 IR Inten    --      0.0608                 0.0940                 0.1608

                     22                     23                     24
                      A                      A                      A
 Frequencies --    385.6634               430.6209               467.1199
 Red. masses --      3.0986                 2.4939                 2.8519
 Frc consts  --      0.2715                 0.2725                 0.3666
 IR Inten    --      0.1371                 0.3527                 0.2150

                     25                     26                     27
                      A                      A                      A
 Frequencies --    496.0253               516.4464               731.1885
 Red. masses --      2.6880                 2.7787                 1.0582
 Frc consts  --      0.3897                 0.4367                 0.3333
 IR Inten    --      0.2628                 0.3973                 5.4256

                     28                     29                     30
                      A                      A                      A
 Frequencies --    732.0945               739.0214               744.3688
 Red. masses --      1.0794                 1.1612                 1.1071
 Frc consts  --      0.3409                 0.3737                 0.3614
 IR Inten    --      0.0413                 0.2632                 3.9124

                     31                     32                     33
                      A                      A                      A
 Frequencies --    767.2015               794.5354               815.3835
 Red. masses --      1.2261                 1.6527                 1.3862
 Frc consts  --      0.4252                 0.6147                 0.5430
 IR Inten    --      0.6078                 0.9599                 3.1288

                     34                     35                     36
                      A                      A                      A
 Frequencies --    833.1549               861.7813               890.2631
 Red. masses --      1.3436                 1.3216                 1.2613
 Frc consts  --      0.5495                 0.5783                 0.5890
 IR Inten    --      0.2272                 2.1009                 0.6501

                     37                     38                     39
                      A                      A                      A
 Frequencies --    897.4660               904.8727               925.2895
 Red. masses --      1.9678                 1.9669                 1.6876
 Frc consts  --      0.9338                 0.9489                 0.8513
 IR Inten    --      0.9338                 2.1258                 7.5553

                     40                     41                     42
                      A                      A                      A
 Frequencies --    946.2156               969.3938               992.8775
 Red. masses --      2.2346                 1.3452                 4.1973
 Frc consts  --      1.1788                 0.7448                 2.4379
 IR Inten    --      1.7417                 1.7958                 0.5231

                     43                     44                     45
                      A                      A                      A
 Frequencies --   1005.7912              1027.1242              1030.4436
 Red. masses --      3.0161                 1.6001                 2.1582
 Frc consts  --      1.7977                 0.9946                 1.3502
 IR Inten    --      0.2319                 1.8875                 0.9511

                     46                     47                     48
                      A                      A                      A
 Frequencies --   1040.1964              1048.3991              1057.5331
 Red. masses --      1.6869                 1.8881                 1.5987
 Frc consts  --      1.0754                 1.2227                 1.0534
 IR Inten    --      0.3610                 3.9898                 1.6238

                     49                     50                     51
                      A                      A                      A
 Frequencies --   1061.9409              1064.7073              1070.3166
 Red. masses --      1.9864                 1.5625                 2.1689
 Frc consts  --      1.3198                 1.0436                 1.4639
 IR Inten    --      0.1889                 0.4957                 0.0244

                     52                     53                     54
                      A                      A                      A
 Frequencies --   1071.4037              1087.4902              1106.4542
 Red. masses --      2.1156                 2.2944                 1.8386
 Frc consts  --      1.4309                 1.5987                 1.3262
 IR Inten    --      0.3399                 0.6123                 0.2468

                     55                     56                     57
                      A                      A                      A
 Frequencies --   1121.6332              1133.8749              1141.8494
 Red. masses --      1.2399                 1.8764                 2.7658
 Frc consts  --      0.9191                 1.4214                 2.1246
 IR Inten    --      1.0172                 0.6478                 0.7128

                     58                     59                     60
                      A                      A                      A
 Frequencies --   1199.1691              1203.0050              1217.3813
 Red. masses --      1.8587                 1.9066                 1.7124
 Frc consts  --      1.5748                 1.6258                 1.4953
 IR Inten    --      0.6918                 0.0389                 0.1238

                     61                     62                     63
                      A                      A                      A
 Frequencies --   1230.7186              1232.4635              1250.3103
 Red. masses --      1.4950                 1.4289                 1.4780
 Frc consts  --      1.3342                 1.2788                 1.3613
 IR Inten    --      1.1942                 8.9813                 0.3781

                     64                     65                     66
                      A                      A                      A
 Frequencies --   1268.0612              1272.0013              1288.4586
 Red. masses --      1.3822                 1.3114                 1.3273
 Frc consts  --      1.3095                 1.2502                 1.2982
 IR Inten    --      1.8902                 0.3775                 0.9859

                     67                     68                     69
                      A                      A                      A
 Frequencies --   1301.3120              1310.9715              1316.9865
 Red. masses --      1.2997                 1.2909                 1.2342
 Frc consts  --      1.2968                 1.3071                 1.2612
 IR Inten    --     10.5500                 1.8945                 0.6808

                     70                     71                     72
                      A                      A                      A
 Frequencies --   1323.8387              1328.2663              1330.6209
 Red. masses --      1.0292                 1.1102                 1.0875
 Frc consts  --      1.0627                 1.1541                 1.1344
 IR Inten    --      0.1023                 1.3806                 0.3237

                     73                     74                     75
                      A                      A                      A
 Frequencies --   1336.3787              1338.7645              1346.5122
 Red. masses --      1.1256                 1.0970                 1.3032
 Frc consts  --      1.1844                 1.1584                 1.3922
 IR Inten    --      0.0713                 0.1116                 1.0547

                     76                     77                     78
                      A                      A                      A
 Frequencies --   1363.5169              1381.2136              1391.6229
 Red. masses --      1.3361                 1.4377                 1.5307
 Frc consts  --      1.4636                 1.6160                 1.7465
 IR Inten    --      2.7563                 1.2200                 0.6588

                     79                     80                     81
                      A                      A                      A
 Frequencies --   1397.2189              1401.4343              1402.7108
 Red. masses --      1.5959                 1.6129                 1.6054
 Frc consts  --      1.8356                 1.8664                 1.8611
 IR Inten    --      0.5153                 0.2065                 1.2074

                     82                     83                     84
                      A                      A                      A
 Frequencies --   1411.6307              1413.2542              1443.7329
 Red. masses --      1.2375                 1.2598                 1.5896
 Frc consts  --      1.4529                 1.4825                 1.9522
 IR Inten    --      0.4483                 0.4392                 0.0077

                     85                     86                     87
                      A                      A                      A
 Frequencies --   1480.0165              1481.3461              1481.6071
 Red. masses --      1.0769                 1.0740                 1.0773
 Frc consts  --      1.3898                 1.3885                 1.3934
 IR Inten    --      0.6873                 0.3406                 0.7992

                     88                     89                     90
                      A                      A                      A
 Frequencies --   1483.1785              1484.6387              1489.2020
 Red. masses --      1.0773                 1.0697                 1.0825
 Frc consts  --      1.3963                 1.3892                 1.4145
 IR Inten    --      0.4272                 0.2043                 0.2800

                     91                     92                     93
                      A                      A                      A
 Frequencies --   1493.1760              1496.5812              1499.0506
 Red. masses --      1.0768                 1.1128                 1.1907
 Frc consts  --      1.4145                 1.4685                 1.5765
 IR Inten    --      0.9792                 0.4718                 3.0399

                     94                     95                     96
                      A                      A                      A
 Frequencies --   1499.8394              1500.5645              1504.8805
 Red. masses --      1.0403                 1.2249                 1.0938
 Frc consts  --      1.3788                 1.6250                 1.4595
 IR Inten    --      4.8176                 2.4189                 0.9403

                     97                     98                     99
                      A                      A                      A
 Frequencies --   1510.2513              1511.6401              1516.3170
 Red. masses --      1.0834                 1.0933                 1.0972
 Frc consts  --      1.4559                 1.4720                 1.4864
 IR Inten    --      3.2020                 0.0323                 3.9861

                    100                    101                    102
                      A                      A                      A
 Frequencies --   2996.8305              2997.4435              2998.9131
 Red. masses --      1.0573                 1.0577                 1.0578
 Frc consts  --      5.5947                 5.5992                 5.6049
 IR Inten    --      0.8461                 0.3544                 2.7595

                    103                    104                    105
                      A                      A                      A
 Frequencies --   2999.9150              3000.8688              3001.9026
 Red. masses --      1.0585                 1.0581                 1.0592
 Frc consts  --      5.6127                 5.6139                 5.6236
 IR Inten    --     21.0070                 3.3862                 5.9028

                    106                    107                    108
                      A                      A                      A
 Frequencies --   3007.8455              3013.2756              3016.2125
 Red. masses --      1.0604                 1.0614                 1.0626
 Frc consts  --      5.6525                 5.6781                 5.6954
 IR Inten    --      1.2463                29.6374                57.9595

                    109                    110                    111
                      A                      A                      A
 Frequencies --   3016.7131              3017.4296              3019.4866
 Red. masses --      1.0625                 1.0960                 1.0965
 Frc consts  --      5.6968                 5.8793                 5.8899
 IR Inten    --    155.8355                 5.7175                 6.4980

                    112                    113                    114
                      A                      A                      A
 Frequencies --   3024.0190              3027.1159              3027.5667
 Red. masses --      1.0975                 1.0457                 1.0357
 Frc consts  --      5.9134                 5.6455                 5.5935
 IR Inten    --      6.0123                36.4923                40.7843

                    115                    116                    117
                      A                      A                      A
 Frequencies --   3028.2814              3029.2425              3038.0460
 Red. masses --      1.0866                 1.1001                 1.1039
 Frc consts  --      5.8709                 5.9479                 6.0028
 IR Inten    --     12.2715                 1.2302                 0.8846

                    118                    119                    120
                      A                      A                      A
 Frequencies --   3048.7181              3053.5185              3057.9682
 Red. masses --      1.1049                 1.1028                 1.1052
 Frc consts  --      6.0510                 6.0580                 6.0891
 IR Inten    --      7.5296                27.5456                 1.3199

                    121                    122                    123
                      A                      A                      A
 Frequencies --   3064.8310              3093.2806              3093.6353
 Red. masses --      1.1050                 1.1020                 1.1020
 Frc consts  --      6.1154                 6.2128                 6.2141
 IR Inten    --    196.7371                45.3083                65.0133

                    124                    125                    126
                      A                      A                      A
 Frequencies --   3098.9576              3099.3344              3110.7911
 Red. masses --      1.1009                 1.1009                 1.0851
 Frc consts  --      6.2294                 6.2305                 6.1868
 IR Inten    --     39.3496                35.2986                 6.1956

                    127                    128                    129
                      A                      A                      A
 Frequencies --   3117.3417              3121.7660              3204.0552
 Red. masses --      1.0864                 1.0574                 1.1160
 Frc consts  --      6.2201                 6.0715                 6.7500
 IR Inten    --     44.9129                17.3738                15.2289

 - Thermochemistry -
 -------------------
 Temperature   298.150 Kelvin.  Pressure   1.00000 Atm.
 Atom     1 has atomic number  6 and mass  12.00000

 Molecular mass:   210.23475 amu.
 Principal axes and moments of inertia in atomic units:
                           1         2         3
     Eigenvalues --  1620.23758********************
           X            0.99999   0.00382   0.00099
           Y           -0.00382   0.99998   0.00498
           Z           -0.00097  -0.00498   0.99999
 This molecule is an asymmetric top.
 Rotational symmetry number  1.
 Warning -- assumption of classical behavior for rotation
           may cause significant error
 Rotational temperatures (Kelvin)      0.05346     0.00574     0.00527
 Rotational constants (GHZ):           1.11387     0.11955     0.10972
 Zero-point vibrational energy    1105258.6 (Joules/Mol)
                                  264.16315 (Kcal/Mol)
 Warning -- explicit consideration of  26 degrees of freedom as
           vibrations may cause significant error
 Vibrational temperatures:     29.74    39.19    46.40    74.27    93.52
          (Kelvin)            113.41   124.09   139.57   164.35   186.40
                              197.38   225.91   238.96   276.29   297.16
                              352.95   356.56   394.28   410.81   474.31
                              534.74   554.88   619.57   672.08   713.67
                              743.05  1052.02  1053.32  1063.29  1070.98
                             1103.83  1143.16  1173.15  1198.72  1239.91
                             1280.89  1291.25  1301.91  1331.29  1361.39
                             1394.74  1428.53  1447.11  1477.80  1482.58
                             1496.61  1508.41  1521.55  1527.90  1531.88
                             1539.95  1541.51  1564.66  1591.94  1613.78
                             1631.39  1642.87  1725.34  1730.86  1751.54
                             1770.73  1773.24  1798.92  1824.46  1830.13
                             1853.80  1872.30  1886.20  1894.85  1904.71
                             1911.08  1914.47  1922.75  1926.18  1937.33
                             1961.80  1987.26  2002.23  2010.29  2016.35
                             2018.19  2031.02  2033.36  2077.21  2129.41
                             2131.33  2131.70  2133.96  2136.06  2142.63
                             2148.35  2153.25  2156.80  2157.93  2158.98
                             2165.19  2172.91  2174.91  2181.64  4311.77
                             4312.65  4314.77  4316.21  4317.58  4319.07
                             4327.62  4335.43  4339.66  4340.38  4341.41
                             4344.37  4350.89  4355.34  4355.99  4357.02
                             4358.40  4371.07  4386.43  4393.33  4399.73
                             4409.61  4450.54  4451.05  4458.71  4459.25
                             4475.73  4485.16  4491.53  4609.92

 Zero-point correction=                           0.420971 (Hartree/Particle)
 Thermal correction to Energy=                    0.440577
 Thermal correction to Enthalpy=                  0.441521
 Thermal correction to Gibbs Free Energy=         0.369865
 Sum of electronic and zero-point Energies=           -589.294100
 Sum of electronic and thermal Energies=              -589.274494
 Sum of electronic and thermal Enthalpies=            -589.273550
 Sum of electronic and thermal Free Energies=         -589.345205

                     E (Thermal)             CV                S
                      KCal/Mol        Cal/Mol-Kelvin    Cal/Mol-Kelvin
 Total                  276.466             70.739            150.812
 Electronic               0.000              0.000              0.000
 Translational            0.889              2.981             41.933
 Rotational               0.889              2.981             34.352
 Vibrational            274.689             64.777             74.527
 Vibration     1          0.593              1.986              6.568
 Vibration     2          0.593              1.984              6.021
 Vibration     3          0.594              1.983              5.686
 Vibration     4          0.596              1.977              4.754
 Vibration     5          0.597              1.971              4.299
 Vibration     6          0.600              1.963              3.920
 Vibration     7          0.601              1.959              3.743
 Vibration     8          0.603              1.951              3.514
 Vibration     9          0.607              1.938              3.196
 Vibration    10          0.612              1.924              2.953
 Vibration    11          0.614              1.916              2.843
 Vibration    12          0.621              1.895              2.585
 Vibration    13          0.624              1.884              2.479
 Vibration    14          0.634              1.851              2.208
 Vibration    15          0.641              1.831              2.074
 Vibration    16          0.660              1.771              1.764
 Vibration    17          0.661              1.766              1.746
 Vibration    18          0.676              1.721              1.571
 Vibration    19          0.683              1.701              1.500
 Vibration    20          0.712              1.616              1.262
 Vibration    21          0.743              1.530              1.073
 Vibration    22          0.754              1.501              1.017
 Vibration    23          0.792              1.404              0.857
 Vibration    24          0.824              1.323              0.746
 Vibration    25          0.852              1.259              0.668
 Vibration    26          0.871              1.214              0.618

                           ! Non-Optimized Parameters !
 Normal termination of Gaussian 16 at Mon May 22 13:11:06 2023.
