 Gaussian 16, Revision A.03,
 Gaussian 16:  ES64L-G16RevA.03 25-Dec-2016

 -----------------------------
 # opt freq b3lyp/6-31g(2df,p)
 -----------------------------

 -------------------
 Title Card Required
 -------------------
 Symbolic Z-matrix:
 Charge =  0 Multiplicity = 1

 SCF Done:  E(RB3LYP) =  -705.443745095     A.U. after   12 cycles
 SCF Done:  E(RB3LYP) =  -705.461478021     A.U. after   11 cycles
 SCF Done:  E(RB3LYP) =  -705.468082740     A.U. after   10 cycles
 SCF Done:  E(RB3LYP) =  -705.471458037     A.U. after   10 cycles
 SCF Done:  E(RB3LYP) =  -705.472012908     A.U. after    9 cycles
 SCF Done:  E(RB3LYP) =  -705.472474629     A.U. after   10 cycles
 SCF Done:  E(RB3LYP) =  -705.473141412     A.U. after   10 cycles
 SCF Done:  E(RB3LYP) =  -705.473972277     A.U. after   10 cycles
 SCF Done:  E(RB3LYP) =  -705.472856485     A.U. after   11 cycles
 SCF Done:  E(RB3LYP) =  -705.475280278     A.U. after   12 cycles
 SCF Done:  E(RB3LYP) =  -705.475278477     A.U. after   12 cycles
 SCF Done:  E(RB3LYP) =  -705.477452254     A.U. after   10 cycles
 SCF Done:  E(RB3LYP) =  -705.477455358     A.U. after    9 cycles
 SCF Done:  E(RB3LYP) =  -705.477532195     A.U. after    8 cycles
 SCF Done:  E(RB3LYP) =  -705.477534757     A.U. after    7 cycles
 SCF Done:  E(RB3LYP) =  -705.477535321     A.U. after    8 cycles
 SCF Done:  E(RB3LYP) =  -705.477535680     A.U. after    7 cycles
 SCF Done:  E(RB3LYP) =  -705.477535931     A.U. after    6 cycles
 SCF Done:  E(RB3LYP) =  -705.477536062     A.U. after    6 cycles
 Optimization completed.
    -- Stationary point found.
 Normal termination of Gaussian 16 at Tue May 23 08:45:20 2023.

 ----------------------------------------------------------------------
 #N Geom=AllCheck Guess=TCheck SCRF=Check GenChk RB3LYP/6-31G(2df,p) Fr
 eq
 ----------------------------------------------------------------------

 Structure from the checkpoint file:  "CCCCCCCqCCCCCOrCqCrCC.chk"
 -------------------
 Title Card Required
 -------------------
 Charge =  0 Multiplicity = 1

                         Standard orientation:
 ---------------------------------------------------------------------
 Center     Atomic      Atomic             Coordinates (Angstroms)
 Number     Number       Type             X           Y           Z
 ---------------------------------------------------------------------
      1          6           0       -6.336246    2.100198   -0.205151
      2          6           0       -5.589813    0.810136    0.145289
      3          6           0       -4.088094    0.880624   -0.152281
      4          6           0       -3.333194   -0.406651    0.195445
      5          6           0       -1.830813   -0.335360   -0.103437
      6          6           0       -1.090620   -1.634224    0.243812
      7          6           0        0.414132   -1.643428   -0.096912
      8          6           0        1.164324   -0.498438    0.642484
      9          6           0        1.540955    0.699310   -0.239834
     10          6           0        2.249954    1.819619    0.528889
     11          6           0        2.640183    3.011428   -0.351823
     12          6           0        3.358545    4.118537    0.419820
     13          8           0        3.668951    5.247303   -0.382975
     14          6           0        1.092860   -3.017793    0.178531
     15          6           0        0.250125   -4.221620   -0.272363
     16          6           0        2.487485   -3.071893   -0.485872
     17          6           0        3.416147   -4.165637    0.053445
     18          1           0       -7.404689    2.018947    0.018459
     19          1           0       -6.236411    2.338514   -1.270084
     20          1           0       -5.941814    2.951917    0.360383
     21          1           0       -6.029061   -0.029791   -0.409388
     22          1           0       -5.736954    0.578709    1.208716
     23          1           0       -3.648297    1.721753    0.402180
     24          1           0       -3.940350    1.112837   -1.216520
     25          1           0       -3.774657   -1.247234   -0.358185
     26          1           0       -3.480584   -0.637596    1.259916
     27          1           0       -1.400441    0.510504    0.447138
     28          1           0       -1.685444   -0.110014   -1.169489
     29          1           0       -1.590487   -2.451135   -0.287135
     30          1           0       -1.216364   -1.845803    1.316314
     31          1           0        0.499313   -1.464010   -1.180311
     32          1           0        2.080963   -0.886750    1.101897
     33          1           0        0.550882   -0.147224    1.482558
     34          1           0        0.642248    1.103426   -0.722725
     35          1           0        2.189200    0.352790   -1.056866
     36          1           0        3.148411    1.413703    1.014995
     37          1           0        1.599334    2.168213    1.343167
     38          1           0        1.749326    3.439877   -0.827592
     39          1           0        3.291540    2.664796   -1.168172
     40          1           0        4.262303    3.712042    0.903863
     41          1           0        2.712531    4.497128    1.220101
     42          1           0        4.256116    4.952107   -1.086145
     43          1           0        1.234037   -3.097721    1.267640
     44          1           0       -0.030104   -4.131120   -1.329246
     45          1           0       -0.668097   -4.328383    0.309963
     46          1           0        0.809800   -5.154841   -0.161278
     47          1           0        2.991965   -2.106717   -0.367120
     48          1           0        2.350590   -3.205483   -1.568097
     49          1           0        3.594521   -4.035495    1.126908
     50          1           0        4.388207   -4.135954   -0.449333
     51          1           0        3.005274   -5.169278   -0.092962
 ---------------------------------------------------------------------

 SCF Done:  E(RB3LYP) =  -705.477536062     A.U. after    1 cycles

 The electronic state is 1-A.
 Alpha  occ. eigenvalues --  -19.12826 -10.22067 -10.18042 -10.17902 -10.17863
 Alpha  occ. eigenvalues --  -10.17688 -10.17581 -10.17476 -10.17436 -10.17302
 Alpha  occ. eigenvalues --  -10.17281 -10.17252 -10.17213 -10.17088 -10.17046
 Alpha  occ. eigenvalues --  -10.16888 -10.16709  -1.00906  -0.82539  -0.79891
 Alpha  occ. eigenvalues --   -0.79487  -0.77017  -0.74828  -0.72682  -0.70552
 Alpha  occ. eigenvalues --   -0.68201  -0.64535  -0.63615  -0.60524  -0.58969
 Alpha  occ. eigenvalues --   -0.57750  -0.57107  -0.56540  -0.54568  -0.49878
 Alpha  occ. eigenvalues --   -0.47855  -0.47103  -0.45663  -0.45295  -0.44250
 Alpha  occ. eigenvalues --   -0.43742  -0.42606  -0.42263  -0.41606  -0.40765
 Alpha  occ. eigenvalues --   -0.40068  -0.39511  -0.38656  -0.38298  -0.37699
 Alpha  occ. eigenvalues --   -0.36905  -0.36582  -0.35767  -0.35457  -0.34821
 Alpha  occ. eigenvalues --   -0.33895  -0.33411  -0.33164  -0.32806  -0.32347
 Alpha  occ. eigenvalues --   -0.32063  -0.31972  -0.31749  -0.31586  -0.31489
 Alpha  occ. eigenvalues --   -0.30642  -0.29178  -0.28500  -0.25889
 Alpha virt. eigenvalues --    0.07838   0.08192   0.08921   0.09199   0.10104
 Alpha virt. eigenvalues --    0.10403   0.11562   0.11886   0.12261   0.12668
 Alpha virt. eigenvalues --    0.13245   0.13866   0.14127   0.14579   0.15283

 Mulliken charges:
               1
     1  C   -0.379161
     2  C   -0.162514
     3  C   -0.160036
     4  C   -0.179053
     5  C   -0.190082
     6  C   -0.213589
     7  C    0.021984
     8  C   -0.204424
     9  C   -0.181727
    10  C   -0.182894
    11  C   -0.199285
    12  C   -0.055770
    13  O   -0.419472
    14  C    0.035180
    15  C   -0.412492
    16  C   -0.171146
    17  C   -0.390038
    18  H    0.109515
    19  H    0.112441
    20  H    0.112637
    21  H    0.092733
    22  H    0.092728
    23  H    0.089632
    24  H    0.089567
    25  H    0.090369
    26  H    0.090230
    27  H    0.095555
    28  H    0.090040
    29  H    0.094019
    30  H    0.086949
    31  H    0.060136
    32  H    0.089660
    33  H    0.087916
    34  H    0.099715
    35  H    0.092286
    36  H    0.092584
    37  H    0.095514
    38  H    0.104824
    39  H    0.082159
    40  H    0.082609
    41  H    0.109304
    42  H    0.278486
    43  H    0.063663
    44  H    0.109946
    45  H    0.116125
    46  H    0.109188
    47  H    0.094999
    48  H    0.088812
    49  H    0.112741
    50  H    0.109837
    51  H    0.117601
 Sum of Mulliken charges =  -0.00000

 Dipole moment (field-independent basis, Debye):
    X=              0.3292    Y=             -1.5631    Z=             -0.3288  Tot=              1.6308
 Quadrupole moment (field-independent basis, Debye-Ang):
   XX=           -109.1884   YY=           -128.5668   ZZ=           -110.3532
   XY=             -2.8564   XZ=             -2.9052   YZ=             -1.0011

  Exact polarizability: 202.810  -7.045 197.666  -1.406  -0.612 150.173
 Approx polarizability: 247.166  -1.189 246.596  -2.492  -0.207 245.604

                      1                      2                      3
                      A                      A                      A
 Frequencies --     16.3864                31.0891                41.7262
 Red. masses --      4.6556                 2.9861                 1.7876
 Frc consts  --      0.0007                 0.0017                 0.0018
 IR Inten    --      0.1085                 0.1021                 1.0229

                      4                      5                      6
                      A                      A                      A
 Frequencies --     47.2288                51.0284                54.5324
 Red. masses --      2.3505                 2.3137                 2.4410
 Frc consts  --      0.0031                 0.0035                 0.0043
 IR Inten    --      0.1888                 1.0357                 0.5539

                      7                      8                      9
                      A                      A                      A
 Frequencies --     69.2295                73.8822                89.1398
 Red. masses --      2.2394                 3.4304                 2.5011
 Frc consts  --      0.0063                 0.0110                 0.0117
 IR Inten    --      0.1589                 1.0306                 0.2590

                     10                     11                     12
                      A                      A                      A
 Frequencies --    113.4779               125.1713               140.4586
 Red. masses --      2.4811                 2.0986                 2.4198
 Frc consts  --      0.0188                 0.0194                 0.0281
 IR Inten    --      0.0342                 0.8838                 0.0056

                     13                     14                     15
                      A                      A                      A
 Frequencies --    143.7575               153.9139               167.3644
 Red. masses --      1.8024                 2.4095                 2.0323
 Frc consts  --      0.0219                 0.0336                 0.0335
 IR Inten    --      0.8143                 0.9343                 0.2600

                     16                     17                     18
                      A                      A                      A
 Frequencies --    201.3660               209.7260               228.6218
 Red. masses --      2.7972                 1.7535                 3.5870
 Frc consts  --      0.0668                 0.0454                 0.1105
 IR Inten    --      0.1400                 0.1539                 0.7132

                     19                     20                     21
                      A                      A                      A
 Frequencies --    232.3717               247.2295               250.0977
 Red. masses --      1.9209                 1.1254                 1.3474
 Frc consts  --      0.0611                 0.0405                 0.0497
 IR Inten    --      0.9712                 0.0278                 0.0941

                     22                     23                     24
                      A                      A                      A
 Frequencies --    268.3990               304.1422               325.8990
 Red. masses --      2.2757                 1.1638                 2.2319
 Frc consts  --      0.0966                 0.0634                 0.1397
 IR Inten    --      0.7182               105.5618                 3.1560

                     25                     26                     27
                      A                      A                      A
 Frequencies --    335.0638               373.6265               401.2091
 Red. masses --      2.4503                 2.6132                 2.6285
 Frc consts  --      0.1621                 0.2149                 0.2493
 IR Inten    --      0.9191                 3.8496                 0.9649

                     28                     29                     30
                      A                      A                      A
 Frequencies --    417.5236               434.6528               454.7146
 Red. masses --      2.9470                 2.9552                 3.1309
 Frc consts  --      0.3027                 0.3289                 0.3814
 IR Inten    --      0.2074                 0.6685                 5.0061

                     31                     32                     33
                      A                      A                      A
 Frequencies --    518.0126               524.1859               551.8941
 Red. masses --      2.8775                 2.6574                 2.4451
 Frc consts  --      0.4549                 0.4302                 0.4388
 IR Inten    --      2.2902                 0.1420                 0.2193

                     34                     35                     36
                      A                      A                      A
 Frequencies --    729.9314               732.8472               747.1150
 Red. masses --      1.0777                 1.0643                 1.1099
 Frc consts  --      0.3383                 0.3368                 0.3650
 IR Inten    --      4.4156                 3.5468                 0.0210

                     37                     38                     39
                      A                      A                      A
 Frequencies --    756.0708               771.5750               793.9348
 Red. masses --      1.1314                 1.2704                 1.2168
 Frc consts  --      0.3811                 0.4456                 0.4519
 IR Inten    --      0.2900                 1.7819                 1.2098

                     40                     41                     42
                      A                      A                      A
 Frequencies --    822.5888               843.7407               869.5249
 Red. masses --      1.3584                 1.6478                 1.7035
 Frc consts  --      0.5415                 0.6911                 0.7589
 IR Inten    --      0.9278                 0.4404                 0.4417

                     43                     44                     45
                      A                      A                      A
 Frequencies --    897.5622               899.7227               936.6823
 Red. masses --      1.8008                 1.7164                 1.6681
 Frc consts  --      0.8548                 0.8186                 0.8623
 IR Inten    --      1.7934                 0.3625                 2.8031

                     46                     47                     48
                      A                      A                      A
 Frequencies --    962.9762               978.9633               992.9038
 Red. masses --      1.4322                 1.3405                 2.1117
 Frc consts  --      0.7825                 0.7569                 1.2266
 IR Inten    --      1.8950                 2.7883                 5.3415

                     49                     50                     51
                      A                      A                      A
 Frequencies --    994.7494              1004.3660              1006.8091
 Red. masses --      3.0238                 1.5957                 2.4935
 Frc consts  --      1.7629                 0.9484                 1.4892
 IR Inten    --     10.2808                 2.1134                 0.1030

                     52                     53                     54
                      A                      A                      A
 Frequencies --   1029.5837              1034.4174              1048.9522
 Red. masses --      3.1089                 2.8139                 2.4038
 Frc consts  --      1.9417                 1.7740                 1.5583
 IR Inten    --      4.7596                 1.1426                 1.1563

                     55                     56                     57
                      A                      A                      A
 Frequencies --   1056.9822              1064.6402              1066.9778
 Red. masses --      2.5499                 2.2298                 2.1742
 Frc consts  --      1.6785                 1.4891                 1.4584
 IR Inten    --      2.5896                 8.9059                11.7725

                     58                     59                     60
                      A                      A                      A
 Frequencies --   1070.9951              1074.7415              1081.6424
 Red. masses --      2.1832                 1.9763                 3.9672
 Frc consts  --      1.4754                 1.3449                 2.7346
 IR Inten    --      0.0520                 1.9555                92.8613

                     61                     62                     63
                      A                      A                      A
 Frequencies --   1087.4301              1124.4733              1133.5667
 Red. masses --      1.6232                 2.0137                 1.3529
 Frc consts  --      1.1309                 1.5002                 1.0243
 IR Inten    --      3.4878                 1.4215                 6.4426

                     64                     65                     66
                      A                      A                      A
 Frequencies --   1159.3178              1162.9200              1176.7889
 Red. masses --      2.1188                 2.5094                 1.8850
 Frc consts  --      1.6778                 1.9995                 1.5380
 IR Inten    --      2.3498                 0.5822                 4.4085

                     67                     68                     69
                      A                      A                      A
 Frequencies --   1195.5191              1224.5845              1237.8698
 Red. masses --      1.8196                 1.6146                 1.3212
 Frc consts  --      1.5323                 1.4266                 1.1928
 IR Inten    --      0.5853                 1.4962                 1.9717

                     70                     71                     72
                      A                      A                      A
 Frequencies --   1247.3228              1260.1052              1269.7976
 Red. masses --      1.3159                 1.3963                 1.3369
 Frc consts  --      1.2062                 1.3063                 1.2700
 IR Inten    --      5.9770                 6.1087                 0.3799

                     73                     74                     75
                      A                      A                      A
 Frequencies --   1282.3854              1298.8060              1308.4810
 Red. masses --      1.3144                 1.2563                 1.2560
 Frc consts  --      1.2735                 1.2486                 1.2670
 IR Inten    --      0.4813                 1.0393                 3.1624

                     76                     77                     78
                      A                      A                      A
 Frequencies --   1311.4171              1320.6373              1325.6571
 Red. masses --      1.2066                 1.2105                 1.0753
 Frc consts  --      1.2226                 1.2439                 1.1134
 IR Inten    --      5.0117                 2.0773                 0.5416

                     79                     80                     81
                      A                      A                      A
 Frequencies --   1327.4804              1330.0449              1334.9177
 Red. masses --      1.1343                 1.1250                 1.1015
 Frc consts  --      1.1777                 1.1725                 1.1565
 IR Inten    --      0.3009                 1.0502                 1.8638

                     82                     83                     84
                      A                      A                      A
 Frequencies --   1336.6526              1347.7284              1357.4545
 Red. masses --      1.1310                 1.2582                 1.2452
 Frc consts  --      1.1905                 1.3465                 1.3519
 IR Inten    --      0.2372                 1.7773                 2.5356

                     85                     86                     87
                      A                      A                      A
 Frequencies --   1369.7292              1377.9761              1380.3393
 Red. masses --      1.3825                 1.3850                 1.4038
 Frc consts  --      1.5282                 1.5494                 1.5759
 IR Inten    --      1.6564                 0.9219                 1.5022

                     88                     89                     90
                      A                      A                      A
 Frequencies --   1387.4264              1393.2934              1400.2183
 Red. masses --      1.4142                 1.4618                 1.5884
 Frc consts  --      1.6039                 1.6720                 1.8349
 IR Inten    --      0.4204                 5.8994                 2.0068

                     91                     92                     93
                      A                      A                      A
 Frequencies --   1402.1986              1402.5873              1408.0064
 Red. masses --      1.4388                 1.5341                 1.2686
 Frc consts  --      1.6668                 1.7781                 1.4817
 IR Inten    --      1.5341                 3.1335                 3.1497

                     94                     95                     96
                      A                      A                      A
 Frequencies --   1413.1529              1416.4260              1424.1452
 Red. masses --      1.2516                 1.2166                 1.2947
 Frc consts  --      1.4726                 1.4380                 1.5471
 IR Inten    --      0.7515                 0.8595                55.2855

                     97                     98                     99
                      A                      A                      A
 Frequencies --   1478.3429              1481.5268              1482.5931
 Red. masses --      1.0754                 1.0696                 1.0729
 Frc consts  --      1.3847                 1.3833                 1.3895
 IR Inten    --      0.6447                 1.3466                 0.4714

                    100                    101                    102
                      A                      A                      A
 Frequencies --   1484.1690              1486.1389              1487.5417
 Red. masses --      1.0725                 1.0718                 1.0797
 Frc consts  --      1.3920                 1.3947                 1.4077
 IR Inten    --      0.1839                 0.4903                 1.9515

                    103                    104                    105
                      A                      A                      A
 Frequencies --   1495.1165              1495.5935              1498.4204
 Red. masses --      1.0447                 1.0731                 1.0768
 Frc consts  --      1.3760                 1.4143                 1.4245
 IR Inten    --      1.9054                 1.3115                 0.1503

                    106                    107                    108
                      A                      A                      A
 Frequencies --   1499.7379              1501.4114              1505.5190
 Red. masses --      1.0403                 1.0613                 1.0758
 Frc consts  --      1.3786                 1.4096                 1.4367
 IR Inten    --      4.9729                 2.4786                 3.7141

                    109                    110                    111
                      A                      A                      A
 Frequencies --   1507.5232              1512.7505              1515.4631
 Red. masses --      1.0701                 1.0810                 1.0916
 Frc consts  --      1.4329                 1.4575                 1.4771
 IR Inten    --      3.6369                 2.4408                 3.8676

                    112                    113                    114
                      A                      A                      A
 Frequencies --   1517.2296              1519.1517              2964.6854
 Red. masses --      1.0613                 1.0925                 1.0709
 Frc consts  --      1.4394                 1.4855                 5.5459
 IR Inten    --      2.3318                 3.6665                52.1328

                    115                    116                    117
                      A                      A                      A
 Frequencies --   2970.8638              2984.0395              2996.2043
 Red. masses --      1.0794                 1.0813                 1.0640
 Frc consts  --      5.6131                 5.6727                 5.6276
 IR Inten    --      0.6245                11.7585                 6.4123

                    118                    119                    120
                      A                      A                      A
 Frequencies --   2996.7942              2999.0932              3000.9531
 Red. masses --      1.0633                 1.0608                 1.0598
 Frc consts  --      5.6264                 5.6215                 5.6236
 IR Inten    --      7.9288                 1.8143                 2.1482

                    121                    122                    123
                      A                      A                      A
 Frequencies --   3002.1564              3008.9522              3010.2731
 Red. masses --      1.0601                 1.0649                 1.0633
 Frc consts  --      5.6294                 5.6803                 5.6772
 IR Inten    --     13.5428                 9.6361                10.2258

                    124                    125                    126
                      A                      A                      A
 Frequencies --   3014.1479              3016.0274              3019.8651
 Red. masses --      1.0659                 1.0620                 1.0957
 Frc consts  --      5.7058                 5.6918                 5.8876
 IR Inten    --     15.3094               104.8783                 8.8146

                    127                    128                    129
                      A                      A                      A
 Frequencies --   3021.8409              3027.7462              3029.0050
 Red. masses --      1.0684                 1.0358                 1.0842
 Frc consts  --      5.7484                 5.5946                 5.8607
 IR Inten    --     59.4716                40.3521                26.2611

                    130                    131                    132
                      A                      A                      A
 Frequencies --   3029.3165              3031.6912              3032.0715
 Red. masses --      1.0443                 1.0911                 1.0435
 Frc consts  --      5.6464                 5.9087                 5.6523
 IR Inten    --     39.6067                 7.8154                25.4025

                    133                    134                    135
                      A                      A                      A
 Frequencies --   3040.0243              3046.1411              3050.9564
 Red. masses --      1.0965                 1.0992                 1.0923
 Frc consts  --      5.9706                 6.0095                 5.9904
 IR Inten    --      3.1589                 2.3615                11.0357

                    136                    137                    138
                      A                      A                      A
 Frequencies --   3057.7201              3058.1565              3064.7049
 Red. masses --      1.1019                 1.0947                 1.0986
 Frc consts  --      6.0698                 6.0323                 6.0793
 IR Inten    --     33.1519                18.7480                35.4748

                    139                    140                    141
                      A                      A                      A
 Frequencies --   3072.9613              3074.6355              3093.8643
 Red. masses --      1.0999                 1.0996                 1.1020
 Frc consts  --      6.1196                 6.1246                 6.2150
 IR Inten    --     89.9577               120.5220                57.9859

                    142                    143                    144
                      A                      A                      A
 Frequencies --   3095.5765              3095.7600              3099.2456
 Red. masses --      1.1010                 1.0967                 1.1010
 Frc consts  --      6.2159                 6.1928                 6.2306
 IR Inten    --     40.8777                33.8423                40.0691

                    145                    146                    147
                      A                      A                      A
 Frequencies --   3105.6972              3115.7527              3814.3567
 Red. masses --      1.0988                 1.0996                 1.0661
 Frc consts  --      6.2442                 6.2894                 9.1385
 IR Inten    --     56.0392                30.8315                14.4681

 - Thermochemistry -
 -------------------
 Temperature   298.150 Kelvin.  Pressure   1.00000 Atm.
 Atom     1 has atomic number  6 and mass  12.00000

 Molecular mass:   242.26097 amu.
 Principal axes and moments of inertia in atomic units:
                           1         2         3
     Eigenvalues --  6807.386058847.90193**********
           X            0.99701  -0.07726   0.00093
           Y            0.07726   0.99701   0.00125
           Z           -0.00102  -0.00117   1.00000
 This molecule is an asymmetric top.
 Rotational symmetry number  1.
 Warning -- assumption of classical behavior for rotation
           may cause significant error
 Rotational temperatures (Kelvin)      0.01272     0.00979     0.00567
 Rotational constants (GHZ):           0.26512     0.20397     0.11821
 Zero-point vibrational energy    1251978.6 (Joules/Mol)
                                  299.23008 (Kcal/Mol)
 Warning -- explicit consideration of  33 degrees of freedom as
           vibrations may cause significant error
 Vibrational temperatures:     23.58    44.73    60.03    67.95    73.42
          (Kelvin)             78.46    99.61   106.30   128.25   163.27
                              180.09   202.09   206.83   221.45   240.80
                              289.72   301.75   328.94   334.33   355.71
                              359.83   386.17   437.59   468.90   482.08
                              537.57   577.25   600.72   625.37   654.23
                              745.30   754.19   794.05  1050.21  1054.40
                             1074.93  1087.82  1110.12  1142.30  1183.52
                             1213.95  1251.05  1291.39  1294.50  1347.68
                             1385.51  1408.51  1428.57  1431.22  1445.06
                             1448.57  1481.34  1488.30  1509.21  1520.76
                             1531.78  1535.14  1540.92  1546.31  1556.24
                             1564.57  1617.87  1630.95  1668.00  1673.18
                             1693.14  1720.09  1761.90  1781.02  1794.62
                             1813.01  1826.96  1845.07  1868.69  1882.61
                             1886.84  1900.10  1907.32  1909.95  1913.64
                             1920.65  1923.14  1939.08  1953.07  1970.73
                             1982.60  1986.00  1996.20  2004.64  2014.60
                             2017.45  2018.01  2025.81  2033.21  2037.92
                             2049.03  2127.01  2131.59  2133.12  2135.39
                             2138.22  2140.24  2151.14  2151.83  2155.89
                             2157.79  2160.20  2166.11  2168.99  2176.51
                             2180.41  2182.96  2185.72  4265.52  4274.41
                             4293.37  4310.87  4311.72  4315.03  4317.70
                             4319.43  4329.21  4331.11  4336.69  4339.39
                             4344.91  4347.76  4356.25  4358.06  4358.51
                             4361.93  4362.47  4373.92  4382.72  4389.65
                             4399.38  4400.01  4409.43  4421.31  4423.71
                             4451.38  4453.84  4454.11  4459.12  4468.41
                             4482.87  5488.01

 Zero-point correction=                           0.476853 (Hartree/Particle)
 Thermal correction to Energy=                    0.499867
 Thermal correction to Enthalpy=                  0.500811
 Thermal correction to Gibbs Free Energy=         0.421587
 Sum of electronic and zero-point Energies=           -705.000683
 Sum of electronic and thermal Energies=              -704.977669
 Sum of electronic and thermal Enthalpies=            -704.976725
 Sum of electronic and thermal Free Energies=         -705.055949

                     E (Thermal)             CV                S
                      KCal/Mol        Cal/Mol-Kelvin    Cal/Mol-Kelvin
 Total                  313.671             82.867            166.742
 Electronic               0.000              0.000              0.000
 Translational            0.889              2.981             42.356
 Rotational               0.889              2.981             35.174
 Vibrational            311.894             76.905             89.212
 Vibration     1          0.593              1.986              7.030
 Vibration     2          0.594              1.983              5.759
 Vibration     3          0.594              1.981              5.175
 Vibration     4          0.595              1.979              4.930
 Vibration     5          0.595              1.977              4.777
 Vibration     6          0.596              1.976              4.646
 Vibration     7          0.598              1.969              4.175
 Vibration     8          0.599              1.966              4.047
 Vibration     9          0.602              1.957              3.679
 Vibration    10          0.607              1.938              3.209
 Vibration    11          0.610              1.928              3.019
 Vibration    12          0.615              1.913              2.798
 Vibration    13          0.616              1.909              2.753
 Vibration    14          0.619              1.898              2.623
 Vibration    15          0.624              1.883              2.465
 Vibration    16          0.638              1.838              2.121
 Vibration    17          0.642              1.826              2.046
 Vibration    18          0.651              1.797              1.890
 Vibration    19          0.653              1.791              1.861
 Vibration    20          0.661              1.767              1.750
 Vibration    21          0.663              1.763              1.730
 Vibration    22          0.673              1.731              1.606
 Vibration    23          0.695              1.666              1.394
 Vibration    24          0.710              1.624              1.280
 Vibration    25          0.716              1.605              1.236
 Vibration    26          0.745              1.526              1.065
 Vibration    27          0.767              1.468              0.958
 Vibration    28          0.781              1.432              0.900
 Vibration    29          0.795              1.395              0.844
 Vibration    30          0.813              1.350              0.782
 Vibration    31          0.873              1.210              0.615
 Vibration    32          0.879              1.196              0.600
 Vibration    33          0.907              1.136              0.540

                           ! Non-Optimized Parameters !
 Normal termination of Gaussian 16 at Tue May 23 14:15:13 2023.
