 Gaussian 16, Revision A.03,
 Gaussian 16:  ES64L-G16RevA.03 25-Dec-2016

 -----------------------------
 # opt freq b3lyp/6-31g(2df,p)
 -----------------------------

 -------------------
 Title Card Required
 -------------------
 Symbolic Z-matrix:
 Charge =  0 Multiplicity = 1

 SCF Done:  E(RB3LYP) =  -627.736300086     A.U. after   12 cycles
 SCF Done:  E(RB3LYP) =  -627.769613957     A.U. after   11 cycles
 SCF Done:  E(RB3LYP) =  -627.788842786     A.U. after   11 cycles
 SCF Done:  E(RB3LYP) =  -627.795432434     A.U. after   10 cycles
 SCF Done:  E(RB3LYP) =  -627.798902300     A.U. after   10 cycles
 SCF Done:  E(RB3LYP) =  -627.800376609     A.U. after   10 cycles
 SCF Done:  E(RB3LYP) =  -627.800682599     A.U. after   10 cycles
 SCF Done:  E(RB3LYP) =  -627.801421364     A.U. after   10 cycles
 SCF Done:  E(RB3LYP) =  -627.801635838     A.U. after    9 cycles
 SCF Done:  E(RB3LYP) =  -627.801682162     A.U. after    9 cycles
 SCF Done:  E(RB3LYP) =  -627.801704955     A.U. after    8 cycles
 SCF Done:  E(RB3LYP) =  -627.801710549     A.U. after    8 cycles
 SCF Done:  E(RB3LYP) =  -627.801711801     A.U. after    7 cycles
 SCF Done:  E(RB3LYP) =  -627.801712458     A.U. after    7 cycles
 SCF Done:  E(RB3LYP) =  -627.801712884     A.U. after    7 cycles
 SCF Done:  E(RB3LYP) =  -627.801713164     A.U. after    7 cycles
 SCF Done:  E(RB3LYP) =  -627.801713209     A.U. after    6 cycles
 Optimization completed.
    -- Stationary point found.
 Normal termination of Gaussian 16 at Tue May 23 11:14:37 2023.

 ----------------------------------------------------------------------
 #N Geom=AllCheck Guess=TCheck SCRF=Check GenChk RB3LYP/6-31G(2df,p) Fr
 eq
 ----------------------------------------------------------------------

 Structure from the checkpoint file:  "CCCC1CdCCCqCqCrCCrCCqCrC1.chk"
 -------------------
 Title Card Required
 -------------------
 Charge =  0 Multiplicity = 1

                         Standard orientation:
 ---------------------------------------------------------------------
 Center     Atomic      Atomic             Coordinates (Angstroms)
 Number     Number       Type             X           Y           Z
 ---------------------------------------------------------------------
      1          6           0        4.709823   -1.063021   -1.314779
      2          6           0        3.387552   -0.380176   -0.949834
      3          6           0        3.356338    0.066454    0.518946
      4          6           0        2.097226    0.824771    1.040808
      5          6           0        1.691994    1.912210    0.070005
      6          6           0        0.498172    2.364207   -0.322052
      7          6           0       -0.883952    1.913295    0.087181
      8          6           0       -1.401837    0.613323   -0.593097
      9          6           0       -2.793658    0.207604   -0.019413
     10          6           0       -3.825465    1.335566   -0.198820
     11          6           0       -3.318065   -1.110492   -0.630976
     12          6           0       -4.660936   -1.599584   -0.073315
     13          6           0       -0.345367   -0.514114   -0.567234
     14          6           0        0.110164   -1.036064    0.813181
     15          6           0        0.769016   -2.421414    0.679124
     16          6           0        0.978066   -0.058023    1.656240
     17          1           0        4.728518   -1.360490   -2.368005
     18          1           0        4.871831   -1.963891   -0.711911
     19          1           0        5.561883   -0.395680   -1.141994
     20          1           0        2.559941   -1.060786   -1.169794
     21          1           0        3.236396    0.490155   -1.598790
     22          1           0        4.221365    0.727066    0.670286
     23          1           0        3.531790   -0.800016    1.169600
     24          1           0        2.478381    1.369341    1.920952
     25          1           0        2.555616    2.428482   -0.351645
     26          1           0        0.511696    3.182453   -1.040581
     27          1           0       -1.572557    2.727444   -0.151295
     28          1           0       -0.943605    1.787537    1.172774
     29          1           0       -1.558381    0.847908   -1.657419
     30          1           0       -2.675909    0.040813    1.062323
     31          1           0       -3.950652    1.584440   -1.260276
     32          1           0       -3.537385    2.248590    0.326343
     33          1           0       -4.804260    1.044419    0.190031
     34          1           0       -2.582661   -1.902824   -0.463722
     35          1           0       -3.396044   -0.994322   -1.721433
     36          1           0       -4.634855   -1.664664    1.020774
     37          1           0       -4.894032   -2.598127   -0.456765
     38          1           0       -5.493199   -0.945273   -0.347029
     39          1           0        0.526843   -0.166939   -1.126335
     40          1           0       -0.731915   -1.362749   -1.140130
     41          1           0       -0.792949   -1.203279    1.416548
     42          1           0        1.682266   -2.396519    0.078405
     43          1           0        0.085467   -3.132338    0.202176
     44          1           0        1.033158   -2.824788    1.662763
     45          1           0        1.457880   -0.654307    2.443893
     46          1           0        0.310951    0.621095    2.194464
 ---------------------------------------------------------------------

 SCF Done:  E(RB3LYP) =  -627.801713209     A.U. after    1 cycles

 The electronic state is 1-A.
 Alpha  occ. eigenvalues --  -10.18645 -10.18026 -10.18020 -10.17931 -10.17458
 Alpha  occ. eigenvalues --  -10.17305 -10.17275 -10.17257 -10.17238 -10.17185
 Alpha  occ. eigenvalues --  -10.17000 -10.16916 -10.16893 -10.16615 -10.16593
 Alpha  occ. eigenvalues --  -10.16370  -0.83095  -0.80745  -0.77996  -0.77263
 Alpha  occ. eigenvalues --   -0.75133  -0.71912  -0.69903  -0.67807  -0.66840
 Alpha  occ. eigenvalues --   -0.63801  -0.61867  -0.58664  -0.57184  -0.56116
 Alpha  occ. eigenvalues --   -0.53496  -0.49258  -0.47422  -0.46678  -0.45915
 Alpha  occ. eigenvalues --   -0.44992  -0.43727  -0.42799  -0.42089  -0.41427
 Alpha  occ. eigenvalues --   -0.40965  -0.40535  -0.40281  -0.38955  -0.38394
 Alpha  occ. eigenvalues --   -0.37295  -0.36686  -0.36297  -0.35516  -0.35319
 Alpha  occ. eigenvalues --   -0.34629  -0.34498  -0.33469  -0.33094  -0.32323
 Alpha  occ. eigenvalues --   -0.31881  -0.31170  -0.30856  -0.30208  -0.29625
 Alpha  occ. eigenvalues --   -0.28644  -0.28312  -0.23014
 Alpha virt. eigenvalues --    0.02673   0.06718   0.09136   0.09327   0.10289
 Alpha virt. eigenvalues --    0.10920   0.12006   0.12462   0.12678   0.13733
 Alpha virt. eigenvalues --    0.14223   0.15298   0.15382   0.15599   0.15811

 Mulliken charges:
               1
     1  C   -0.384119
     2  C   -0.156663
     3  C   -0.185186
     4  C   -0.054049
     5  C   -0.011843
     6  C   -0.109402
     7  C   -0.277380
     8  C    0.011051
     9  C    0.047241
    10  C   -0.404452
    11  C   -0.180997
    12  C   -0.393686
    13  C   -0.233210
    14  C    0.050270
    15  C   -0.412389
    16  C   -0.250937
    17  H    0.109554
    18  H    0.113109
    19  H    0.111868
    20  H    0.106793
    21  H    0.095491
    22  H    0.091167
    23  H    0.089234
    24  H    0.088364
    25  H    0.077050
    26  H    0.079165
    27  H    0.096381
    28  H    0.103678
    29  H    0.061549
    30  H    0.066984
    31  H    0.108017
    32  H    0.116147
    33  H    0.111791
    34  H    0.100708
    35  H    0.089862
    36  H    0.111382
    37  H    0.109465
    38  H    0.118420
    39  H    0.108072
    40  H    0.087593
    41  H    0.071663
    42  H    0.125172
    43  H    0.107919
    44  H    0.105714
    45  H    0.084126
    46  H    0.099311
 Sum of Mulliken charges =  -0.00000

 Dipole moment (field-independent basis, Debye):
    X=             -0.0465    Y=             -0.0959    Z=              0.1777  Tot=              0.2072
 Quadrupole moment (field-independent basis, Debye-Ang):
   XX=           -104.4011   YY=           -105.4784   ZZ=           -103.9194
   XY=              0.4059   XZ=              0.6767   YZ=             -0.7132

  Exact polarizability: 209.833  -2.601 164.460   3.267  -4.592 142.789
 Approx polarizability: 263.162  -6.328 235.665   8.266  -8.185 231.055

                      1                      2                      3
                      A                      A                      A
 Frequencies --     30.9946                33.1339                61.4470
 Red. masses --      2.4978                 3.0716                 2.5802
 Frc consts  --      0.0014                 0.0020                 0.0057
 IR Inten    --      0.0012                 0.0063                 0.0065

                      4                      5                      6
                      A                      A                      A
 Frequencies --     66.7952                94.6342               101.6970
 Red. masses --      2.1993                 2.4459                 2.5681
 Frc consts  --      0.0058                 0.0129                 0.0156
 IR Inten    --      0.0147                 0.0049                 0.0030

                      7                      8                      9
                      A                      A                      A
 Frequencies --    137.2898               171.2453               187.5754
 Red. masses --      2.3688                 2.3160                 1.8566
 Frc consts  --      0.0263                 0.0400                 0.0385
 IR Inten    --      0.1705                 0.0625                 0.0375

                     10                     11                     12
                      A                      A                      A
 Frequencies --    192.2979               204.7901               218.6471
 Red. masses --      1.7441                 1.2067                 1.6052
 Frc consts  --      0.0380                 0.0298                 0.0452
 IR Inten    --      0.0178                 0.0508                 0.0505

                     13                     14                     15
                      A                      A                      A
 Frequencies --    233.5313               248.7259               253.6491
 Red. masses --      1.8689                 1.6011                 1.4897
 Frc consts  --      0.0601                 0.0584                 0.0565
 IR Inten    --      0.0022                 0.1842                 0.0151

                     16                     17                     18
                      A                      A                      A
 Frequencies --    282.2469               287.5910               319.7714
 Red. masses --      2.7693                 2.5450                 2.7509
 Frc consts  --      0.1300                 0.1240                 0.1657
 IR Inten    --      0.1272                 0.2459                 0.2582

                     19                     20                     21
                      A                      A                      A
 Frequencies --    350.7530               352.5634               361.9090
 Red. masses --      2.6754                 2.3876                 2.0448
 Frc consts  --      0.1939                 0.1749                 0.1578
 IR Inten    --      0.0203                 0.1524                 0.1403

                     22                     23                     24
                      A                      A                      A
 Frequencies --    385.7331               397.9676               434.7156
 Red. masses --      2.3768                 2.9557                 1.9875
 Frc consts  --      0.2084                 0.2758                 0.2213
 IR Inten    --      0.5798                 0.3235                 0.0377

                     25                     26                     27
                      A                      A                      A
 Frequencies --    448.3436               485.3244               563.5618
 Red. masses --      2.3916                 2.0773                 2.7999
 Frc consts  --      0.2832                 0.2883                 0.5239
 IR Inten    --      0.1038                 2.8262                 0.5855

                     28                     29                     30
                      A                      A                      A
 Frequencies --    594.5640               633.1095               665.8126
 Red. masses --      2.0591                 2.8953                 3.0567
 Frc consts  --      0.4289                 0.6838                 0.7984
 IR Inten    --      1.8144                 1.6652                 1.7645

                     31                     32                     33
                      A                      A                      A
 Frequencies --    737.0176               742.1904               769.4050
 Red. masses --      1.2163                 1.7905                 1.7048
 Frc consts  --      0.3893                 0.5811                 0.5946
 IR Inten    --      2.9359                 6.2721                 1.9012

                     34                     35                     36
                      A                      A                      A
 Frequencies --    790.2462               793.8667               822.7389
 Red. masses --      2.0835                 1.8740                 1.9258
 Frc consts  --      0.7666                 0.6959                 0.7681
 IR Inten    --      8.2817                 2.7225                 1.4208

                     37                     38                     39
                      A                      A                      A
 Frequencies --    850.5025               861.3711               872.7129
 Red. masses --      2.3790                 1.4061                 1.7748
 Frc consts  --      1.0139                 0.6147                 0.7964
 IR Inten    --      3.0159                 0.7710                 4.4810

                     40                     41                     42
                      A                      A                      A
 Frequencies --    890.0489               905.0351               925.5739
 Red. masses --      2.0171                 1.8562                 1.5769
 Frc consts  --      0.9415                 0.8958                 0.7959
 IR Inten    --      3.8546                 0.3360                 2.9613

                     43                     44                     45
                      A                      A                      A
 Frequencies --    957.3940               964.1744               980.7285
 Red. masses --      1.7694                 1.7291                 1.5484
 Frc consts  --      0.9555                 0.9471                 0.8774
 IR Inten    --      0.6731                 0.7394                 2.8734

                     46                     47                     48
                      A                      A                      A
 Frequencies --    992.7937              1003.1593              1021.0536
 Red. masses --      1.7885                 1.8934                 1.3705
 Frc consts  --      1.0386                 1.1226                 0.8418
 IR Inten    --      2.7827                 0.6043                 0.0539

                     49                     50                     51
                      A                      A                      A
 Frequencies --   1024.0780              1040.6418              1054.5266
 Red. masses --      2.3236                 2.3505                 1.7595
 Frc consts  --      1.4357                 1.4997                 1.1528
 IR Inten    --      3.5120                 1.6129                 0.5991

                     52                     53                     54
                      A                      A                      A
 Frequencies --   1057.4475              1066.4401              1094.0683
 Red. masses --      2.0636                 1.7116                 2.1145
 Frc consts  --      1.3595                 1.1469                 1.4912
 IR Inten    --      0.2934                 1.1956                 0.1495

                     55                     56                     57
                      A                      A                      A
 Frequencies --   1103.4485              1116.6483              1145.1183
 Red. masses --      2.1037                 2.0818                 1.7723
 Frc consts  --      1.5092                 1.5294                 1.3692
 IR Inten    --      2.6294                 1.3586                 3.0229

                     58                     59                     60
                      A                      A                      A
 Frequencies --   1151.2553              1165.5577              1171.2641
 Red. masses --      2.2895                 1.9540                 1.7370
 Frc consts  --      1.7878                 1.5640                 1.4040
 IR Inten    --      1.8381                 0.5910                 4.2778

                     61                     62                     63
                      A                      A                      A
 Frequencies --   1180.4407              1216.2362              1243.8822
 Red. masses --      1.9146                 1.3079                 1.3312
 Frc consts  --      1.5719                 1.1399                 1.2135
 IR Inten    --      3.5795                 5.7582                 8.4200

                     64                     65                     66
                      A                      A                      A
 Frequencies --   1259.8789              1268.6859              1275.4942
 Red. masses --      1.2846                 1.3052                 1.2304
 Frc consts  --      1.2013                 1.2378                 1.1794
 IR Inten    --      3.8207                 1.0226                 0.2653

                     67                     68                     69
                      A                      A                      A
 Frequencies --   1292.4309              1306.2314              1314.9171
 Red. masses --      1.1832                 1.2592                 1.2111
 Frc consts  --      1.1645                 1.2659                 1.2337
 IR Inten    --      1.5701                 2.0584                 1.0342

                     70                     71                     72
                      A                      A                      A
 Frequencies --   1326.1436              1327.8701              1337.2459
 Red. masses --      1.2469                 1.2530                 1.2476
 Frc consts  --      1.2920                 1.3017                 1.3144
 IR Inten    --      0.1362                 0.8711                 1.0636

                     73                     74                     75
                      A                      A                      A
 Frequencies --   1342.8738              1354.1268              1354.8584
 Red. masses --      1.3233                 1.2443                 1.2628
 Frc consts  --      1.4059                 1.3443                 1.3657
 IR Inten    --      4.3596                 7.2958                 0.4573

                     76                     77                     78
                      A                      A                      A
 Frequencies --   1366.6804              1376.1925              1382.9258
 Red. masses --      1.3161                 1.4339                 1.4417
 Frc consts  --      1.4483                 1.6000                 1.6246
 IR Inten    --      1.1263                 0.7205                 0.4558

                     79                     80                     81
                      A                      A                      A
 Frequencies --   1390.8878              1394.3936              1397.4553
 Red. masses --      1.3490                 1.3613                 1.4392
 Frc consts  --      1.5376                 1.5594                 1.6559
 IR Inten    --      2.0058                 1.2271                 2.3283

                     82                     83                     84
                      A                      A                      A
 Frequencies --   1402.6790              1408.8740              1412.7408
 Red. masses --      1.3394                 1.2598                 1.2335
 Frc consts  --      1.5526                 1.4733                 1.4505
 IR Inten    --      2.1691                 2.4247                 1.1189

                     85                     86                     87
                      A                      A                      A
 Frequencies --   1414.6703              1420.9587              1438.8423
 Red. masses --      1.2137                 1.2708                 1.3783
 Frc consts  --      1.4311                 1.5117                 1.6811
 IR Inten    --      1.6023                 5.3577                 3.4075

                     88                     89                     90
                      A                      A                      A
 Frequencies --   1476.1359              1482.1703              1485.3884
 Red. masses --      1.0836                 1.0680                 1.0951
 Frc consts  --      1.3912                 1.3823                 1.4236
 IR Inten    --      0.9203                 0.3360                 5.0881

                     91                     92                     93
                      A                      A                      A
 Frequencies --   1490.5619              1495.9480              1496.8601
 Red. masses --      1.0575                 1.0517                 1.0590
 Frc consts  --      1.3843                 1.3867                 1.3980
 IR Inten    --      1.3748                 6.1039                 1.5422

                     94                     95                     96
                      A                      A                      A
 Frequencies --   1499.0371              1499.2722              1500.7303
 Red. masses --      1.0442                 1.0467                 1.0524
 Frc consts  --      1.3825                 1.3863                 1.3965
 IR Inten    --      5.2968                 1.7289                 0.4625

                     97                     98                     99
                      A                      A                      A
 Frequencies --   1505.2897              1507.8078              1513.6363
 Red. masses --      1.0626                 1.0693                 1.0824
 Frc consts  --      1.4187                 1.4323                 1.4611
 IR Inten    --      8.7359                 4.3611                 2.3297

                    100                    101                    102
                      A                      A                      A
 Frequencies --   1516.8616              1523.4842              1724.3140
 Red. masses --      1.0761                 1.0525                 7.2935
 Frc consts  --      1.4589                 1.4393                12.7767
 IR Inten    --      9.1664                 2.4231                 1.6625

                    103                    104                    105
                      A                      A                      A
 Frequencies --   2947.9846              2974.6073              2986.8765
 Red. masses --      1.0808                 1.0796                 1.0828
 Frc consts  --      5.5339                 5.6284                 5.6917
 IR Inten    --     18.7605                 3.1822                32.4472

                    106                    107                    108
                      A                      A                      A
 Frequencies --   2998.6222              3006.0262              3012.2922
 Red. masses --      1.0801                 1.0625                 1.0684
 Frc consts  --      5.7224                 5.6565                 5.7119
 IR Inten    --     13.8944                28.6628                24.1681

                    109                    110                    111
                      A                      A                      A
 Frequencies --   3018.5813              3025.9497              3030.6865
 Red. masses --      1.0716                 1.0360                 1.0395
 Frc consts  --      5.7527                 5.5891                 5.6255
 IR Inten    --     42.4934                39.2245                22.4651

                    112                    113                    114
                      A                      A                      A
 Frequencies --   3031.6068              3032.0887              3037.7147
 Red. masses --      1.0410                 1.0419                 1.0847
 Frc consts  --      5.6369                 5.6437                 5.8974
 IR Inten    --     53.9492                18.9005                14.9415

                    115                    116                    117
                      A                      A                      A
 Frequencies --   3046.8436              3048.7485              3054.8078
 Red. masses --      1.0735                 1.0700                 1.0721
 Frc consts  --      5.8718                 5.8597                 5.8946
 IR Inten    --     24.3042                21.5900                25.1454

                    118                    119                    120
                      A                      A                      A
 Frequencies --   3073.9053              3075.0344              3077.1105
 Red. masses --      1.0860                 1.0882                 1.0952
 Frc consts  --      6.0460                 6.0623                 6.1100
 IR Inten    --     47.6305                27.2834                 2.6467

                    121                    122                    123
                      A                      A                      A
 Frequencies --   3089.3138              3090.3021              3093.7711
 Red. masses --      1.0958                 1.1000                 1.1002
 Frc consts  --      6.1616                 6.1893                 6.2046
 IR Inten    --     19.3109                26.6900                41.1305

                    124                    125                    126
                      A                      A                      A
 Frequencies --   3096.7490              3098.6115              3101.5359
 Red. masses --      1.0990                 1.0988                 1.0942
 Frc consts  --      6.2096                 6.2159                 6.2013
 IR Inten    --     60.4680                38.3860                12.7425

                    127                    128                    129
                      A                      A                      A
 Frequencies --   3103.8322              3104.3546              3112.4735
 Red. masses --      1.0940                 1.0909                 1.0964
 Frc consts  --      6.2096                 6.1942                 6.2580
 IR Inten    --     18.4577                54.1991                53.2902

                    130                    131                    132
                      A                      A                      A
 Frequencies --   3116.7932              3124.3487              3136.0687
 Red. masses --      1.0964                 1.0988                 1.0925
 Frc consts  --      6.2755                 6.3196                 6.3306
 IR Inten    --     22.7770                23.1800                53.5104

 - Thermochemistry -
 -------------------
 Temperature   298.150 Kelvin.  Pressure   1.00000 Atm.
 Atom     1 has atomic number  6 and mass  12.00000

 Molecular mass:   222.23475 amu.
 Principal axes and moments of inertia in atomic units:
                           1         2         3
     Eigenvalues --  2083.369566451.885157413.08428
           X            0.99998  -0.00539  -0.00359
           Y            0.00538   0.99998  -0.00165
           Z            0.00360   0.00163   0.99999
 This molecule is an asymmetric top.
 Rotational symmetry number  1.
 Warning -- assumption of classical behavior for rotation
           may cause significant error
 Rotational temperatures (Kelvin)      0.04157     0.01342     0.01168
 Rotational constants (GHZ):           0.86626     0.27972     0.24345
 Zero-point vibrational energy    1127747.6 (Joules/Mol)
                                  269.53816 (Kcal/Mol)
 Warning -- explicit consideration of  28 degrees of freedom as
           vibrations may cause significant error
 Vibrational temperatures:     44.59    47.67    88.41    96.10   136.16
          (Kelvin)            146.32   197.53   246.38   269.88   276.67
                              294.65   314.58   336.00   357.86   364.94
                              406.09   413.78   460.08   504.66   507.26
                              520.71   554.98   572.59   625.46   645.07
                              698.27   810.84   855.45   910.90   957.96
                             1060.40  1067.85  1107.00  1136.99  1142.20
                             1183.74  1223.68  1239.32  1255.64  1280.58
                             1302.14  1331.69  1377.48  1387.23  1411.05
                             1428.41  1443.32  1469.07  1473.42  1497.25
                             1517.23  1521.43  1534.37  1574.12  1587.62
                             1606.61  1647.57  1656.40  1676.98  1685.19
                             1698.39  1749.89  1789.67  1812.68  1825.36
                             1835.15  1859.52  1879.38  1891.87  1908.02
                             1910.51  1924.00  1932.10  1948.29  1949.34
                             1966.35  1980.03  1989.72  2001.18  2006.22
                             2010.63  2018.14  2027.06  2032.62  2035.40
                             2044.44  2070.17  2123.83  2132.51  2137.14
                             2144.59  2152.34  2153.65  2156.78  2157.12
                             2159.22  2165.78  2169.40  2177.78  2182.43
                             2191.95  2480.90  4241.49  4279.80  4297.45
                             4314.35  4325.00  4334.02  4343.07  4353.67
                             4360.48  4361.81  4362.50  4370.59  4383.73
                             4386.47  4395.19  4422.66  4424.29  4427.28
                             4444.83  4446.26  4451.25  4455.53  4458.21
                             4462.42  4465.72  4466.47  4478.16  4484.37
                             4495.24  4512.10

 Zero-point correction=                           0.429536 (Hartree/Particle)
 Thermal correction to Energy=                    0.448300
 Thermal correction to Enthalpy=                  0.449244
 Thermal correction to Gibbs Free Energy=         0.382999
 Sum of electronic and zero-point Energies=           -627.372177
 Sum of electronic and thermal Energies=              -627.353414
 Sum of electronic and thermal Enthalpies=            -627.352469
 Sum of electronic and thermal Free Energies=         -627.418714

                     E (Thermal)             CV                S
                      KCal/Mol        Cal/Mol-Kelvin    Cal/Mol-Kelvin
 Total                  281.312             72.699            139.424
 Electronic               0.000              0.000              0.000
 Translational            0.889              2.981             42.098
 Rotational               0.889              2.981             32.966
 Vibrational            279.535             66.738             64.360
 Vibration     1          0.594              1.984              5.765
 Vibration     2          0.594              1.983              5.632
 Vibration     3          0.597              1.973              4.410
 Vibration     4          0.598              1.970              4.246
 Vibration     5          0.603              1.953              3.562
 Vibration     6          0.604              1.948              3.422
 Vibration     7          0.614              1.916              2.841
 Vibration     8          0.626              1.878              2.422
 Vibration     9          0.632              1.857              2.252
 Vibration    10          0.634              1.851              2.206
 Vibration    11          0.640              1.833              2.090
 Vibration    12          0.646              1.813              1.970
 Vibration    13          0.654              1.790              1.852
 Vibration    14          0.662              1.765              1.740
 Vibration    15          0.665              1.757              1.705
 Vibration    16          0.681              1.707              1.520
 Vibration    17          0.685              1.697              1.488
 Vibration    18          0.706              1.636              1.311
 Vibration    19          0.728              1.574              1.163
 Vibration    20          0.729              1.570              1.155
 Vibration    21          0.736              1.551              1.114
 Vibration    22          0.754              1.501              1.017
 Vibration    23          0.764              1.474              0.970
 Vibration    24          0.795              1.395              0.843
 Vibration    25          0.807              1.365              0.801
 Vibration    26          0.841              1.283              0.696
 Vibration    27          0.919              1.110              0.517
 Vibration    28          0.952              1.043              0.459

 Optimization completed.
    -- Stationary point found.
 Normal termination of Gaussian 16 at Tue May 23 17:13:22 2023.
