 Gaussian 16, Revision A.03,
 Gaussian 16:  ES64L-G16RevA.03 25-Dec-2016

 -----------------------------
 # opt freq b3lyp/6-31g(2df,p)
 -----------------------------

 -------------------
 Title Card Required
 -------------------
 Symbolic Z-matrix:
 Charge =  0 Multiplicity = 1

 SCF Done:  E(RB3LYP) =  -901.724512656     A.U. after   13 cycles
 SCF Done:  E(RB3LYP) =  -901.749344118     A.U. after   13 cycles
 SCF Done:  E(RB3LYP) =  -901.752798504     A.U. after   13 cycles
 SCF Done:  E(RB3LYP) =  -901.767968198     A.U. after   12 cycles
 SCF Done:  E(RB3LYP) =  -901.770507589     A.U. after   11 cycles
 SCF Done:  E(RB3LYP) =  -901.770936816     A.U. after   10 cycles
 SCF Done:  E(RB3LYP) =  -901.771062179     A.U. after   10 cycles
 SCF Done:  E(RB3LYP) =  -901.771131603     A.U. after   10 cycles
 SCF Done:  E(RB3LYP) =  -901.771494649     A.U. after   12 cycles
 SCF Done:  E(RB3LYP) =  -901.771320615     A.U. after   13 cycles
 SCF Done:  E(RB3LYP) =  -901.794143588     A.U. after    9 cycles
 SCF Done:  E(RB3LYP) =  -901.794171105     A.U. after    9 cycles
 SCF Done:  E(RB3LYP) =  -901.794168580     A.U. after    9 cycles
 SCF Done:  E(RB3LYP) =  -901.794173421     A.U. after    9 cycles
 SCF Done:  E(RB3LYP) =  -901.794174267     A.U. after    9 cycles
 SCF Done:  E(RB3LYP) =  -901.794174765     A.U. after    9 cycles
 SCF Done:  E(RB3LYP) =  -901.794175451     A.U. after    8 cycles
 SCF Done:  E(RB3LYP) =  -901.794175603     A.U. after    7 cycles
 SCF Done:  E(RB3LYP) =  -901.794175645     A.U. after    6 cycles
 Optimization completed.
    -- Stationary point found.

 The electronic state is 1-A.
 Alpha  occ. eigenvalues --  -10.18213 -10.18104 -10.18045 -10.17896 -10.17835
 Alpha  occ. eigenvalues --  -10.17804 -10.17768 -10.17677 -10.17425 -10.17420
 Alpha  occ. eigenvalues --  -10.17415 -10.17361 -10.17323 -10.17285 -10.17159
 Alpha  occ. eigenvalues --  -10.17138 -10.17089 -10.17072 -10.17012 -10.17000
 Alpha  occ. eigenvalues --  -10.16855 -10.16588 -10.16508  -0.82263  -0.81372
 Alpha  occ. eigenvalues --   -0.80726  -0.79002  -0.78397  -0.76844  -0.75637
 Alpha  occ. eigenvalues --   -0.73479  -0.72075  -0.70159  -0.68849  -0.66718
 Alpha  occ. eigenvalues --   -0.64778  -0.63175  -0.61668  -0.60259  -0.58042
 Alpha  occ. eigenvalues --   -0.57654  -0.56655  -0.54986  -0.54765  -0.54013
 Alpha  occ. eigenvalues --   -0.50335  -0.47426  -0.46652  -0.46121  -0.45759
 Alpha  occ. eigenvalues --   -0.45383  -0.44749  -0.43940  -0.43719  -0.43337
 Alpha  occ. eigenvalues --   -0.42378  -0.42090  -0.41958  -0.40787  -0.40346
 Alpha  occ. eigenvalues --   -0.39939  -0.39198  -0.38743  -0.38553  -0.37627
 Alpha  occ. eigenvalues --   -0.37378  -0.37138  -0.36519  -0.35932  -0.34917
 Alpha  occ. eigenvalues --   -0.34852  -0.34724  -0.34492  -0.34191  -0.33812
 Alpha  occ. eigenvalues --   -0.33669  -0.33508  -0.33039  -0.32440  -0.32401
 Alpha  occ. eigenvalues --   -0.32215  -0.32079  -0.31441  -0.31254  -0.31056
 Alpha  occ. eigenvalues --   -0.30527  -0.28903  -0.24567  -0.23595  -0.22227
 Alpha virt. eigenvalues --    0.01252   0.03537   0.05187   0.08596   0.09712
 Alpha virt. eigenvalues --    0.09898   0.10006   0.10353   0.11019   0.11539
 Alpha virt. eigenvalues --    0.11838   0.11937   0.12246   0.13016   0.13254

 Mulliken charges:
               1
     1  C   -0.377761
     2  C   -0.151648
     3  C   -0.221149
     4  C   -0.041894
     5  C   -0.036862
     6  C   -0.297363
     7  C   -0.039325
     8  C   -0.022409
     9  C   -0.353304
    10  C    0.282647
    11  C   -0.126757
    12  C   -0.262603
    13  C   -0.167807
    14  C   -0.191384
    15  C   -0.181781
    16  C    0.023549
    17  C   -0.389765
    18  C   -0.178463
    19  C   -0.172781
    20  C   -0.160604
    21  C   -0.380078
    22  C   -0.247517
    23  C   -0.392404
    24  H    0.111111
    25  H    0.113985
    26  H    0.112990
    27  H    0.099534
    28  H    0.094194
    29  H    0.098219
    30  H    0.093903
    31  H    0.073615
    32  H    0.079998
    33  H    0.100118
    34  H    0.100509
    35  H    0.078264
    36  H    0.077506
    37  H    0.102862
    38  H    0.100730
    39  H    0.073954
    40  H    0.098299
    41  H    0.098986
    42  H    0.094554
    43  H    0.091058
    44  H    0.095174
    45  H    0.089637
    46  H    0.086555
    47  H    0.087569
    48  H    0.064747
    49  H    0.107885
    50  H    0.113525
    51  H    0.113140
    52  H    0.085942
    53  H    0.087276
    54  H    0.094532
    55  H    0.088536
    56  H    0.092580
    57  H    0.093065
    58  H    0.112164
    59  H    0.109363
    60  H    0.112202
    61  H    0.104497
    62  H    0.104636
    63  H    0.121126
    64  H    0.108099
    65  H    0.120826
 Sum of Mulliken charges =  -0.00000

 Dipole moment (field-independent basis, Debye):
    X=             -0.0041    Y=             -0.0299    Z=             -0.1078  Tot=              0.1119
 Quadrupole moment (field-independent basis, Debye-Ang):
   XX=           -150.2437   YY=           -146.1355   ZZ=           -148.1618
   XY=              0.7297   XZ=              0.8462   YZ=             -0.6559

 Normal termination of Gaussian 16 at Mon May 29 10:59:00 2023.

 ----------------------------------------------------------------------
 #N Geom=AllCheck Guess=TCheck SCRF=Check GenChk RB3LYP/6-31G(2df,p) Fr
 eq
 ----------------------------------------------------------------------

 Structure from the checkpoint file:  "CCCCdCCCdCCCqdCCCCCCqCrCCCCrCC.chk"
 -------------------
 Title Card Required
 -------------------
 Charge =  0 Multiplicity = 1

                         Standard orientation:
 ---------------------------------------------------------------------
 Center     Atomic      Atomic             Coordinates (Angstroms)
 Number     Number       Type             X           Y           Z
 ---------------------------------------------------------------------
      1          6           0       -2.280291    6.194688    0.968374
      2          6           0       -2.758740    5.084553    0.029481
      3          6           0       -3.997365    4.340631    0.561625
      4          6           0       -4.496753    3.282301   -0.379387
      5          6           0       -4.572820    1.980461   -0.111025
      6          6           0       -5.053804    0.919177   -1.068983
      7          6           0       -3.985094   -0.099964   -1.377208
      8          6           0       -4.064677   -1.401707   -1.110002
      9          6           0       -2.988991   -2.418155   -1.402526
     10          6           0       -2.608469   -3.237863   -0.175326
     11          6           0       -1.652128   -2.871069    0.683359
     12          6           0       -0.774232   -1.651867    0.624693
     13          6           0        0.720498   -2.001117    0.499403
     14          6           0        1.634957   -0.770995    0.520475
     15          6           0        3.121428   -1.128216    0.397917
     16          6           0        4.086205    0.070285    0.302409
     17          6           0        4.069234    0.922696    1.580304
     18          6           0        5.505731   -0.423313   -0.040160
     19          6           0        6.522281    0.673229   -0.380232
     20          6           0        7.882215    0.116542   -0.818110
     21          6           0        8.900920    1.208126   -1.156958
     22          6           0       -3.434041   -4.496961   -0.004706
     23          6           0       -3.187628   -5.331832    1.251757
     24          1           0       -1.399665    6.705683    0.566694
     25          1           0       -2.012269    5.793332    1.952139
     26          1           0       -3.061520    6.947667    1.121993
     27          1           0       -1.951917    4.359701   -0.134167
     28          1           0       -2.989942    5.509429   -0.956102
     29          1           0       -4.793450    5.078667    0.741522
     30          1           0       -3.765966    3.891805    1.535655
     31          1           0       -4.808268    3.633610   -1.364851
     32          1           0       -4.255182    1.618627    0.867182
     33          1           0       -5.388569    1.402707   -1.996712
     34          1           0       -5.926573    0.402463   -0.647326
     35          1           0       -3.081854    0.295074   -1.842934
     36          1           0       -4.968398   -1.787345   -0.636838
     37          1           0       -2.117831   -1.910619   -1.826562
     38          1           0       -3.350314   -3.109874   -2.177518
     39          1           0       -1.451658   -3.518914    1.534897
     40          1           0       -0.916823   -1.067726    1.546166
     41          1           0       -1.066758   -0.989457   -0.195580
     42          1           0        0.880620   -2.565553   -0.428713
     43          1           0        1.002483   -2.679580    1.316488
     44          1           0        1.453639   -0.211148    1.446507
     45          1           0        1.354936   -0.096867   -0.301593
     46          1           0        3.255410   -1.753524   -0.495368
     47          1           0        3.415376   -1.757304    1.251051
     48          1           0        3.745708    0.703262   -0.531765
     49          1           0        4.401338    0.332800    2.443860
     50          1           0        3.067296    1.300738    1.802015
     51          1           0        4.729852    1.790224    1.497097
     52          1           0        5.437463   -1.109934   -0.895152
     53          1           0        5.887239   -1.025259    0.797818
     54          1           0        6.672545    1.333699    0.483071
     55          1           0        6.117387    1.308379   -1.181204
     56          1           0        7.742031   -0.537463   -1.689121
     57          1           0        8.283327   -0.524566   -0.021735
     58          1           0        8.541843    1.845122   -1.973174
     59          1           0        9.859573    0.780010   -1.466703
     60          1           0        9.089506    1.855885   -0.293399
     61          1           0       -3.279781   -5.127479   -0.893724
     62          1           0       -4.498453   -4.220071   -0.047980
     63          1           0       -2.156490   -5.696395    1.296704
     64          1           0       -3.848404   -6.203863    1.264767
     65          1           0       -3.378109   -4.753725    2.161564
 ---------------------------------------------------------------------

 SCF Done:  E(RB3LYP) =  -901.794175645     A.U. after    1 cycles
