 Gaussian 16, Revision A.03,
 Gaussian 16:  ES64L-G16RevA.03 25-Dec-2016

 -----------------------------
 # opt freq b3lyp/6-31g(2df,p)
 -----------------------------

 -------------------
 Title Card Required
 -------------------
 Symbolic Z-matrix:
 Charge =  0 Multiplicity = 1

 SCF Done:  E(RB3LYP) =  -432.379821307     A.U. after   12 cycles
 SCF Done:  E(RB3LYP) =  -432.419856579     A.U. after   10 cycles
 SCF Done:  E(RB3LYP) =  -432.446055831     A.U. after   11 cycles
 SCF Done:  E(RB3LYP) =  -432.449417177     A.U. after   10 cycles
 SCF Done:  E(RB3LYP) =  -432.453268840     A.U. after   10 cycles
 SCF Done:  E(RB3LYP) =  -432.458647152     A.U. after   10 cycles
 SCF Done:  E(RB3LYP) =  -432.464900528     A.U. after   12 cycles
 SCF Done:  E(RB3LYP) =  -432.467165714     A.U. after   10 cycles
 SCF Done:  E(RB3LYP) =  -432.468434085     A.U. after    9 cycles
 SCF Done:  E(RB3LYP) =  -432.468917101     A.U. after   10 cycles
 SCF Done:  E(RB3LYP) =  -432.474264291     A.U. after   10 cycles
 SCF Done:  E(RB3LYP) =  -432.474855111     A.U. after   10 cycles
 SCF Done:  E(RB3LYP) =  -432.474614424     A.U. after   10 cycles
 SCF Done:  E(RB3LYP) =  -432.475413751     A.U. after    9 cycles
 SCF Done:  E(RB3LYP) =  -432.475463052     A.U. after    8 cycles
 SCF Done:  E(RB3LYP) =  -432.475474302     A.U. after    8 cycles
 SCF Done:  E(RB3LYP) =  -432.475475580     A.U. after    6 cycles
 SCF Done:  E(RB3LYP) =  -432.475475866     A.U. after    6 cycles
 SCF Done:  E(RB3LYP) =  -432.475475897     A.U. after    5 cycles
 Optimization completed.
    -- Stationary point found.
 Normal termination of Gaussian 16 at Sun May 28 12:12:38 2023.

 ----------------------------------------------------------------------
 #N Geom=AllCheck Guess=TCheck SCRF=Check GenChk RB3LYP/6-31G(2df,p) Fr
 eq
 ----------------------------------------------------------------------

 Structure from the checkpoint file:  "CCCC1CCqCCrCC1C.chk"
 -------------------
 Title Card Required
 -------------------
 Charge =  0 Multiplicity = 1

                         Standard orientation:
 ---------------------------------------------------------------------
 Center     Atomic      Atomic             Coordinates (Angstroms)
 Number     Number       Type             X           Y           Z
 ---------------------------------------------------------------------
      1          6           0        4.632072    0.577462   -0.972311
      2          6           0        4.130265    0.538938    0.475443
      3          6           0        2.947684   -0.412726    0.713358
      4          6           0        1.645211   -0.005400    0.013200
      5          6           0        0.475221   -0.946817    0.324289
      6          6           0       -0.840801   -0.563516   -0.360752
      7          6           0       -1.963357   -1.610417   -0.183316
      8          6           0       -3.253240   -0.809632   -0.391153
      9          6           0       -2.984206    0.501653    0.372000
     10          6           0       -3.898762    1.663787   -0.011945
     11          6           0       -1.471705    0.774100    0.135326
     12          1           0        5.505802    1.229790   -1.069078
     13          1           0        3.867305    0.950846   -1.660484
     14          1           0        4.924769   -0.422088   -1.314100
     15          1           0        3.846793    1.552132    0.791028
     16          1           0        4.958204    0.239570    1.130083
     17          1           0        2.759988   -0.479155    1.793366
     18          1           0        3.229484   -1.426233    0.393771
     19          1           0        1.383298    1.019309    0.310610
     20          1           0        1.796285    0.023885   -1.073764
     21          1           0        0.751006   -1.967901    0.025275
     22          1           0        0.313887   -0.983338    1.411790
     23          1           0       -0.643169   -0.469882   -1.437382
     24          1           0       -1.857169   -2.459433   -0.865841
     25          1           0       -1.938415   -2.012980    0.838674
     26          1           0       -4.152663   -1.327192   -0.042475
     27          1           0       -3.394484   -0.596254   -1.459856
     28          1           0       -3.128553    0.291730    1.440566
     29          1           0       -4.951669    1.422470    0.171216
     30          1           0       -3.661215    2.567006    0.560665
     31          1           0       -3.792987    1.908373   -1.075737
     32          1           0       -0.989887    1.126580    1.053989
     33          1           0       -1.336915    1.568185   -0.607156
 ---------------------------------------------------------------------

 SCF Done:  E(RB3LYP) =  -432.475475897     A.U. after    1 cycles

 The electronic state is 1-A.
 Alpha  occ. eigenvalues --  -10.17718 -10.17504 -10.17423 -10.17167 -10.17062
 Alpha  occ. eigenvalues --  -10.17028 -10.16893 -10.16869 -10.16810 -10.16745
 Alpha  occ. eigenvalues --  -10.16728  -0.83415  -0.79536  -0.75934  -0.72728
 Alpha  occ. eigenvalues --   -0.69936  -0.66705  -0.63834  -0.59647  -0.56276
 Alpha  occ. eigenvalues --   -0.55462  -0.53551  -0.47382  -0.46469  -0.44937
 Alpha  occ. eigenvalues --   -0.44067  -0.42403  -0.41453  -0.39919  -0.39549
 Alpha  occ. eigenvalues --   -0.38502  -0.37992  -0.36821  -0.34898  -0.34364
 Alpha  occ. eigenvalues --   -0.33758  -0.32446  -0.31835  -0.31644  -0.31306
 Alpha  occ. eigenvalues --   -0.30750  -0.30001  -0.29799  -0.29154
 Alpha virt. eigenvalues --    0.08363   0.09341   0.09718   0.11125   0.12543
 Alpha virt. eigenvalues --    0.12799   0.12994   0.15523   0.15843   0.16099
 Alpha virt. eigenvalues --    0.16172   0.16812   0.16992   0.17641   0.18283

 Mulliken charges:
               1
     1  C   -0.366723
     2  C   -0.176139
     3  C   -0.171112
     4  C   -0.172078
     5  C   -0.203477
     6  C    0.048985
     7  C   -0.229292
     8  C   -0.210207
     9  C    0.062471
    10  C   -0.407583
    11  C   -0.222508
    12  H    0.109702
    13  H    0.117100
    14  H    0.111154
    15  H    0.091771
    16  H    0.090287
    17  H    0.087918
    18  H    0.088633
    19  H    0.093989
    20  H    0.092739
    21  H    0.087166
    22  H    0.085873
    23  H    0.062667
    24  H    0.087657
    25  H    0.089656
    26  H    0.087453
    27  H    0.088355
    28  H    0.065822
    29  H    0.108610
    30  H    0.109819
    31  H    0.109349
    32  H    0.090987
    33  H    0.090955
 Sum of Mulliken charges =  -0.00000

 Dipole moment (field-independent basis, Debye):
    X=              0.0103    Y=             -0.0211    Z=              0.0529  Tot=              0.0579
 Quadrupole moment (field-independent basis, Debye-Ang):
   XX=            -73.8504   YY=            -73.3512   ZZ=            -72.2891
   XY=              0.1603   XZ=             -0.1231   YZ=              0.2636

  Exact polarizability: 142.900  -0.363 111.365  -0.119   0.246 102.865
 Approx polarizability: 163.271   0.066 160.782  -0.424   0.208 161.050

                      1                      2                      3
                      A                      A                      A
 Frequencies --     19.9832                41.3387                64.0811
 Red. masses --      2.4292                 2.6150                 2.3542
 Frc consts  --      0.0006                 0.0026                 0.0057
 IR Inten    --      0.0012                 0.0016                 0.0050

                      4                      5                      6
                      A                      A                      A
 Frequencies --     81.1818               131.0780               140.2116
 Red. masses --      3.0878                 2.1552                 1.6909
 Frc consts  --      0.0120                 0.0218                 0.0196
 IR Inten    --      0.0127                 0.0094                 0.0086

                      7                      8                      9
                      A                      A                      A
 Frequencies --    192.6072               226.9878               247.7782
 Red. masses --      1.8573                 1.7964                 1.1105
 Frc consts  --      0.0406                 0.0545                 0.0402
 IR Inten    --      0.0050                 0.0119                 0.0006

                     10                     11                     12
                      A                      A                      A
 Frequencies --    254.7447               272.0683               318.9388
 Red. masses --      2.2270                 1.8086                 2.2715
 Frc consts  --      0.0851                 0.0789                 0.1361
 IR Inten    --      0.0289                 0.0121                 0.0566

                     13                     14                     15
                      A                      A                      A
 Frequencies --    376.1605               420.8789               426.9489
 Red. masses --      2.4389                 1.6998                 2.1742
 Frc consts  --      0.2033                 0.1774                 0.2335
 IR Inten    --      0.0356                 0.1415                 0.0386

                     16                     17                     18
                      A                      A                      A
 Frequencies --    483.4568               548.9103               588.4279
 Red. masses --      2.2806                 2.8108                 2.6873
 Frc consts  --      0.3141                 0.4990                 0.5482
 IR Inten    --      0.5886                 0.3374                 0.4836

                     19                     20                     21
                      A                      A                      A
 Frequencies --    736.0715               769.3691               803.4198
 Red. masses --      1.1262                 1.2342                 1.8044
 Frc consts  --      0.3595                 0.4304                 0.6862
 IR Inten    --      3.2107                 2.0752                 0.2020

                     22                     23                     24
                      A                      A                      A
 Frequencies --    825.1735               834.5071               865.7471
 Red. masses --      1.8967                 1.8755                 2.2112
 Frc consts  --      0.7609                 0.7695                 0.9765
 IR Inten    --      0.1827                 0.3508                 0.6104

                     25                     26                     27
                      A                      A                      A
 Frequencies --    886.4977               919.2455               925.6303
 Red. masses --      2.0015                 1.4858                 1.8533
 Frc consts  --      0.9268                 0.7397                 0.9356
 IR Inten    --      0.6244                 0.0424                 0.4256

                     28                     29                     30
                      A                      A                      A
 Frequencies --    956.6522               966.2637               985.7642
 Red. masses --      1.3666                 1.9010                 1.8521
 Frc consts  --      0.7369                 1.0457                 1.0604
 IR Inten    --      1.0228                 0.1750                 1.3584

                     31                     32                     33
                      A                      A                      A
 Frequencies --    991.9902              1024.0317              1032.6679
 Red. masses --      1.3890                 1.6360                 2.3874
 Frc consts  --      0.8053                 1.0108                 1.5000
 IR Inten    --      0.8263                 0.0795                 0.3163

                     34                     35                     36
                      A                      A                      A
 Frequencies --   1056.3084              1081.2639              1086.8652
 Red. masses --      1.3853                 2.1793                 2.2397
 Frc consts  --      0.9107                 1.5012                 1.5588
 IR Inten    --      0.4576                 0.2771                 0.7221

                     37                     38                     39
                      A                      A                      A
 Frequencies --   1100.3197              1107.5985              1153.2862
 Red. masses --      1.6784                 1.9360                 2.2879
 Frc consts  --      1.1973                 1.3993                 1.7929
 IR Inten    --      0.5039                 0.4887                 0.3606

                     40                     41                     42
                      A                      A                      A
 Frequencies --   1163.1510              1191.9062              1220.9138
 Red. masses --      2.2122                 1.7546                 1.5208
 Frc consts  --      1.7634                 1.4686                 1.3356
 IR Inten    --      1.8460                 1.0983                 0.3244

                     43                     44                     45
                      A                      A                      A
 Frequencies --   1229.2055              1260.3324              1265.8661
 Red. masses --      1.5957                 1.3857                 1.3413
 Frc consts  --      1.4205                 1.2969                 1.2663
 IR Inten    --      0.1778                 0.9337                 2.2771

                     46                     47                     48
                      A                      A                      A
 Frequencies --   1292.7950              1301.1979              1308.1322
 Red. masses --      1.3381                 1.2086                 1.2645
 Frc consts  --      1.3177                 1.2056                 1.2749
 IR Inten    --      0.3007                 0.1523                 3.7479

                     49                     50                     51
                      A                      A                      A
 Frequencies --   1321.2166              1329.8592              1332.6255
 Red. masses --      1.2482                 1.2046                 1.1490
 Frc consts  --      1.2838                 1.2551                 1.2022
 IR Inten    --      0.5387                 1.3627                 1.3146

                     52                     53                     54
                      A                      A                      A
 Frequencies --   1346.6108              1352.1852              1367.9172
 Red. masses --      1.2594                 1.2543                 1.3674
 Frc consts  --      1.3455                 1.3512                 1.5076
 IR Inten    --      3.7147                 2.4160                 0.7922

                     55                     56                     57
                      A                      A                      A
 Frequencies --   1378.2730              1381.2794              1390.2305
 Red. masses --      1.4038                 1.5182                 1.5166
 Frc consts  --      1.5712                 1.7066                 1.7270
 IR Inten    --      5.7864                 2.5571                 1.5840

                     58                     59                     60
                      A                      A                      A
 Frequencies --   1400.5763              1410.7480              1414.4046
 Red. masses --      1.5533                 1.2477                 1.2720
 Frc consts  --      1.7952                 1.4630                 1.4993
 IR Inten    --      3.8237                 1.0938                 5.2644

                     61                     62                     63
                      A                      A                      A
 Frequencies --   1479.3403              1482.4517              1487.9300
 Red. masses --      1.0739                 1.0844                 1.0667
 Frc consts  --      1.3846                 1.4040                 1.3914
 IR Inten    --      0.1329                 0.6333                 0.6995

                     64                     65                     66
                      A                      A                      A
 Frequencies --   1489.9330              1492.0441              1497.2190
 Red. masses --      1.0843                 1.0868                 1.0535
 Frc consts  --      1.4182                 1.4255                 1.3914
 IR Inten    --      1.5335                 1.3406                 1.1706

                     67                     68                     69
                      A                      A                      A
 Frequencies --   1499.2254              1501.5078              1505.0266
 Red. masses --      1.0551                 1.0519                 1.0928
 Frc consts  --      1.3973                 1.3973                 1.4584
 IR Inten    --      4.9958                 2.2297                 2.1816

                     70                     71                     72
                      A                      A                      A
 Frequencies --   1508.0350              1509.4102              2992.6252
 Red. masses --      1.0889                 1.0723                 1.0651
 Frc consts  --      1.4591                 1.4394                 5.6203
 IR Inten    --      0.6354                 4.7605                 5.6512

                     73                     74                     75
                      A                      A                      A
 Frequencies --   2997.8396              3000.9444              3001.6088
 Red. masses --      1.0756                 1.0802                 1.0603
 Frc consts  --      5.6952                 5.7317                 5.6286
 IR Inten    --     12.4727                 2.4222                11.6744

                     76                     77                     78
                      A                      A                      A
 Frequencies --   3011.3067              3012.5432              3014.6910
 Red. masses --      1.0656                 1.0679                 1.0619
 Frc consts  --      5.6930                 5.7100                 5.6864
 IR Inten    --     25.5089                 1.2980                38.3504

                     79                     80                     81
                      A                      A                      A
 Frequencies --   3019.3048              3021.6691              3024.9522
 Red. masses --      1.0574                 1.0436                 1.0937
 Frc consts  --      5.6792                 5.6143                 5.8964
 IR Inten    --     37.9485                69.1646                21.2574

                     82                     83                     84
                      A                      A                      A
 Frequencies --   3030.7996              3034.4586              3035.8835
 Red. masses --      1.0396                 1.0625                 1.0953
 Frc consts  --      5.6263                 5.7641                 5.9480
 IR Inten    --     17.5755                35.3997                 6.2067

                     85                     86                     87
                      A                      A                      A
 Frequencies --   3047.4590              3061.7415              3070.9980
 Red. masses --      1.0993                 1.1040                 1.1035
 Frc consts  --      6.0152                 6.0975                 6.1316
 IR Inten    --     26.5067                89.4449                25.4818

                     88                     89                     90
                      A                      A                      A
 Frequencies --   3074.7791              3079.5977              3088.7476
 Red. masses --      1.0945                 1.1009                 1.1006
 Frc consts  --      6.0964                 6.1516                 6.1867
 IR Inten    --     37.5311                42.7601                80.5674

                     91                     92                     93
                      A                      A                      A
 Frequencies --   3091.1882              3095.4765              3104.5030
 Red. masses --      1.1012                 1.1006                 1.1008
 Frc consts  --      6.1997                 6.2136                 6.2511
 IR Inten    --     32.3778                42.4750                48.7557

 - Thermochemistry -
 -------------------
 Temperature   298.150 Kelvin.  Pressure   1.00000 Atm.
 Atom     1 has atomic number  6 and mass  12.00000

 Molecular mass:   154.17215 amu.
 Principal axes and moments of inertia in atomic units:
                           1         2         3
     Eigenvalues --   716.638394951.460805295.72543
           X            1.00000  -0.00186  -0.00190
           Y            0.00184   0.99994  -0.01115
           Z            0.00192   0.01114   0.99994
 This molecule is an asymmetric top.
 Rotational symmetry number  1.
 Warning -- assumption of classical behavior for rotation
           may cause significant error
 Rotational temperatures (Kelvin)      0.12086     0.01749     0.01636
 Rotational constants (GHZ):           2.51834     0.36449     0.34079
 Zero-point vibrational energy     813276.0 (Joules/Mol)
                                  194.37762 (Kcal/Mol)
 Warning -- explicit consideration of  18 degrees of freedom as
           vibrations may cause significant error
 Vibrational temperatures:     28.75    59.48    92.20   116.80   188.59
          (Kelvin)            201.73   277.12   326.58   356.50   366.52
                              391.45   458.88   541.21   605.55   614.28
                              695.59   789.76   846.62  1059.04  1106.95
                             1155.94  1187.24  1200.67  1245.62  1275.47
                             1322.59  1331.78  1376.41  1390.24  1418.29
                             1427.25  1473.35  1485.78  1519.79  1555.70
                             1563.76  1583.11  1593.59  1659.32  1673.51
                             1714.89  1756.62  1768.55  1813.34  1821.30
                             1860.04  1872.13  1882.11  1900.94  1913.37
                             1917.35  1937.47  1945.49  1968.13  1983.03
                             1987.35  2000.23  2015.12  2029.75  2035.01
                             2128.44  2132.92  2140.80  2143.68  2146.72
                             2154.16  2157.05  2160.33  2165.40  2169.73
                             2171.70  4305.72  4313.22  4317.69  4318.65
                             4332.60  4334.38  4337.47  4344.11  4347.51
                             4352.23  4360.64  4365.91  4367.96  4384.61
                             4405.16  4418.48  4423.92  4430.85  4444.02
                             4447.53  4453.70  4466.69

 Zero-point correction=                           0.309760 (Hartree/Particle)
 Thermal correction to Energy=                    0.322961
 Thermal correction to Enthalpy=                  0.323906
 Thermal correction to Gibbs Free Energy=         0.268632
 Sum of electronic and zero-point Energies=           -432.165715
 Sum of electronic and thermal Energies=              -432.152515
 Sum of electronic and thermal Enthalpies=            -432.151570
 Sum of electronic and thermal Free Energies=         -432.206844

                     E (Thermal)             CV                S
                      KCal/Mol        Cal/Mol-Kelvin    Cal/Mol-Kelvin
 Total                  202.661             49.265            116.332
 Electronic               0.000              0.000              0.000
 Translational            0.889              2.981             41.008
 Rotational               0.889              2.981             31.308
 Vibrational            200.884             43.304             44.016
 Vibration     1          0.593              1.986              6.636
 Vibration     2          0.594              1.981              5.194
 Vibration     3          0.597              1.971              4.327
 Vibration     4          0.600              1.962              3.862
 Vibration     5          0.612              1.922              2.930
 Vibration     6          0.615              1.913              2.801
 Vibration     7          0.635              1.850              2.203
 Vibration     8          0.651              1.800              1.903
 Vibration     9          0.661              1.766              1.746
 Vibration    10          0.665              1.755              1.698
 Vibration    11          0.675              1.725              1.583
 Vibration    12          0.705              1.637              1.316
 Vibration    13          0.747              1.521              1.055
 Vibration    14          0.783              1.425              0.889
 Vibration    15          0.789              1.412              0.869
 Vibration    16          0.840              1.287              0.701
 Vibration    17          0.904              1.142              0.546
 Vibration    18          0.946              1.056              0.470

                           ! Non-Optimized Parameters !
 Normal termination of Gaussian 16 at Sun May 28 13:23:20 2023.
