 Gaussian 16, Revision A.03,
 Gaussian 16:  ES64L-G16RevA.03 25-Dec-2016

 -----------------------------
 # opt freq b3lyp/6-31g(2df,p)
 -----------------------------

 -------------------
 Title Card Required
 -------------------
 Symbolic Z-matrix:
 Charge =  0 Multiplicity = 1

 SCF Done:  E(RB3LYP) =  -623.008984607     A.U. after   11 cycles
 SCF Done:  E(RB3LYP) =  -623.017235486     A.U. after   10 cycles
 SCF Done:  E(RB3LYP) =  -623.018270330     A.U. after    9 cycles
 SCF Done:  E(RB3LYP) =  -623.018384557     A.U. after    8 cycles
 SCF Done:  E(RB3LYP) =  -623.018405658     A.U. after    8 cycles
 SCF Done:  E(RB3LYP) =  -623.018410864     A.U. after    8 cycles
 SCF Done:  E(RB3LYP) =  -623.018414426     A.U. after    8 cycles
 SCF Done:  E(RB3LYP) =  -623.018414874     A.U. after    6 cycles
 SCF Done:  E(RB3LYP) =  -623.018415060     A.U. after    6 cycles
 Optimization completed.
    -- Stationary point found.
 Normal termination of Gaussian 16 at Wed May 24 23:59:46 2023.

 ----------------------------------------------------------------------
 #N Geom=AllCheck Guess=TCheck SCRF=Check GenChk RB3LYP/6-31G(2df,p) Fr
 eq
 ----------------------------------------------------------------------

 Structure from the checkpoint file:  "CCCCCCqCrCCCqNrCCCN.chk"
 -------------------
 Title Card Required
 -------------------
 Charge =  0 Multiplicity = 1

                         Standard orientation:
 ---------------------------------------------------------------------
 Center     Atomic      Atomic             Coordinates (Angstroms)
 Number     Number       Type             X           Y           Z
 ---------------------------------------------------------------------
      1          6           0       -7.664388   -0.860284    0.030917
      2          6           0       -6.476185    0.008373   -0.390845
      3          6           0       -5.139783   -0.476772    0.181198
      4          6           0       -3.944050    0.386150   -0.238103
      5          6           0       -2.613825   -0.107697    0.344049
      6          6           0       -1.358790    0.650044   -0.132511
      7          6           0       -1.377493    2.121476    0.308229
      8          6           0       -0.088802   -0.079993    0.350141
      9          6           0        1.228594    0.429383   -0.245682
     10          6           0        2.476810   -0.361464    0.204848
     11          7           0        2.469762   -1.787803   -0.152498
     12          6           0        3.758552    0.285890   -0.344039
     13          6           0        5.051237   -0.304355    0.225803
     14          6           0        6.309271    0.332317   -0.363898
     15          7           0        7.515206   -0.288415    0.196409
     16          1           0       -8.603055   -0.489039   -0.392438
     17          1           0       -7.774911   -0.877573    1.121018
     18          1           0       -7.535696   -1.896131   -0.302690
     19          1           0       -6.649754    1.045543   -0.074300
     20          1           0       -6.411945    0.034545   -1.486878
     21          1           0       -4.967138   -1.515941   -0.132815
     22          1           0       -5.203317   -0.501586    1.278326
     23          1           0       -4.130710    1.422790    0.068891
     24          1           0       -3.876093    0.401722   -1.335286
     25          1           0       -2.496238   -1.169633    0.087756
     26          1           0       -2.660613   -0.067789    1.442329
     27          1           0       -1.355695    0.625683   -1.233297
     28          1           0       -1.384232    2.197932    1.402756
     29          1           0       -2.261718    2.644389   -0.066584
     30          1           0       -0.502379    2.665795   -0.057430
     31          1           0       -0.198470   -1.145228    0.108134
     32          1           0       -0.038255   -0.021206    1.447806
     33          1           0        1.375201    1.482870    0.021759
     34          1           0        1.170136    0.396645   -1.344390
     35          1           0        2.521930   -0.322172    1.303465
     36          1           0        2.318202   -1.887437   -1.154062
     37          1           0        1.697271   -2.264770    0.300883
     38          1           0        3.722187    1.364545   -0.143242
     39          1           0        3.759638    0.183034   -1.440032
     40          1           0        5.073723   -1.383471    0.052314
     41          1           0        5.058986   -0.166181    1.317401
     42          1           0        6.264415    1.427609   -0.218975
     43          1           0        6.324599    0.166395   -1.449091
     44          1           0        7.558977   -0.099179    1.194399
     45          1           0        8.343292    0.142957   -0.203753
 ---------------------------------------------------------------------

 SCF Done:  E(RB3LYP) =  -623.018415060     A.U. after    1 cycles

 The electronic state is 1-A.
 Alpha  occ. eigenvalues --  -14.30167 -14.29695 -10.20319 -10.19313 -10.18268
 Alpha  occ. eigenvalues --  -10.17570 -10.17447 -10.17378 -10.17357 -10.17295
 Alpha  occ. eigenvalues --  -10.17179 -10.17042 -10.16983 -10.16865 -10.16236
 Alpha  occ. eigenvalues --   -0.87945  -0.86623  -0.81470  -0.78872  -0.76554
 Alpha  occ. eigenvalues --   -0.74660  -0.72046  -0.67971  -0.67027  -0.63150
 Alpha  occ. eigenvalues --   -0.59691  -0.57459  -0.56948  -0.56706  -0.55194
 Alpha  occ. eigenvalues --   -0.48938  -0.47538  -0.47212  -0.46140  -0.44724
 Alpha  occ. eigenvalues --   -0.44396  -0.43912  -0.42593  -0.42073  -0.41501
 Alpha  occ. eigenvalues --   -0.40358  -0.39203  -0.38575  -0.38204  -0.37443
 Alpha  occ. eigenvalues --   -0.36774  -0.35589  -0.34941  -0.34486  -0.33527
 Alpha  occ. eigenvalues --   -0.33002  -0.32649  -0.32224  -0.31946  -0.31699
 Alpha  occ. eigenvalues --   -0.31530  -0.31482  -0.30931  -0.28952  -0.22933
 Alpha  occ. eigenvalues --   -0.22526
 Alpha virt. eigenvalues --    0.07560   0.08992   0.09174   0.09816   0.10355
 Alpha virt. eigenvalues --    0.10831   0.11873   0.12163   0.12550   0.13439
 Alpha virt. eigenvalues --    0.14015   0.14572   0.14927   0.15787   0.15960

 Mulliken charges:
               1
     1  C   -0.379131
     2  C   -0.163971
     3  C   -0.156357
     4  C   -0.192814
     5  C   -0.181773
     6  C    0.025782
     7  C   -0.390619
     8  C   -0.193340
     9  C   -0.199061
    10  C    0.019283
    11  N   -0.505089
    12  C   -0.173027
    13  C   -0.154044
    14  C   -0.147033
    15  N   -0.508565
    16  H    0.109760
    17  H    0.112529
    18  H    0.112452
    19  H    0.092920
    20  H    0.092769
    21  H    0.089382
    22  H    0.090212
    23  H    0.095612
    24  H    0.089275
    25  H    0.085388
    26  H    0.088161
    27  H    0.065224
    28  H    0.108581
    29  H    0.114621
    30  H    0.114242
    31  H    0.075846
    32  H    0.087895
    33  H    0.093114
    34  H    0.081421
    35  H    0.073803
    36  H    0.216939
    37  H    0.227464
    38  H    0.086849
    39  H    0.083722
    40  H    0.127351
    41  H    0.077864
    42  H    0.069492
    43  H    0.096914
    44  H    0.219101
    45  H    0.220855
 Sum of Mulliken charges =  -0.00000

 Dipole moment (field-independent basis, Debye):
    X=             -1.1017    Y=              1.4293    Z=             -0.0986  Tot=              1.8073
 Quadrupole moment (field-independent basis, Debye-Ang):
   XX=           -104.0298   YY=           -102.0621   ZZ=            -95.9663
   XY=             11.8680   XZ=              1.2354   YZ=              1.6272

  Exact polarizability: 211.916   2.801 141.104   0.167  -0.661 134.580
 Approx polarizability: 220.132   0.101 212.693  -0.542   0.990 217.171

                      1                      2                      3
                      A                      A                      A
 Frequencies --     18.1291                26.2466                36.8677
 Red. masses --      3.4610                 2.8497                 2.2864
 Frc consts  --      0.0007                 0.0012                 0.0018
 IR Inten    --      0.1005                 0.4452                 0.2419

                      4                      5                      6
                      A                      A                      A
 Frequencies --     49.9368                54.0382                70.3849
 Red. masses --      2.7637                 2.2950                 2.1887
 Frc consts  --      0.0041                 0.0039                 0.0064
 IR Inten    --      0.4594                 0.5647                 1.2036

                      7                      8                      9
                      A                      A                      A
 Frequencies --     85.4379                89.1544               127.3286
 Red. masses --      3.2024                 2.7074                 2.3806
 Frc consts  --      0.0138                 0.0127                 0.0227
 IR Inten    --      0.4019                 0.3861                 0.1862

                     10                     11                     12
                      A                      A                      A
 Frequencies --    127.6221               140.0711               153.7071
 Red. masses --      1.6775                 1.9298                 3.2594
 Frc consts  --      0.0161                 0.0223                 0.0454
 IR Inten    --      0.1195                 0.0704                 0.7232

                     13                     14                     15
                      A                      A                      A
 Frequencies --    155.0999               175.7555               231.2207
 Red. masses --      2.0942                 3.8600                 2.4833
 Frc consts  --      0.0297                 0.0703                 0.0782
 IR Inten    --      3.4159                 0.0642                 1.4017

                     16                     17                     18
                      A                      A                      A
 Frequencies --    235.3223               248.1670               254.3527
 Red. masses --      1.2082                 1.1271                 1.2364
 Frc consts  --      0.0394                 0.0409                 0.0471
 IR Inten    --      0.0494                 0.0126                 1.9880

                     19                     20                     21
                      A                      A                      A
 Frequencies --    262.0655               278.3631               313.8151
 Red. masses --      1.1778                 2.4735                 2.8958
 Frc consts  --      0.0477                 0.1129                 0.1680
 IR Inten    --     63.1581                 0.9355                 6.6168

                     22                     23                     24
                      A                      A                      A
 Frequencies --    337.2170               382.2002               416.0418
 Red. masses --      3.3167                 2.5351                 2.2164
 Frc consts  --      0.2222                 0.2182                 0.2260
 IR Inten    --      6.6396                 1.7752                 0.7666

                     25                     26                     27
                      A                      A                      A
 Frequencies --    440.9765               463.1669               484.3480
 Red. masses --      2.1585                 2.8078                 2.6483
 Frc consts  --      0.2473                 0.3549                 0.3660
 IR Inten    --      0.9348                 5.1944                 2.7039

                     28                     29                     30
                      A                      A                      A
 Frequencies --    533.6079               558.3733               732.0280
 Red. masses --      2.7355                 2.5500                 1.0711
 Frc consts  --      0.4589                 0.4684                 0.3382
 IR Inten    --      3.2771                 6.9255                 2.9311

                     31                     32                     33
                      A                      A                      A
 Frequencies --    749.3626               755.6854               764.8619
 Red. masses --      1.1395                 1.1390                 1.2702
 Frc consts  --      0.3770                 0.3832                 0.4378
 IR Inten    --      2.5975                 0.3176                 4.0132

                     34                     35                     36
                      A                      A                      A
 Frequencies --    825.8375               832.5187               853.9676
 Red. masses --      1.6224                 1.3432                 1.4640
 Frc consts  --      0.6519                 0.5485                 0.6291
 IR Inten    --     39.0740                62.8161                 9.1120

                     37                     38                     39
                      A                      A                      A
 Frequencies --    867.9837               884.3853               900.4587
 Red. masses --      1.9427                 1.4289                 1.6264
 Frc consts  --      0.8624                 0.6585                 0.7770
 IR Inten    --      3.1526               193.5539                 1.3436

                     40                     41                     42
                      A                      A                      A
 Frequencies --    901.5112               938.7851               948.7242
 Red. masses --      1.9705                 1.5951                 1.5280
 Frc consts  --      0.9436                 0.8283                 0.8103
 IR Inten    --      2.0995                 3.8746                 4.4067

                     43                     44                     45
                      A                      A                      A
 Frequencies --    964.9604               982.8176              1006.0624
 Red. masses --      1.8126                 2.2453                 2.6721
 Frc consts  --      0.9944                 1.2778                 1.5935
 IR Inten    --      0.1740                 4.2166                 0.5845

                     46                     47                     48
                      A                      A                      A
 Frequencies --   1015.5285              1033.8411              1044.8140
 Red. masses --      1.9856                 1.8908                 1.4560
 Frc consts  --      1.2065                 1.1907                 0.9365
 IR Inten    --      9.8432                 5.8761                 8.9138

                     49                     50                     51
                      A                      A                      A
 Frequencies --   1046.3490              1066.5944              1069.9750
 Red. masses --      2.5385                 2.3395                 1.4693
 Frc consts  --      1.6375                 1.5681                 0.9911
 IR Inten    --      1.8862                 0.2304                 5.0657

                     52                     53                     54
                      A                      A                      A
 Frequencies --   1072.4304              1089.4969              1093.1244
 Red. masses --      2.7077                 2.3919                 2.0548
 Frc consts  --      1.8348                 1.6728                 1.4466
 IR Inten    --      1.0847                 2.7081                 4.3607

                     55                     56                     57
                      A                      A                      A
 Frequencies --   1110.0605              1137.2190              1148.0080
 Red. masses --      1.7147                 1.9700                 1.6800
 Frc consts  --      1.2449                 1.5011                 1.3045
 IR Inten    --      6.1468                 1.8205                 9.6890

                     58                     59                     60
                      A                      A                      A
 Frequencies --   1166.6559              1178.4674              1211.6489
 Red. masses --      2.3155                 1.7584                 1.7772
 Frc consts  --      1.8568                 1.4388                 1.5373
 IR Inten    --      6.3462                13.3707                 2.9247

                     61                     62                     63
                      A                      A                      A
 Frequencies --   1238.8255              1244.7456              1253.0162
 Red. masses --      1.5391                 1.3227                 1.3789
 Frc consts  --      1.3917                 1.2075                 1.2756
 IR Inten    --      0.1803                 6.9035                 0.1679

                     64                     65                     66
                      A                      A                      A
 Frequencies --   1264.0318              1281.2202              1294.6595
 Red. masses --      1.3606                 1.2760                 1.3070
 Frc consts  --      1.2808                 1.2341                 1.2907
 IR Inten    --      0.4836                 2.6803                 0.5352

                     67                     68                     69
                      A                      A                      A
 Frequencies --   1306.5928              1315.5381              1324.7468
 Red. masses --      1.2960                 1.0865                 1.1552
 Frc consts  --      1.3036                 1.1079                 1.1944
 IR Inten    --      2.3217                 2.3184                 1.9489

                     70                     71                     72
                      A                      A                      A
 Frequencies --   1331.2254              1332.7792              1333.9733
 Red. masses --      1.0578                 1.1904                 1.2066
 Frc consts  --      1.1045                 1.2458                 1.2650
 IR Inten    --      0.6094                 0.9739                 1.5658

                     73                     74                     75
                      A                      A                      A
 Frequencies --   1343.5580              1354.5777              1370.4673
 Red. masses --      1.2661                 1.2922                 1.3752
 Frc consts  --      1.3466                 1.3970                 1.5218
 IR Inten    --      0.0454                 1.4912                 5.6228

                     76                     77                     78
                      A                      A                      A
 Frequencies --   1380.4997              1386.5198              1393.4766
 Red. masses --      1.3605                 1.4727                 1.4574
 Frc consts  --      1.5277                 1.6681                 1.6674
 IR Inten    --      1.3070                 3.7661                 0.5866

                     79                     80                     81
                      A                      A                      A
 Frequencies --   1395.7017              1400.7879              1413.1913
 Red. masses --      1.5251                 1.5394                 1.2465
 Frc consts  --      1.7504                 1.7797                 1.4668
 IR Inten    --      2.1187                 0.0218                 0.4280

                     82                     83                     84
                      A                      A                      A
 Frequencies --   1413.6536              1416.9845              1431.2923
 Red. masses --      1.2883                 1.3737                 1.4741
 Frc consts  --      1.5168                 1.6251                 1.7792
 IR Inten    --     11.5428                 1.2055                23.7208

                     85                     86                     87
                      A                      A                      A
 Frequencies --   1471.0517              1478.1849              1483.4452
 Red. masses --      1.0821                 1.0813                 1.0700
 Frc consts  --      1.3796                 1.3921                 1.3873
 IR Inten    --      0.1132                 0.6582                 0.3293

                     88                     89                     90
                      A                      A                      A
 Frequencies --   1483.9852              1490.3753              1495.2607
 Red. masses --      1.0820                 1.0737                 1.0867
 Frc consts  --      1.4039                 1.4051                 1.4316
 IR Inten    --      0.2289                 0.0073                 0.6748

                     91                     92                     93
                      A                      A                      A
 Frequencies --   1498.2950              1499.1539              1499.8397
 Red. masses --      1.0625                 1.0850                 1.0404
 Frc consts  --      1.4054                 1.4367                 1.3789
 IR Inten    --      0.3318                 1.2899                 4.8650

                     94                     95                     96
                      A                      A                      A
 Frequencies --   1503.3774              1509.0158              1514.3769
 Red. masses --      1.0749                 1.0531                 1.0908
 Frc consts  --      1.4314                 1.4129                 1.4739
 IR Inten    --      1.3958                 5.4257                 4.7980

                     97                     98                     99
                      A                      A                      A
 Frequencies --   1520.5068              1654.8066              1658.1642
 Red. masses --      1.0926                 1.0933                 1.0887
 Frc consts  --      1.4883                 1.7639                 1.7636
 IR Inten    --      1.3849                18.0970                20.8609

                    100                    101                    102
                      A                      A                      A
 Frequencies --   2924.0983              2981.1172              2989.0984
 Red. masses --      1.0730                 1.0795                 1.0725
 Frc consts  --      5.4056                 5.6523                 5.6459
 IR Inten    --     78.9380                 5.4609                 3.5827

                    103                    104                    105
                      A                      A                      A
 Frequencies --   2989.4088              2992.9107              2997.2568
 Red. masses --      1.0655                 1.0619                 1.0672
 Frc consts  --      5.6099                 5.6041                 5.6485
 IR Inten    --      0.2156                 0.3419                 4.6371

                    106                    107                    108
                      A                      A                      A
 Frequencies --   2999.6567              3000.5851              3007.2997
 Red. masses --      1.0591                 1.0647                 1.0647
 Frc consts  --      5.6149                 5.6482                 5.6731
 IR Inten    --      2.5869                 4.0069                 2.6147

                    109                    110                    111
                      A                      A                      A
 Frequencies --   3009.4028              3015.5641              3023.6430
 Red. masses --      1.0681                 1.0639                 1.0916
 Frc consts  --      5.6991                 5.7001                 5.8800
 IR Inten    --    104.8832                89.4074                12.1335

                    112                    113                    114
                      A                      A                      A
 Frequencies --   3026.1280              3027.8185              3028.6585
 Red. masses --      1.0973                 1.0359                 1.0447
 Frc consts  --      5.9204                 5.5951                 5.6459
 IR Inten    --      1.1155                42.7014                15.1307

                    115                    116                    117
                      A                      A                      A
 Frequencies --   3033.0285              3034.3828              3040.9045
 Red. masses --      1.0898                 1.0899                 1.0958
 Frc consts  --      5.9070                 5.9125                 5.9701
 IR Inten    --      8.3160                54.0374                11.4367

                    118                    119                    120
                      A                      A                      A
 Frequencies --   3045.9314              3059.3862              3064.6700
 Red. masses --      1.1022                 1.0992                 1.1027
 Frc consts  --      6.0252                 6.0619                 6.1019
 IR Inten    --      2.6030                33.8543               150.4702

                    121                    122                    123
                      A                      A                      A
 Frequencies --   3093.9333              3097.4460              3099.3668
 Red. masses --      1.1020                 1.0952                 1.1009
 Frc consts  --      6.2153                 6.1909                 6.2310
 IR Inten    --     60.4939                29.4540                41.9083

                    124                    125                    126
                      A                      A                      A
 Frequencies --   3102.0257              3111.4593              3475.9284
 Red. masses --      1.0919                 1.1003                 1.0507
 Frc consts  --      6.1903                 6.2761                 7.4796
 IR Inten    --     26.4609                42.5007                 1.1125

                    127                    128                    129
                      A                      A                      A
 Frequencies --   3480.8111              3558.2853              3567.0356
 Red. masses --      1.0495                 1.0917                 1.0898
 Frc consts  --      7.4916                 8.1437                 8.1700
 IR Inten    --      1.9901                 0.4986                 0.4089

 - Thermochemistry -
 -------------------
 Temperature   298.150 Kelvin.  Pressure   1.00000 Atm.
 Atom     1 has atomic number  6 and mass  12.00000

 Molecular mass:   214.24090 amu.
 Principal axes and moments of inertia in atomic units:
                           1         2         3
     Eigenvalues --   771.23359********************
           X            0.99999   0.00341  -0.00024
           Y           -0.00341   0.99999  -0.00349
           Z            0.00023   0.00349   0.99999
 This molecule is an asymmetric top.
 Rotational symmetry number  1.
 Warning -- assumption of classical behavior for rotation
           may cause significant error
 Rotational temperatures (Kelvin)      0.11231     0.00540     0.00524
 Rotational constants (GHZ):           2.34007     0.11252     0.10923
 Zero-point vibrational energy    1106559.7 (Joules/Mol)
                                  264.47410 (Kcal/Mol)
 Warning -- explicit consideration of  29 degrees of freedom as
           vibrations may cause significant error
 Vibrational temperatures:     26.08    37.76    53.04    71.85    77.75
          (Kelvin)            101.27   122.93   128.27   183.20   183.62
                              201.53   221.15   223.15   252.87   332.67
                              338.58   357.06   365.96   377.05   400.50
                              451.51   485.18   549.90   598.59   634.47
                              666.39   696.87   767.74   803.37  1053.22
                             1078.17  1087.26  1100.47  1188.20  1197.81
                             1228.67  1248.83  1272.43  1295.56  1297.07
                             1350.70  1365.00  1388.36  1414.06  1447.50
                             1461.12  1487.47  1503.25  1505.46  1534.59
                             1539.46  1542.99  1567.54  1572.76  1597.13
                             1636.20  1651.73  1678.56  1695.55  1743.29
                             1782.39  1790.91  1802.81  1818.66  1843.39
                             1862.73  1879.90  1892.77  1906.02  1915.34
                             1917.57  1919.29  1933.08  1948.94  1971.80
                             1986.23  1994.89  2004.90  2008.10  2015.42
                             2033.27  2033.93  2038.72  2059.31  2116.52
                             2126.78  2134.35  2135.12  2144.32  2151.35
                             2155.71  2156.95  2157.93  2163.02  2171.14
                             2178.85  2187.67  2380.90  2385.73  4207.13
                             4289.16  4300.65  4301.09  4306.13  4312.38
                             4315.84  4317.17  4326.83  4329.86  4338.72
                             4350.35  4353.92  4356.36  4357.56  4363.85
                             4365.80  4375.18  4382.42  4401.77  4409.38
                             4451.48  4456.53  4459.30  4463.12  4476.70
                             5001.09  5008.11  5119.58  5132.17

 Zero-point correction=                           0.421466 (Hartree/Particle)
 Thermal correction to Energy=                    0.441978
 Thermal correction to Enthalpy=                  0.442922
 Thermal correction to Gibbs Free Energy=         0.369728
 Sum of electronic and zero-point Energies=           -622.596949
 Sum of electronic and thermal Energies=              -622.576438
 Sum of electronic and thermal Enthalpies=            -622.575493
 Sum of electronic and thermal Free Energies=         -622.648687

                     E (Thermal)             CV                S
                      KCal/Mol        Cal/Mol-Kelvin    Cal/Mol-Kelvin
 Total                  277.345             73.561            154.049
 Electronic               0.000              0.000              0.000
 Translational            0.889              2.981             41.989
 Rotational               0.889              2.981             33.680
 Vibrational            275.568             67.599             78.380
 Vibration     1          0.593              1.986              6.829
 Vibration     2          0.593              1.985              6.095
 Vibration     3          0.594              1.982              5.421
 Vibration     4          0.595              1.978              4.820
 Vibration     5          0.596              1.976              4.664
 Vibration     6          0.598              1.968              4.143
 Vibration     7          0.601              1.959              3.762
 Vibration     8          0.602              1.957              3.679
 Vibration     9          0.611              1.926              2.986
 Vibration    10          0.611              1.926              2.982
 Vibration    11          0.615              1.913              2.803
 Vibration    12          0.619              1.899              2.626
 Vibration    13          0.620              1.897              2.609
 Vibration    14          0.628              1.872              2.373
 Vibration    15          0.653              1.793              1.869
 Vibration    16          0.655              1.787              1.838
 Vibration    17          0.662              1.766              1.744
 Vibration    18          0.665              1.755              1.700
 Vibration    19          0.669              1.742              1.648
 Vibration    20          0.679              1.714              1.544
 Vibration    21          0.702              1.647              1.342
 Vibration    22          0.718              1.601              1.225
 Vibration    23          0.752              1.508              1.030
 Vibration    24          0.779              1.435              0.906
 Vibration    25          0.801              1.381              0.824
 Vibration    26          0.821              1.332              0.757
 Vibration    27          0.840              1.285              0.698
 Vibration    28          0.889              1.176              0.579
 Vibration    29          0.914              1.121              0.527

                           ! Non-Optimized Parameters !
 Normal termination of Gaussian 16 at Thu May 25 02:53:50 2023.
