 Gaussian 16, Revision A.03,
 Gaussian 16:  ES64L-G16RevA.03 25-Dec-2016

 -----------------------------
 # opt freq b3lyp/6-31g(2df,p)
 -----------------------------

 -------------------
 Title Card Required
 -------------------
 Symbolic Z-matrix:
 Charge =  0 Multiplicity = 1

 SCF Done:  E(RB3LYP) =  -432.459882349     A.U. after   12 cycles
 SCF Done:  E(RB3LYP) =  -432.464916772     A.U. after   10 cycles
 SCF Done:  E(RB3LYP) =  -432.465811246     A.U. after    9 cycles
 SCF Done:  E(RB3LYP) =  -432.466258387     A.U. after    9 cycles
 SCF Done:  E(RB3LYP) =  -432.466994343     A.U. after   10 cycles
 SCF Done:  E(RB3LYP) =  -432.468345499     A.U. after    9 cycles
 SCF Done:  E(RB3LYP) =  -432.471428884     A.U. after   10 cycles
 SCF Done:  E(RB3LYP) =  -432.472462020     A.U. after   10 cycles
 SCF Done:  E(RB3LYP) =  -432.472627608     A.U. after   10 cycles
 SCF Done:  E(RB3LYP) =  -432.472753193     A.U. after    8 cycles
 SCF Done:  E(RB3LYP) =  -432.472881104     A.U. after    7 cycles
 SCF Done:  E(RB3LYP) =  -432.472859859     A.U. after    9 cycles
 SCF Done:  E(RB3LYP) =  -432.472887608     A.U. after    9 cycles
 SCF Done:  E(RB3LYP) =  -432.472866876     A.U. after    9 cycles
 SCF Done:  E(RB3LYP) =  -432.472893081     A.U. after    8 cycles
 SCF Done:  E(RB3LYP) =  -432.472892974     A.U. after    7 cycles
 SCF Done:  E(RB3LYP) =  -432.472888258     A.U. after    8 cycles
 SCF Done:  E(RB3LYP) =  -432.472894583     A.U. after    8 cycles
 SCF Done:  E(RB3LYP) =  -432.472894718     A.U. after    6 cycles
 Optimization completed.
    -- Stationary point found.
 Normal termination of Gaussian 16 at Sun May 28 18:38:55 2023.

 ----------------------------------------------------------------------
 #N Geom=AllCheck Guess=TCheck SCRF=Check GenChk RB3LYP/6-31G(2df,p) Fr
 eq
 ----------------------------------------------------------------------

 Structure from the checkpoint file:  "CCCCCqCrC1CCCC1.chk"
 -------------------
 Title Card Required
 -------------------
 Charge =  0 Multiplicity = 1

                         Standard orientation:
 ---------------------------------------------------------------------
 Center     Atomic      Atomic             Coordinates (Angstroms)
 Number     Number       Type             X           Y           Z
 ---------------------------------------------------------------------
      1          6           0        4.956390   -0.411686    0.318690
      2          6           0        3.571651   -0.794702   -0.210439
      3          6           0        2.473472    0.194711    0.197300
      4          6           0        1.089790   -0.190667   -0.342073
      5          6           0       -0.078818    0.687503    0.148906
      6          6           0        0.106512    2.157250   -0.262586
      7          6           0       -1.438915    0.149290   -0.338325
      8          6           0       -1.751129   -1.316808    0.028766
      9          6           0       -3.267886   -1.427207   -0.174348
     10          6           0       -3.814752   -0.100565    0.392417
     11          6           0       -2.666887    0.933229    0.210821
     12          1           0        5.717420   -1.136654    0.012883
     13          1           0        4.962702   -0.364624    1.413528
     14          1           0        5.264893    0.571541   -0.054085
     15          1           0        3.306506   -1.798124    0.148567
     16          1           0        3.604908   -0.865950   -1.305900
     17          1           0        2.753818    1.196252   -0.151612
     18          1           0        2.432326    0.255858    1.294423
     19          1           0        0.893933   -1.232170   -0.060994
     20          1           0        1.112004   -0.173489   -1.441957
     21          1           0       -0.088873    0.642478    1.249921
     22          1           0        0.152504    2.251141   -1.354872
     23          1           0        1.028436    2.580256    0.145437
     24          1           0       -0.720759    2.779947    0.088883
     25          1           0       -1.450636    0.221240   -1.436576
     26          1           0       -1.498181   -1.497735    1.083311
     27          1           0       -1.191236   -2.041168   -0.568817
     28          1           0       -3.706300   -2.308586    0.302984
     29          1           0       -3.487192   -1.499677   -1.246872
     30          1           0       -4.051234   -0.217786    1.455218
     31          1           0       -4.740310    0.210375   -0.100116
     32          1           0       -2.417094    1.397323    1.171714
     33          1           0       -2.954205    1.747461   -0.459836
 ---------------------------------------------------------------------

 SCF Done:  E(RB3LYP) =  -432.472894718     A.U. after    1 cycles

 The electronic state is 1-A.
 Alpha  occ. eigenvalues --  -10.17801 -10.17431 -10.17401 -10.17103 -10.17093
 Alpha  occ. eigenvalues --  -10.17073 -10.16924 -10.16911 -10.16909 -10.16838
 Alpha  occ. eigenvalues --  -10.16482  -0.83318  -0.79715  -0.76544  -0.70826
 Alpha  occ. eigenvalues --   -0.69869  -0.68292  -0.63508  -0.58402  -0.56670
 Alpha  occ. eigenvalues --   -0.55719  -0.54104  -0.47279  -0.46585  -0.46086
 Alpha  occ. eigenvalues --   -0.43531  -0.41783  -0.40887  -0.40449  -0.39603
 Alpha  occ. eigenvalues --   -0.39309  -0.37632  -0.35482  -0.34482  -0.34221
 Alpha  occ. eigenvalues --   -0.33138  -0.32566  -0.32477  -0.32027  -0.31614
 Alpha  occ. eigenvalues --   -0.31188  -0.30180  -0.29708  -0.28881
 Alpha virt. eigenvalues --    0.08292   0.09492   0.09638   0.11020   0.11961
 Alpha virt. eigenvalues --    0.12802   0.13923   0.14708   0.15292   0.15798
 Alpha virt. eigenvalues --    0.16423   0.16812   0.17358   0.18056   0.18449

 Mulliken charges:
               1
     1  C   -0.380018
     2  C   -0.162224
     3  C   -0.172200
     4  C   -0.184849
     5  C    0.000029
     6  C   -0.400131
     7  C    0.071486
     8  C   -0.217672
     9  C   -0.206891
    10  C   -0.207722
    11  C   -0.221545
    12  H    0.109212
    13  H    0.112106
    14  H    0.112207
    15  H    0.092624
    16  H    0.092810
    17  H    0.094762
    18  H    0.088291
    19  H    0.093013
    20  H    0.085677
    21  H    0.061425
    22  H    0.107189
    23  H    0.112642
    24  H    0.113792
    25  H    0.060368
    26  H    0.088755
    27  H    0.093767
    28  H    0.088913
    29  H    0.093877
    30  H    0.096459
    31  H    0.092906
    32  H    0.094011
    33  H    0.096930
 Sum of Mulliken charges =  -0.00000

 Dipole moment (field-independent basis, Debye):
    X=             -0.0604    Y=             -0.0619    Z=             -0.0260  Tot=              0.0903
 Quadrupole moment (field-independent basis, Debye-Ang):
   XX=            -74.1815   YY=            -73.5075   ZZ=            -71.9061
   XY=             -0.1620   XZ=             -0.0392   YZ=             -0.3146

  Exact polarizability: 143.660   0.592 112.571  -0.376   0.241 100.150
 Approx polarizability: 163.578   0.145 160.445  -0.222  -0.469 161.929

                      1                      2                      3
                      A                      A                      A
 Frequencies --     31.3362                48.3152                69.0811
 Red. masses --      2.2882                 1.8094                 2.1083
 Frc consts  --      0.0013                 0.0025                 0.0059
 IR Inten    --      0.0032                 0.0015                 0.0057

                      4                      5                      6
                      A                      A                      A
 Frequencies --     87.7039               104.8724               133.5245
 Red. masses --      2.8141                 2.5111                 1.9762
 Frc consts  --      0.0128                 0.0163                 0.0208
 IR Inten    --      0.0127                 0.0051                 0.0096

                      7                      8                      9
                      A                      A                      A
 Frequencies --    176.8348               203.4176               234.5886
 Red. masses --      1.9816                 2.3207                 1.1759
 Frc consts  --      0.0365                 0.0566                 0.0381
 IR Inten    --      0.0156                 0.0068                 0.0061

                     10                     11                     12
                      A                      A                      A
 Frequencies --    247.7120               272.8239               310.1270
 Red. masses --      1.1617                 3.8107                 2.2178
 Frc consts  --      0.0420                 0.1671                 0.1257
 IR Inten    --      0.0014                 0.0814                 0.0488

                     13                     14                     15
                      A                      A                      A
 Frequencies --    353.3921               392.3084               455.5178
 Red. masses --      2.1103                 2.7775                 2.7085
 Frc consts  --      0.1553                 0.2519                 0.3311
 IR Inten    --      0.0665                 0.0906                 0.3577

                     16                     17                     18
                      A                      A                      A
 Frequencies --    508.3459               566.5868               625.0063
 Red. masses --      2.2727                 1.9775                 2.8089
 Frc consts  --      0.3460                 0.3740                 0.6465
 IR Inten    --      0.0171                 0.5126                 0.3017

                     19                     20                     21
                      A                      A                      A
 Frequencies --    735.6510               776.7387               788.5436
 Red. masses --      1.0863                 1.2682                 1.2192
 Frc consts  --      0.3464                 0.4508                 0.4467
 IR Inten    --      2.7158                 0.2208                 0.5268

                     22                     23                     24
                      A                      A                      A
 Frequencies --    824.5744               866.4558               879.9704
 Red. masses --      1.9845                 2.1536                 2.6660
 Frc consts  --      0.7950                 0.9526                 1.2163
 IR Inten    --      0.5662                 0.3691                 1.0565

                     25                     26                     27
                      A                      A                      A
 Frequencies --    903.6851               905.9429               915.1393
 Red. masses --      1.8615                 2.4686                 1.2400
 Frc consts  --      0.8957                 1.1937                 0.6119
 IR Inten    --      2.4124                 0.4681                 1.0370

                     28                     29                     30
                      A                      A                      A
 Frequencies --    934.9316               961.9835               979.1917
 Red. masses --      1.6644                 1.7334                 1.6826
 Frc consts  --      0.8572                 0.9451                 0.9506
 IR Inten    --      0.8362                 1.6771                 1.7286

                     31                     32                     33
                      A                      A                      A
 Frequencies --   1010.3402              1017.5310              1025.5021
 Red. masses --      1.3966                 1.4433                 2.3727
 Frc consts  --      0.8399                 0.8804                 1.4702
 IR Inten    --      0.1859                 0.2609                 0.5754

                     34                     35                     36
                      A                      A                      A
 Frequencies --   1043.2618              1064.0266              1077.6349
 Red. masses --      1.9775                 2.5761                 2.5792
 Frc consts  --      1.2681                 1.7184                 1.7647
 IR Inten    --      0.3864                 0.6604                 0.2930

                     37                     38                     39
                      A                      A                      A
 Frequencies --   1093.9994              1113.2991              1152.5964
 Red. masses --      2.1996                 1.4450                 2.7118
 Frc consts  --      1.5511                 1.0552                 2.1226
 IR Inten    --      0.8345                 0.1716                 0.1072

                     40                     41                     42
                      A                      A                      A
 Frequencies --   1182.3015              1199.1598              1211.6554
 Red. masses --      1.8241                 1.4453                 1.8022
 Frc consts  --      1.5023                 1.2245                 1.5589
 IR Inten    --      7.3363                 0.7973                 1.0128

                     43                     44                     45
                      A                      A                      A
 Frequencies --   1227.3009              1246.5801              1268.8744
 Red. masses --      1.4624                 1.4754                 1.2674
 Frc consts  --      1.2978                 1.3508                 1.2023
 IR Inten    --      0.2204                 2.6195                 1.5356

                     46                     47                     48
                      A                      A                      A
 Frequencies --   1284.9100              1294.3509              1305.7882
 Red. masses --      1.2657                 1.2851                 1.2816
 Frc consts  --      1.2311                 1.2685                 1.2875
 IR Inten    --      1.7341                 0.1285                 0.6230

                     49                     50                     51
                      A                      A                      A
 Frequencies --   1317.3401              1324.0589              1332.4405
 Red. masses --      1.2323                 1.2597                 1.0709
 Frc consts  --      1.2599                 1.3012                 1.1202
 IR Inten    --      1.4071                 0.6896                 0.4294

                     52                     53                     54
                      A                      A                      A
 Frequencies --   1344.4162              1346.4388              1350.1519
 Red. masses --      1.2521                 1.2901                 1.3820
 Frc consts  --      1.3334                 1.3780                 1.4843
 IR Inten    --      0.6309                 1.7290                 1.4074

                     55                     56                     57
                      A                      A                      A
 Frequencies --   1360.3384              1375.9844              1390.8785
 Red. masses --      1.3565                 1.4344                 1.5103
 Frc consts  --      1.4790                 1.6001                 1.7215
 IR Inten    --      1.9860                 4.2826                 1.0728

                     58                     59                     60
                      A                      A                      A
 Frequencies --   1398.1963              1410.7393              1413.5053
 Red. masses --      1.5596                 1.2340                 1.2593
 Frc consts  --      1.7964                 1.4470                 1.4825
 IR Inten    --      0.2747                 3.5072                 3.7498

                     61                     62                     63
                      A                      A                      A
 Frequencies --   1480.1226              1485.9238              1488.9347
 Red. masses --      1.0756                 1.0663                 1.0766
 Frc consts  --      1.3884                 1.3871                 1.4063
 IR Inten    --      0.0581                 0.6559                 0.4811

                     64                     65                     66
                      A                      A                      A
 Frequencies --   1490.8752              1495.1795              1498.5296
 Red. masses --      1.0899                 1.0872                 1.0630
 Frc consts  --      1.4273                 1.4320                 1.4064
 IR Inten    --      0.8289                 2.4780                 0.2336

                     67                     68                     69
                      A                      A                      A
 Frequencies --   1499.7065              1500.4019              1507.5100
 Red. masses --      1.0412                 1.0695                 1.0476
 Frc consts  --      1.3798                 1.4186                 1.4027
 IR Inten    --      4.9573                 0.7440                 4.9469

                     70                     71                     72
                      A                      A                      A
 Frequencies --   1512.9665              1517.2536              2970.2782
 Red. masses --      1.0883                 1.1016                 1.0791
 Frc consts  --      1.4677                 1.4941                 5.6091
 IR Inten    --      3.4852                 0.2572                 2.3990

                     73                     74                     75
                      A                      A                      A
 Frequencies --   2985.0092              2998.5789              3005.3402
 Red. masses --      1.0821                 1.0660                 1.0615
 Frc consts  --      5.6810                 5.6470                 5.6487
 IR Inten    --     15.2234                 4.0622                 9.2912

                     76                     77                     78
                      A                      A                      A
 Frequencies --   3010.6690              3015.1238              3027.2404
 Red. masses --      1.0693                 1.0621                 1.0378
 Frc consts  --      5.7107                 5.6890                 5.6033
 IR Inten    --     27.1139                65.2653                42.8935

                     79                     80                     81
                      A                      A                      A
 Frequencies --   3028.2489              3029.1267              3033.3047
 Red. masses --      1.0471                 1.0623                 1.0799
 Frc consts  --      5.6577                 5.7428                 5.8540
 IR Inten    --     19.1229                40.8259                 2.5816

                     82                     83                     84
                      A                      A                      A
 Frequencies --   3033.6465              3046.4113              3048.3969
 Red. masses --      1.0727                 1.0971                 1.0645
 Frc consts  --      5.8163                 5.9987                 5.8282
 IR Inten    --     23.3398                 0.4251                46.5545

                     85                     86                     87
                      A                      A                      A
 Frequencies --   3066.7308              3072.9683              3083.6291
 Red. masses --      1.1012                 1.0969                 1.0972
 Frc consts  --      6.1017                 6.1028                 6.1471
 IR Inten    --     59.5825                27.6386                19.4067

                     88                     89                     90
                      A                      A                      A
 Frequencies --   3088.2093              3093.6357              3097.2899
 Red. masses --      1.0959                 1.1020                 1.0945
 Frc consts  --      6.1579                 6.2139                 6.1865
 IR Inten    --     34.8555                61.9173                28.8970

                     91                     92                     93
                      A                      A                      A
 Frequencies --   3098.6455              3098.7215              3113.7760
 Red. masses --      1.1037                 1.1009                 1.1006
 Frc consts  --      6.2437                 6.2284                 6.2870
 IR Inten    --     71.5458                46.5537                38.5754

 - Thermochemistry -
 -------------------
 Temperature   298.150 Kelvin.  Pressure   1.00000 Atm.
 Atom     1 has atomic number  6 and mass  12.00000

 Molecular mass:   154.17215 amu.
 Principal axes and moments of inertia in atomic units:
                           1         2         3
     Eigenvalues --   732.482764382.048594908.44210
           X            1.00000  -0.00126   0.00077
           Y            0.00126   1.00000   0.00027
           Z           -0.00077  -0.00027   1.00000
 This molecule is an asymmetric top.
 Rotational symmetry number  1.
 Warning -- assumption of classical behavior for rotation
           may cause significant error
 Rotational temperatures (Kelvin)      0.11825     0.01977     0.01765
 Rotational constants (GHZ):           2.46387     0.41185     0.36768
 Zero-point vibrational energy     813462.4 (Joules/Mol)
                                  194.42217 (Kcal/Mol)
 Warning -- explicit consideration of  17 degrees of freedom as
           vibrations may cause significant error
 Vibrational temperatures:     45.09    69.51    99.39   126.19   150.89
          (Kelvin)            192.11   254.43   292.67   337.52   356.40
                              392.53   446.20   508.45   564.44   655.39
                              731.40   815.19   899.24  1058.44  1117.55
                             1134.54  1186.38  1246.64  1266.08  1300.20
                             1303.45  1316.68  1345.16  1384.08  1408.84
                             1453.65  1464.00  1475.47  1501.02  1530.90
                             1550.48  1574.02  1601.79  1658.33  1701.07
                             1725.32  1743.30  1765.81  1793.55  1825.63
                             1848.70  1862.28  1878.74  1895.36  1905.03
                             1917.08  1934.32  1937.23  1942.57  1957.22
                             1979.73  2001.16  2011.69  2029.74  2033.72
                             2129.57  2137.91  2142.24  2145.04  2151.23
                             2156.05  2157.74  2158.74  2168.97  2176.82
                             2182.99  4273.57  4294.76  4314.29  4324.01
                             4331.68  4338.09  4355.52  4356.97  4358.24
                             4364.25  4364.74  4383.11  4385.96  4412.34
                             4421.32  4436.65  4443.24  4451.05  4456.31
                             4458.26  4458.37  4480.03

 Zero-point correction=                           0.309831 (Hartree/Particle)
 Thermal correction to Energy=                    0.323111
 Thermal correction to Enthalpy=                  0.324055
 Thermal correction to Gibbs Free Energy=         0.269089
 Sum of electronic and zero-point Energies=           -432.163063
 Sum of electronic and thermal Energies=              -432.149784
 Sum of electronic and thermal Enthalpies=            -432.148840
 Sum of electronic and thermal Free Energies=         -432.203805

                     E (Thermal)             CV                S
                      KCal/Mol        Cal/Mol-Kelvin    Cal/Mol-Kelvin
 Total                  202.755             49.310            115.684
 Electronic               0.000              0.000              0.000
 Translational            0.889              2.981             41.008
 Rotational               0.889              2.981             31.133
 Vibrational            200.977             43.348             43.543
 Vibration     1          0.594              1.983              5.743
 Vibration     2          0.595              1.978              4.885
 Vibration     3          0.598              1.969              4.179
 Vibration     4          0.601              1.958              3.711
 Vibration     5          0.605              1.945              3.362
 Vibration     6          0.613              1.920              2.895
 Vibration     7          0.628              1.871              2.362
 Vibration     8          0.639              1.835              2.102
 Vibration     9          0.654              1.788              1.844
 Vibration    10          0.661              1.767              1.747
 Vibration    11          0.676              1.723              1.578
 Vibration    12          0.699              1.654              1.362
 Vibration    13          0.730              1.568              1.151
 Vibration    14          0.760              1.487              0.991
 Vibration    15          0.814              1.349              0.779
 Vibration    16          0.864              1.232              0.638
 Vibration    17          0.922              1.104              0.511

 Optimization completed.
    -- Stationary point found.
 Normal termination of Gaussian 16 at Sun May 28 19:56:13 2023.
