 Gaussian 16, Revision A.03,
 Gaussian 16:  ES64L-G16RevA.03 25-Dec-2016

 -----------------------------
 # opt freq b3lyp/6-31g(2df,p)
 -----------------------------

 -------------------
 Title Card Required
 -------------------
 Symbolic Z-matrix:
 Charge =  0 Multiplicity = 1

 SCF Done:  E(RB3LYP) =  -772.535041086     A.U. after   13 cycles
 SCF Done:  E(RB3LYP) =  -772.540195515     A.U. after   11 cycles
 SCF Done:  E(RB3LYP) =  -772.540769112     A.U. after   11 cycles
 SCF Done:  E(RB3LYP) =  -772.541063352     A.U. after   10 cycles
 SCF Done:  E(RB3LYP) =  -772.541731334     A.U. after   12 cycles
 SCF Done:  E(RB3LYP) =  -772.542357976     A.U. after   11 cycles
 SCF Done:  E(RB3LYP) =  -772.544268548     A.U. after   11 cycles
 SCF Done:  E(RB3LYP) =  -772.544589720     A.U. after   10 cycles
 SCF Done:  E(RB3LYP) =  -772.544648431     A.U. after   10 cycles
 SCF Done:  E(RB3LYP) =  -772.544697678     A.U. after    9 cycles
 SCF Done:  E(RB3LYP) =  -772.548661490     A.U. after   12 cycles
 SCF Done:  E(RB3LYP) =  -772.548873516     A.U. after   12 cycles
 SCF Done:  E(RB3LYP) =  -772.548689449     A.U. after   13 cycles
 SCF Done:  E(RB3LYP) =  -772.548967683     A.U. after   12 cycles
 SCF Done:  E(RB3LYP) =  -772.548995119     A.U. after   11 cycles
 SCF Done:  E(RB3LYP) =  -772.549077960     A.U. after   10 cycles
 SCF Done:  E(RB3LYP) =  -772.549123198     A.U. after    9 cycles
 SCF Done:  E(RB3LYP) =  -772.549143605     A.U. after   10 cycles
 SCF Done:  E(RB3LYP) =  -772.549144300     A.U. after    8 cycles
 Optimization completed.
    -- Stationary point found.
 Normal termination of Gaussian 16 at Sun May 28 10:40:58 2023.

 ----------------------------------------------------------------------
 #N Geom=AllCheck Guess=TCheck SCRF=Check GenChk RB3LYP/6-31G(2df,p) Fr
 eq
 ----------------------------------------------------------------------

 Structure from the checkpoint file:  "CCCCOCOCCqCrCdCCCOO.chk"
 -------------------
 Title Card Required
 -------------------
 Charge =  0 Multiplicity = 1

                         Standard orientation:
 ---------------------------------------------------------------------
 Center     Atomic      Atomic             Coordinates (Angstroms)
 Number     Number       Type             X           Y           Z
 ---------------------------------------------------------------------
      1          6           0       -8.345049    0.224314   -0.700061
      2          6           0       -7.174148   -0.500672   -0.031030
      3          6           0       -5.817356    0.127359   -0.364663
      4          6           0       -4.653946   -0.593787    0.300726
      5          8           0       -3.452149    0.055613   -0.065514
      6          6           0       -2.323634   -0.532163    0.495576
      7          8           0       -1.236854    0.208528    0.038658
      8          6           0        0.001351   -0.258837    0.533639
      9          6           0        1.120458    0.641094   -0.006687
     10          6           0        0.907352    2.103385    0.421651
     11          6           0        2.457419    0.123588    0.452069
     12          6           0        3.414821   -0.355490   -0.338976
     13          6           0        4.751169   -0.859516    0.127672
     14          6           0        5.898032    0.001645   -0.409682
     15          8           0        7.101140   -0.627409    0.005161
     16          8           0        8.190300    0.224547   -0.412489
     17          1           0       -9.301347   -0.243258   -0.446098
     18          1           0       -8.246323    0.211412   -1.791040
     19          1           0       -8.392082    1.272740   -0.385843
     20          1           0       -7.174186   -1.555171   -0.337526
     21          1           0       -7.318876   -0.501471    1.057525
     22          1           0       -5.801008    1.178468   -0.051904
     23          1           0       -5.655977    0.122796   -1.449491
     24          1           0       -4.627941   -1.652153   -0.012274
     25          1           0       -4.774158   -0.586404    1.398139
     26          1           0       -2.234435   -1.595133    0.183719
     27          1           0       -2.375550   -0.510188    1.605579
     28          1           0        0.173772   -1.301115    0.219818
     29          1           0        0.004737   -0.244012    1.638212
     30          1           0        1.075867    0.584844   -1.101299
     31          1           0        0.981136    2.204404    1.511129
     32          1           0       -0.082214    2.449231    0.115624
     33          1           0        1.665178    2.752374   -0.026217
     34          1           0        2.631253    0.155391    1.529495
     35          1           0        3.244602   -0.381930   -1.416000
     36          1           0        4.909332   -1.889797   -0.217976
     37          1           0        4.796200   -0.875377    1.221256
     38          1           0        5.845392    1.019685   -0.004885
     39          1           0        5.860487    0.066271   -1.507614
     40          1           0        8.557829   -0.297362   -1.140256
 ---------------------------------------------------------------------

 SCF Done:  E(RB3LYP) =  -772.549144300     A.U. after    1 cycles

 The electronic state is 1-A.
 Alpha  occ. eigenvalues --  -19.18846 -19.18626 -19.14311 -19.14095 -10.27324
 Alpha  occ. eigenvalues --  -10.22993 -10.22974 -10.22867 -10.19133 -10.19112
 Alpha  occ. eigenvalues --  -10.18660 -10.18337 -10.18294 -10.17823 -10.17383
 Alpha  occ. eigenvalues --  -10.16893  -1.11167  -1.06916  -1.01381  -0.90844
 Alpha  occ. eigenvalues --   -0.81989  -0.79620  -0.77776  -0.73226  -0.70591
 Alpha  occ. eigenvalues --   -0.68553  -0.64578  -0.61969  -0.61577  -0.58331
 Alpha  occ. eigenvalues --   -0.57688  -0.55680  -0.52590  -0.50677  -0.50359
 Alpha  occ. eigenvalues --   -0.49631  -0.48239  -0.47310  -0.45434  -0.45032
 Alpha  occ. eigenvalues --   -0.44306  -0.42835  -0.42316  -0.41324  -0.40789
 Alpha  occ. eigenvalues --   -0.40474  -0.39500  -0.38127  -0.36662  -0.36441
 Alpha  occ. eigenvalues --   -0.35919  -0.35097  -0.34830  -0.34015  -0.33567
 Alpha  occ. eigenvalues --   -0.32974  -0.32633  -0.32299  -0.31634  -0.29313
 Alpha  occ. eigenvalues --   -0.26833  -0.26044  -0.25010  -0.24915
 Alpha virt. eigenvalues --    0.01388   0.03983   0.08342   0.08499   0.09222
 Alpha virt. eigenvalues --    0.10140   0.10454   0.11452   0.12230   0.12693
 Alpha virt. eigenvalues --    0.13389   0.14405   0.14540   0.14904   0.15526

 Mulliken charges:
               1
     1  C   -0.379625
     2  C   -0.166204
     3  C   -0.178214
     4  C   -0.055865
     5  O   -0.235383
     6  C    0.058589
     7  O   -0.237268
     8  C   -0.051721
     9  C   -0.055325
    10  C   -0.389379
    11  C   -0.037224
    12  C   -0.070563
    13  C   -0.267796
    14  C    0.000743
    15  O   -0.189789
    16  O   -0.323115
    17  H    0.111696
    18  H    0.116249
    19  H    0.116317
    20  H    0.096176
    21  H    0.096230
    22  H    0.106884
    23  H    0.106905
    24  H    0.086619
    25  H    0.086554
    26  H    0.066307
    27  H    0.066313
    28  H    0.091930
    29  H    0.084541
    30  H    0.083946
    31  H    0.108086
    32  H    0.139853
    33  H    0.113520
    34  H    0.080625
    35  H    0.083276
    36  H    0.115049
    37  H    0.113919
    38  H    0.111261
    39  H    0.086261
    40  H    0.309619
 Sum of Mulliken charges =  -0.00000

 Dipole moment (field-independent basis, Debye):
    X=             -1.1898    Y=             -1.6753    Z=             -0.4090  Tot=              2.0951
 Quadrupole moment (field-independent basis, Debye-Ang):
   XX=            -99.9443   YY=           -100.0463   ZZ=            -95.4318
   XY=              0.4161   XZ=            -14.9932   YZ=              1.4126

  Exact polarizability: 221.749  -6.337 126.913  -7.730   1.755 126.610
 Approx polarizability: 232.306  -7.524 190.409 -13.872   3.898 199.929

                      1                      2                      3
                      A                      A                      A
 Frequencies --     11.9755                23.0675                29.3017
 Red. masses --      4.9339                 3.3209                 3.8258
 Frc consts  --      0.0004                 0.0010                 0.0019
 IR Inten    --      0.0492                 0.4496                 0.8909

                      4                      5                      6
                      A                      A                      A
 Frequencies --     35.2384                59.2882                63.9605
 Red. masses --      2.1708                 4.3347                 4.3076
 Frc consts  --      0.0016                 0.0090                 0.0104
 IR Inten    --      1.0162                 0.1543                 0.9121

                      7                      8                      9
                      A                      A                      A
 Frequencies --     73.6224                85.2444                99.4280
 Red. masses --      2.8199                 3.0743                 2.1829
 Frc consts  --      0.0090                 0.0132                 0.0127
 IR Inten    --      4.8279                 3.8007                 4.4061

                     10                     11                     12
                      A                      A                      A
 Frequencies --    112.9100               124.1142               133.4565
 Red. masses --      3.4676                 3.0837                 2.4145
 Frc consts  --      0.0260                 0.0280                 0.0253
 IR Inten    --      1.9015                 2.3849                 0.3658

                     13                     14                     15
                      A                      A                      A
 Frequencies --    139.5315               149.3858               198.6444
 Red. masses --      2.5480                 3.6063                 2.2128
 Frc consts  --      0.0292                 0.0474                 0.0514
 IR Inten    --      1.6084                 0.9193                 4.1573

                     16                     17                     18
                      A                      A                      A
 Frequencies --    213.0684               221.3706               223.7474
 Red. masses --      2.1806                 2.0703                 1.1999
 Frc consts  --      0.0583                 0.0598                 0.0354
 IR Inten    --     14.6490                 7.2206                77.4695

                     19                     20                     21
                      A                      A                      A
 Frequencies --    235.3341               249.0814               263.6794
 Red. masses --      1.9942                 1.1205                 2.3814
 Frc consts  --      0.0651                 0.0410                 0.0976
 IR Inten    --      1.9575                 0.0292                 1.1238

                     22                     23                     24
                      A                      A                      A
 Frequencies --    307.6302               346.0147               395.9663
 Red. masses --      4.4861                 3.0736                 3.0862
 Frc consts  --      0.2501                 0.2168                 0.2851
 IR Inten    --      0.3664                 0.3521                 0.7709

                     25                     26                     27
                      A                      A                      A
 Frequencies --    429.2601               454.1772               485.0218
 Red. masses --      3.8415                 2.5028                 3.5294
 Frc consts  --      0.4171                 0.3042                 0.4892
 IR Inten    --      4.4315                 1.6385                 1.7521

                     28                     29                     30
                      A                      A                      A
 Frequencies --    503.6173               568.8316               598.1466
 Red. masses --      3.7433                 3.4909                 3.6985
 Frc consts  --      0.5594                 0.6655                 0.7796
 IR Inten    --     18.2969                 0.6040                 0.1719

                     31                     32                     33
                      A                      A                      A
 Frequencies --    744.7031               801.7299               815.2051
 Red. masses --      1.0722                 1.2027                 1.1307
 Frc consts  --      0.3504                 0.4555                 0.4427
 IR Inten    --      2.6372                 0.8255                 0.3154

                     34                     35                     36
                      A                      A                      A
 Frequencies --    853.0541               875.8318               908.7121
 Red. masses --      1.7956                 2.3141                 1.8390
 Frc consts  --      0.7699                 1.0459                 0.8947
 IR Inten    --      0.6374                 0.2226                 3.6583

                     37                     38                     39
                      A                      A                      A
 Frequencies --    931.5404               936.8501               953.1947
 Red. masses --      1.3329                 3.3190                 1.2236
 Frc consts  --      0.6815                 1.7163                 0.6550
 IR Inten    --      5.9000                19.2508                 0.2250

                     40                     41                     42
                      A                      A                      A
 Frequencies --    953.3033              1012.8969              1018.9685
 Red. masses --      2.1590                 2.1068                 2.1112
 Frc consts  --      1.1560                 1.2735                 1.2915
 IR Inten    --      1.2710                13.3225                 7.5011

                     43                     44                     45
                      A                      A                      A
 Frequencies --   1027.8790              1034.1046              1043.9789
 Red. masses --      1.6143                 2.5948                 3.8189
 Frc consts  --      1.0049                 1.6349                 2.4523
 IR Inten    --     16.2622                32.8426                10.1196

                     46                     47                     48
                      A                      A                      A
 Frequencies --   1069.5157              1081.9464              1089.9937
 Red. masses --      2.5172                 2.9709                 5.0277
 Frc consts  --      1.6965                 2.0491                 3.5194
 IR Inten    --     18.6008                23.3004                13.6940

                     49                     50                     51
                      A                      A                      A
 Frequencies --   1094.7991              1121.9475              1150.7802
 Red. masses --      1.9940                 3.1532                 3.4598
 Frc consts  --      1.4081                 2.3386                 2.6995
 IR Inten    --      4.1675                 6.5547                17.8222

                     52                     53                     54
                      A                      A                      A
 Frequencies --   1154.6367              1167.4971              1174.4770
 Red. masses --      1.6155                 4.9583                 1.8019
 Frc consts  --      1.2690                 3.9819                 1.4644
 IR Inten    --     21.1506               598.9366                12.3153

                     55                     56                     57
                      A                      A                      A
 Frequencies --   1178.8451              1200.0271              1204.1278
 Red. masses --      2.4325                 1.6958                 4.3646
 Frc consts  --      1.9916                 1.4388                 3.7285
 IR Inten    --    123.7728                 9.1221                15.8190

                     58                     59                     60
                      A                      A                      A
 Frequencies --   1220.5156              1247.0506              1257.3313
 Red. masses --      1.3096                 1.1416                 1.2515
 Frc consts  --      1.1494                 1.0460                 1.1657
 IR Inten    --      6.2665                 0.3628                 6.1182

                     61                     62                     63
                      A                      A                      A
 Frequencies --   1261.5675              1281.2516              1290.2575
 Red. masses --      1.2083                 1.2372                 1.1354
 Frc consts  --      1.1330                 1.1967                 1.1136
 IR Inten    --      3.7085                 3.5638                 1.1607

                     64                     65                     66
                      A                      A                      A
 Frequencies --   1295.1603              1303.2342              1313.3753
 Red. masses --      1.3327                 1.3410                 1.1123
 Frc consts  --      1.3171                 1.3419                 1.1304
 IR Inten    --      7.1695                 0.1186                 0.1260

                     67                     68                     69
                      A                      A                      A
 Frequencies --   1324.4571              1335.3774              1349.8796
 Red. masses --      1.0898                 1.2556                 1.2686
 Frc consts  --      1.1264                 1.3192                 1.3620
 IR Inten    --      0.0433                 0.2097                 8.5171

                     70                     71                     72
                      A                      A                      A
 Frequencies --   1375.0284              1385.7556              1386.7316
 Red. masses --      1.3453                 1.2229                 1.3300
 Frc consts  --      1.4986                 1.3836                 1.5069
 IR Inten    --     20.8864                16.3031                30.3278

                     73                     74                     75
                      A                      A                      A
 Frequencies --   1395.7676              1401.6923              1406.4357
 Red. masses --      1.2790                 1.3858                 1.2969
 Frc consts  --      1.4681                 1.6041                 1.5115
 IR Inten    --      9.8615                 5.0079                92.2673

                     76                     77                     78
                      A                      A                      A
 Frequencies --   1413.2443              1426.4752              1481.8839
 Red. masses --      1.2427                 1.4132                 1.2922
 Frc consts  --      1.4624                 1.6943                 1.6719
 IR Inten    --      3.4862                13.3115                46.6327

                     79                     80                     81
                      A                      A                      A
 Frequencies --   1486.0320              1487.9072              1493.7369
 Red. masses --      1.0908                 1.0659                 1.0619
 Frc consts  --      1.4193                 1.3903                 1.3959
 IR Inten    --      2.3256                 1.3053                 3.6784

                     82                     83                     84
                      A                      A                      A
 Frequencies --   1496.3017              1499.9576              1502.2682
 Red. masses --      1.0724                 1.0400                 1.0557
 Frc consts  --      1.4147                 1.3786                 1.4038
 IR Inten    --      1.7741                 5.1478                 3.2258

                     85                     86                     87
                      A                      A                      A
 Frequencies --   1509.7738              1517.1899              1526.8837
 Red. masses --      1.0786                 1.0901                 1.0867
 Frc consts  --      1.4485                 1.4784                 1.4927
 IR Inten    --      0.5925                 4.5982                 6.4636

                     88                     89                     90
                      A                      A                      A
 Frequencies --   1532.6599              1554.1765              1741.4597
 Red. masses --      1.1309                 1.0882                 6.4824
 Frc consts  --      1.5652                 1.5486                11.5828
 IR Inten    --      0.2656                 0.4385                 0.4598

                     91                     92                     93
                      A                      A                      A
 Frequencies --   2864.5291              2878.1087              2945.7624
 Red. masses --      1.0476                 1.1084                 1.0568
 Frc consts  --      5.0644                 5.4095                 5.4033
 IR Inten    --     45.8453               102.6502                18.0812

                     94                     95                     96
                      A                      A                      A
 Frequencies --   2947.6160              2970.8110              2986.0298
 Red. masses --      1.0569                 1.1049                 1.0983
 Frc consts  --      5.4102                 5.7454                 5.7697
 IR Inten    --     82.1044                45.6197                45.2797

                     97                     98                     99
                      A                      A                      A
 Frequencies --   2990.6747              3012.4517              3021.0470
 Red. masses --      1.0625                 1.0587                 1.0655
 Frc consts  --      5.5990                 5.6606                 5.7296
 IR Inten    --     36.7604                20.4416                17.7201

                    100                    101                    102
                      A                      A                      A
 Frequencies --   3029.3396              3031.0674              3033.7362
 Red. masses --      1.0421                 1.0516                 1.0518
 Frc consts  --      5.6346                 5.6923                 5.7035
 IR Inten    --     16.0657                 6.2663                49.8481

                    103                    104                    105
                      A                      A                      A
 Frequencies --   3037.6348              3038.7860              3050.4297
 Red. masses --      1.0707                 1.1009                 1.0952
 Frc consts  --      5.8210                 5.9898                 6.0046
 IR Inten    --     32.9475                 6.1309                29.2025

                    106                    107                    108
                      A                      A                      A
 Frequencies --   3075.5269              3084.3080              3098.4436
 Red. masses --      1.1047                 1.0987                 1.1022
 Frc consts  --      6.1567                 6.1581                 6.2347
 IR Inten    --     28.6026                19.3860                57.6795

                    109                    110                    111
                      A                      A                      A
 Frequencies --   3100.8868              3103.0010              3109.8335
 Red. masses --      1.0971                 1.1012                 1.0889
 Frc consts  --      6.2157                 6.2470                 6.2044
 IR Inten    --     21.8158                37.2973                16.5481

                    112                    113                    114
                      A                      A                      A
 Frequencies --   3122.6131              3133.1843              3747.8784
 Red. masses --      1.0874                 1.1011                 1.0687
 Frc consts  --      6.2470                 6.3689                 8.8444
 IR Inten    --     37.0477                18.7503                32.5975

 - Thermochemistry -
 -------------------
 Temperature   298.150 Kelvin.  Pressure   1.00000 Atm.
 Atom     1 has atomic number  6 and mass  12.00000

 Molecular mass:   232.16746 amu.
 Principal axes and moments of inertia in atomic units:
                           1         2         3
     Eigenvalues --   643.14020********************
           X            1.00000   0.00151   0.00004
           Y           -0.00151   0.99999  -0.00471
           Z           -0.00005   0.00471   0.99999
 This molecule is an asymmetric top.
 Rotational symmetry number  1.
 Warning -- assumption of classical behavior for rotation
           may cause significant error
 Rotational temperatures (Kelvin)      0.13467     0.00410     0.00405
 Rotational constants (GHZ):           2.80614     0.08534     0.08430
 Zero-point vibrational energy     923213.1 (Joules/Mol)
                                  220.65323 (Kcal/Mol)
 Warning -- explicit consideration of  30 degrees of freedom as
           vibrations may cause significant error
 Vibrational temperatures:     17.23    33.19    42.16    50.70    85.30
          (Kelvin)             92.02   105.93   122.65   143.05   162.45
                              178.57   192.01   200.75   214.93   285.81
                              306.56   318.50   321.92   338.59   358.37
                              379.38   442.61   497.84   569.71   617.61
                              653.46   697.84   724.59   818.42   860.60
                             1071.46  1153.51  1172.90  1227.35  1260.13
                             1307.43  1340.28  1347.92  1371.43  1371.59
                             1457.33  1466.07  1478.89  1487.85  1502.05
                             1538.79  1556.68  1568.26  1575.17  1614.23
                             1655.72  1661.26  1679.77  1689.81  1696.10
                             1726.57  1732.47  1756.05  1794.23  1809.02
                             1815.11  1843.44  1856.39  1863.45  1875.06
                             1889.65  1905.60  1921.31  1942.18  1978.36
                             1993.79  1995.20  2008.20  2016.72  2023.55
                             2033.34  2052.38  2132.10  2138.07  2140.77
                             2149.15  2152.84  2158.10  2161.43  2172.23
                             2182.90  2196.85  2205.16  2236.11  2505.57
                             4121.42  4140.96  4238.30  4240.96  4274.33
                             4296.23  4302.91  4334.25  4346.61  4358.54
                             4361.03  4364.87  4370.48  4372.14  4388.89
                             4425.00  4437.63  4457.97  4461.48  4464.53
                             4474.36  4492.74  4507.95  5392.36

 Zero-point correction=                           0.351633 (Hartree/Particle)
 Thermal correction to Energy=                    0.372644
 Thermal correction to Enthalpy=                  0.373588
 Thermal correction to Gibbs Free Energy=         0.297375
 Sum of electronic and zero-point Energies=           -772.197511
 Sum of electronic and thermal Energies=              -772.176500
 Sum of electronic and thermal Enthalpies=            -772.175556
 Sum of electronic and thermal Free Energies=         -772.251770

                     E (Thermal)             CV                S
                      KCal/Mol        Cal/Mol-Kelvin    Cal/Mol-Kelvin
 Total                  233.838             71.756            160.405
 Electronic               0.000              0.000              0.000
 Translational            0.889              2.981             42.229
 Rotational               0.889              2.981             34.031
 Vibrational            232.060             65.794             84.145
 Vibration     1          0.593              1.987              7.653
 Vibration     2          0.593              1.985              6.351
 Vibration     3          0.593              1.984              5.876
 Vibration     4          0.594              1.982              5.510
 Vibration     5          0.597              1.974              4.481
 Vibration     6          0.597              1.972              4.331
 Vibration     7          0.599              1.966              4.054
 Vibration     8          0.601              1.959              3.766
 Vibration     9          0.604              1.950              3.465
 Vibration    10          0.607              1.939              3.218
 Vibration    11          0.610              1.929              3.035
 Vibration    12          0.613              1.920              2.896
 Vibration    13          0.615              1.914              2.810
 Vibration    14          0.618              1.903              2.680
 Vibration    15          0.637              1.842              2.146
 Vibration    16          0.644              1.821              2.017
 Vibration    17          0.648              1.809              1.948
 Vibration    18          0.649              1.805              1.929
 Vibration    19          0.655              1.787              1.838
 Vibration    20          0.662              1.764              1.737
 Vibration    21          0.670              1.739              1.637
 Vibration    22          0.697              1.659              1.375
 Vibration    23          0.724              1.583              1.184
 Vibration    24          0.763              1.479              0.978
 Vibration    25          0.791              1.407              0.861
 Vibration    26          0.813              1.352              0.783
 Vibration    27          0.841              1.283              0.697
 Vibration    28          0.859              1.242              0.649
 Vibration    29          0.925              1.099              0.506
 Vibration    30          0.956              1.036              0.453

 Optimization completed.
    -- Stationary point found.
 Normal termination of Gaussian 16 at Sun May 28 12:59:49 2023.
