 Gaussian 16, Revision A.03,
 Gaussian 16:  ES64L-G16RevA.03 25-Dec-2016

 -----------------------------
 # opt freq b3lyp/6-31g(2df,p)
 -----------------------------

 -------------------
 Title Card Required
 -------------------
 Symbolic Z-matrix:
 Charge =  0 Multiplicity = 1

 SCF Done:  E(RB3LYP) =  -705.446143249     A.U. after   12 cycles
 SCF Done:  E(RB3LYP) =  -705.458796612     A.U. after   11 cycles
 SCF Done:  E(RB3LYP) =  -705.465710204     A.U. after   10 cycles
 SCF Done:  E(RB3LYP) =  -705.468212793     A.U. after   10 cycles
 SCF Done:  E(RB3LYP) =  -705.468763828     A.U. after    9 cycles
 SCF Done:  E(RB3LYP) =  -705.469125655     A.U. after   10 cycles
 SCF Done:  E(RB3LYP) =  -705.469310531     A.U. after    9 cycles
 SCF Done:  E(RB3LYP) =  -705.469820953     A.U. after    9 cycles
 SCF Done:  E(RB3LYP) =  -705.469043967     A.U. after   11 cycles
 SCF Done:  E(RB3LYP) =  -705.470210073     A.U. after   11 cycles
 SCF Done:  E(RB3LYP) =  -705.473297568     A.U. after   10 cycles
 SCF Done:  E(RB3LYP) =  -705.473815141     A.U. after    9 cycles
 SCF Done:  E(RB3LYP) =  -705.473863937     A.U. after    9 cycles
 SCF Done:  E(RB3LYP) =  -705.473894229     A.U. after    9 cycles
 SCF Done:  E(RB3LYP) =  -705.473902666     A.U. after    8 cycles
 SCF Done:  E(RB3LYP) =  -705.473907967     A.U. after    8 cycles
 SCF Done:  E(RB3LYP) =  -705.473909508     A.U. after    8 cycles
 SCF Done:  E(RB3LYP) =  -705.473910066     A.U. after    7 cycles
 SCF Done:  E(RB3LYP) =  -705.473910219     A.U. after    6 cycles
 Optimization completed.
    -- Stationary point found.
 Normal termination of Gaussian 16 at Tue May 23 02:08:10 2023.

 ----------------------------------------------------------------------
 #N Geom=AllCheck Guess=TCheck SCRF=Check GenChk RB3LYP/6-31G(2df,p) Fr
 eq
 ----------------------------------------------------------------------

 Structure from the checkpoint file:  "CCCCCqCCCCOCCrCqCrCCC.chk"
 -------------------
 Title Card Required
 -------------------
 Charge =  0 Multiplicity = 1

                         Standard orientation:
 ---------------------------------------------------------------------
 Center     Atomic      Atomic             Coordinates (Angstroms)
 Number     Number       Type             X           Y           Z
 ---------------------------------------------------------------------
      1          6           0        0.882230    5.311323    0.409615
      2          6           0        1.173687    4.117758   -0.504218
      3          6           0        1.221189    2.781060    0.243612
      4          6           0        1.530699    1.584066   -0.665155
      5          6           0        1.557165    0.205078    0.056539
      6          6           0        0.288472   -0.612661   -0.263112
      7          6           0       -1.034069    0.067408    0.117786
      8          6           0       -2.253013   -0.816741   -0.167853
      9          6           0       -3.568283   -0.152023    0.215668
     10          8           0       -4.628611   -1.034158   -0.081629
     11          6           0       -5.899549   -0.510990    0.238799
     12          6           0       -6.955137   -1.542702   -0.122603
     13          6           0        2.883350   -0.553145   -0.257000
     14          6           0        4.070145    0.181992    0.391609
     15          6           0        2.867715   -2.037127    0.163037
     16          6           0        4.162748   -2.810542   -0.124320
     17          6           0        4.024857   -4.309890    0.157769
     18          1           0        0.853850    6.249966   -0.152817
     19          1           0        1.648897    5.411835    1.186104
     20          1           0       -0.083576    5.196814    0.914586
     21          1           0        2.129219    4.277017   -1.021837
     22          1           0        0.410331    4.064432   -1.292127
     23          1           0        0.265047    2.620258    0.758724
     24          1           0        1.980749    2.835588    1.036235
     25          1           0        2.493000    1.767252   -1.157011
     26          1           0        0.796308    1.552199   -1.480697
     27          1           0        1.553128    0.389903    1.142164
     28          1           0        0.326275   -1.571769    0.263133
     29          1           0        0.274378   -0.852741   -1.336648
     30          1           0       -1.145652    1.016236   -0.421302
     31          1           0       -1.012096    0.324113    1.186326
     32          1           0       -2.169270   -1.764470    0.378009
     33          1           0       -2.290422   -1.074150   -1.233543
     34          1           0       -3.693566    0.797503   -0.334867
     35          1           0       -3.570692    0.101962    1.290770
     36          1           0       -6.074872    0.430065   -0.311107
     37          1           0       -5.951474   -0.265415    1.313838
     38          1           0       -6.914722   -1.774238   -1.190804
     39          1           0       -7.954932   -1.166596    0.114383
     40          1           0       -6.791207   -2.469773    0.434137
     41          1           0        3.020865   -0.526671   -1.349388
     42          1           0        4.040789    0.068224    1.482452
     43          1           0        4.058843    1.253299    0.173514
     44          1           0        5.030222   -0.207183    0.042989
     45          1           0        2.053710   -2.553097   -0.357320
     46          1           0        2.637136   -2.108563    1.236811
     47          1           0        4.987333   -2.408750    0.474840
     48          1           0        4.447649   -2.661289   -1.174903
     49          1           0        3.761514   -4.492411    1.205810
     50          1           0        4.958424   -4.843327   -0.047516
     51          1           0        3.240472   -4.760129   -0.460940
 ---------------------------------------------------------------------

 SCF Done:  E(RB3LYP) =  -705.473910220     A.U. after    1 cycles

 The electronic state is 1-A.
 Alpha  occ. eigenvalues --  -19.13027 -10.22266 -10.21957 -10.17980 -10.17793
 Alpha  occ. eigenvalues --  -10.17627 -10.17501 -10.17411 -10.17331 -10.17233
 Alpha  occ. eigenvalues --  -10.17160 -10.17151 -10.17016 -10.17016 -10.16948
 Alpha  occ. eigenvalues --  -10.16864 -10.16619  -1.02522  -0.82462  -0.79323
 Alpha  occ. eigenvalues --   -0.78813  -0.76585  -0.74881  -0.72621  -0.70610
 Alpha  occ. eigenvalues --   -0.67033  -0.66163  -0.61957  -0.60635  -0.59633
 Alpha  occ. eigenvalues --   -0.57911  -0.57317  -0.56619  -0.54352  -0.48684
 Alpha  occ. eigenvalues --   -0.48519  -0.47251  -0.46320  -0.45661  -0.44043
 Alpha  occ. eigenvalues --   -0.43833  -0.43004  -0.42270  -0.41556  -0.41016
 Alpha  occ. eigenvalues --   -0.39846  -0.39116  -0.38808  -0.38168  -0.37433
 Alpha  occ. eigenvalues --   -0.37086  -0.36633  -0.36132  -0.35402  -0.35051
 Alpha  occ. eigenvalues --   -0.34308  -0.33771  -0.33590  -0.32992  -0.32607
 Alpha  occ. eigenvalues --   -0.32386  -0.32261  -0.31648  -0.31563  -0.30807
 Alpha  occ. eigenvalues --   -0.30505  -0.28951  -0.28404  -0.24762
 Alpha virt. eigenvalues --    0.08114   0.09200   0.09445   0.09956   0.10389
 Alpha virt. eigenvalues --    0.11067   0.11935   0.12350   0.12732   0.13068
 Alpha virt. eigenvalues --    0.13198   0.13989   0.15129   0.15386   0.15535

 Mulliken charges:
               1
     1  C   -0.379660
     2  C   -0.164094
     3  C   -0.161061
     4  C   -0.203910
     5  C    0.026085
     6  C   -0.212351
     7  C   -0.195436
     8  C   -0.198883
     9  C   -0.051378
    10  O   -0.243330
    11  C   -0.026071
    12  C   -0.383960
    13  C    0.010484
    14  C   -0.399282
    15  C   -0.177035
    16  C   -0.179086
    17  C   -0.380285
    18  H    0.109727
    19  H    0.112625
    20  H    0.112155
    21  H    0.093067
    22  H    0.092557
    23  H    0.094310
    24  H    0.091525
    25  H    0.089916
    26  H    0.087291
    27  H    0.059879
    28  H    0.097133
    29  H    0.088737
    30  H    0.098493
    31  H    0.092586
    32  H    0.103095
    33  H    0.102833
    34  H    0.079782
    35  H    0.079849
    36  H    0.081806
    37  H    0.081868
    38  H    0.125346
    39  H    0.112216
    40  H    0.125383
    41  H    0.064958
    42  H    0.108048
    43  H    0.112544
    44  H    0.114370
    45  H    0.096209
    46  H    0.086157
    47  H    0.098626
    48  H    0.092111
    49  H    0.112472
    50  H    0.108915
    51  H    0.112665
 Sum of Mulliken charges =  -0.00000

 Dipole moment (field-independent basis, Debye):
    X=              0.0051    Y=              0.7586    Z=              0.2792  Tot=              0.8084
 Quadrupole moment (field-independent basis, Debye-Ang):
   XX=           -109.3419   YY=           -115.5505   ZZ=           -111.8308
   XY=             -3.4520   XZ=             -1.7911   YZ=             -0.8442

  Exact polarizability: 209.307  -4.795 196.868   0.273   0.876 148.930
 Approx polarizability: 249.839  -0.666 245.930   0.084   0.059 242.777

                      1                      2                      3
                      A                      A                      A
 Frequencies --     23.0163                27.4976                35.6100
 Red. masses --      3.3902                 2.7259                 3.5498
 Frc consts  --      0.0011                 0.0012                 0.0027
 IR Inten    --      0.0497                 0.0717                 0.0686

                      4                      5                      6
                      A                      A                      A
 Frequencies --     41.7867                45.6606                72.5726
 Red. masses --      1.8205                 3.0940                 2.1750
 Frc consts  --      0.0019                 0.0038                 0.0067
 IR Inten    --      0.8315                 0.0798                 0.5085

                      7                      8                      9
                      A                      A                      A
 Frequencies --     77.6343                94.4222               100.3043
 Red. masses --      1.6687                 2.0577                 2.7057
 Frc consts  --      0.0059                 0.0108                 0.0160
 IR Inten    --      0.1392                 0.3952                 0.0872

                     10                     11                     12
                      A                      A                      A
 Frequencies --    107.9847               114.5969               128.5809
 Red. masses --      1.8291                 2.5194                 2.3159
 Frc consts  --      0.0126                 0.0195                 0.0226
 IR Inten    --      0.0494                 0.2236                 0.0690

                     13                     14                     15
                      A                      A                      A
 Frequencies --    131.9687               158.7723               166.8194
 Red. masses --      3.0828                 2.4344                 2.6314
 Frc consts  --      0.0316                 0.0362                 0.0431
 IR Inten    --      1.0461                 0.6376                 0.9358

                     16                     17                     18
                      A                      A                      A
 Frequencies --    181.8394               200.9639               232.0458
 Red. masses --      2.1962                 3.6790                 1.2394
 Frc consts  --      0.0428                 0.0875                 0.0393
 IR Inten    --      0.0526                 0.0240                 0.0103

                     19                     20                     21
                      A                      A                      A
 Frequencies --    240.3022               245.2126               248.1028
 Red. masses --      3.4273                 1.1126                 1.1747
 Frc consts  --      0.1166                 0.0394                 0.0426
 IR Inten    --      0.1512                 0.0034                 0.6914

                     22                     23                     24
                      A                      A                      A
 Frequencies --    250.6909               281.3443               328.0165
 Red. masses --      1.1469                 2.3760                 2.7003
 Frc consts  --      0.0425                 0.1108                 0.1712
 IR Inten    --      0.0039                 0.1241                 0.0445

                     25                     26                     27
                      A                      A                      A
 Frequencies --    343.0693               349.9544               372.1675
 Red. masses --      2.5488                 2.6707                 2.8317
 Frc consts  --      0.1767                 0.1927                 0.2311
 IR Inten    --      0.1694                 0.0878                 0.3741

                     28                     29                     30
                      A                      A                      A
 Frequencies --    422.5336               441.0684               477.7333
 Red. masses --      2.5526                 2.9653                 3.2446
 Frc consts  --      0.2685                 0.3399                 0.4363
 IR Inten    --      0.4476                 0.9916                 2.7707

                     31                     32                     33
                      A                      A                      A
 Frequencies --    519.8903               541.6302               549.0609
 Red. masses --      2.8775                 2.4237                 2.5940
 Frc consts  --      0.4582                 0.4189                 0.4607
 IR Inten    --      0.8085                 0.9006                 0.2518

                     34                     35                     36
                      A                      A                      A
 Frequencies --    729.6121               745.6771               753.1448
 Red. masses --      1.0781                 1.0939                 1.1136
 Frc consts  --      0.3381                 0.3584                 0.3722
 IR Inten    --      4.1041                 2.9784                 0.9736

                     37                     38                     39
                      A                      A                      A
 Frequencies --    780.9157               801.0419               821.4628
 Red. masses --      1.1967                 1.2368                 1.0898
 Frc consts  --      0.4300                 0.4676                 0.4333
 IR Inten    --      0.0879                 0.4277                 0.2727

                     40                     41                     42
                      A                      A                      A
 Frequencies --    841.1579               872.8382               879.0072
 Red. masses --      1.8683                 1.5586                 1.8096
 Frc consts  --      0.7788                 0.6996                 0.8238
 IR Inten    --      0.7950                 0.9041                 0.5285

                     43                     44                     45
                      A                      A                      A
 Frequencies --    896.0868               906.2472               913.4209
 Red. masses --      2.0971                 1.5849                 1.7337
 Frc consts  --      0.9921                 0.7669                 0.8522
 IR Inten    --      5.9536                 1.7895                 2.4667

                     46                     47                     48
                      A                      A                      A
 Frequencies --    927.1799               946.1522               977.5397
 Red. masses --      1.3484                 1.6294                 1.7724
 Frc consts  --      0.6830                 0.8594                 0.9979
 IR Inten    --      1.3559                 2.5674                 0.6717

                     49                     50                     51
                      A                      A                      A
 Frequencies --   1007.5369              1011.7831              1023.8618
 Red. masses --      1.7012                 2.3427                 2.9025
 Frc consts  --      1.0175                 1.4130                 1.7927
 IR Inten    --      0.9659                 0.1368                 3.7964

                     52                     53                     54
                      A                      A                      A
 Frequencies --   1039.0961              1042.9067              1056.2607
 Red. masses --      2.7495                 2.9387                 2.6626
 Frc consts  --      1.7491                 1.8832                 1.7502
 IR Inten    --      0.6120                 1.7475                 5.5035

                     55                     56                     57
                      A                      A                      A
 Frequencies --   1062.1547              1064.9014              1073.7738
 Red. masses --      1.8332                 2.3520                 2.1333
 Frc consts  --      1.2185                 1.5715                 1.4492
 IR Inten    --      0.3447                 0.1254                 1.6152

                     58                     59                     60
                      A                      A                      A
 Frequencies --   1078.4640              1095.2126              1110.3959
 Red. masses --      2.0558                 1.9031                 1.8969
 Frc consts  --      1.4088                 1.3449                 1.3780
 IR Inten    --      0.4081                 1.6515                 1.9340

                     61                     62                     63
                      A                      A                      A
 Frequencies --   1138.2309              1154.8463              1166.0737
 Red. masses --      2.3417                 3.1058                 3.0566
 Frc consts  --      1.7875                 2.4405                 2.4487
 IR Inten    --     34.7074                49.0973               122.5223

                     64                     65                     66
                      A                      A                      A
 Frequencies --   1173.6723              1179.9784              1183.7798
 Red. masses --      3.0537                 1.6630                 1.8570
 Frc consts  --      2.4784                 1.3642                 1.5332
 IR Inten    --     85.2060                 0.3534                 3.7691

                     67                     68                     69
                      A                      A                      A
 Frequencies --   1191.3659              1219.5410              1245.6709
 Red. masses --      1.8216                 1.4887                 1.3668
 Frc consts  --      1.5234                 1.3045                 1.2496
 IR Inten    --      1.3133                 6.5683                 7.2155

                     70                     71                     72
                      A                      A                      A
 Frequencies --   1249.8391              1259.1802              1275.2165
 Red. masses --      1.3658                 1.3103                 1.3306
 Frc consts  --      1.2571                 1.2241                 1.2749
 IR Inten    --      0.5145                 1.0761                 0.3250

                     73                     74                     75
                      A                      A                      A
 Frequencies --   1286.5384              1295.5955              1298.7814
 Red. masses --      1.2678                 1.1201                 1.2648
 Frc consts  --      1.2363                 1.1078                 1.2570
 IR Inten    --      0.8504                 2.0568                 3.1174

                     76                     77                     78
                      A                      A                      A
 Frequencies --   1312.8643              1319.6664              1321.6655
 Red. masses --      1.1215                 1.1496                 1.2884
 Frc consts  --      1.1389                 1.1796                 1.3260
 IR Inten    --      0.0244                 1.6377                 2.2962

                     79                     80                     81
                      A                      A                      A
 Frequencies --   1327.5455              1330.3751              1333.6117
 Red. masses --      1.1769                 1.1120                 1.0781
 Frc consts  --      1.2220                 1.1596                 1.1297
 IR Inten    --      0.6137                 0.6341                 1.2346

                     82                     83                     84
                      A                      A                      A
 Frequencies --   1345.2318              1359.6958              1367.7451
 Red. masses --      1.2435                 1.2633                 1.3085
 Frc consts  --      1.3258                 1.3760                 1.4423
 IR Inten    --      8.2045                 5.8229                 0.0901

                     85                     86                     87
                      A                      A                      A
 Frequencies --   1376.6342              1381.5335              1389.7674
 Red. masses --      1.3613                 1.3676                 1.4732
 Frc consts  --      1.5200                 1.5379                 1.6765
 IR Inten    --      6.7761                 8.1069                 9.7881

                     88                     89                     90
                      A                      A                      A
 Frequencies --   1393.2485              1397.7561              1404.6966
 Red. masses --      1.3426                 1.5311                 1.4613
 Frc consts  --      1.5355                 1.7624                 1.6988
 IR Inten    --     21.2568                 1.4000                 0.8348

                     91                     92                     93
                      A                      A                      A
 Frequencies --   1408.9797              1410.2446              1413.1424
 Red. masses --      1.3330                 1.2387                 1.2451
 Frc consts  --      1.5591                 1.4515                 1.4649
 IR Inten    --     32.1191                 1.2959                 0.7749

                     94                     95                     96
                      A                      A                      A
 Frequencies --   1414.4914              1453.7902              1480.2456
 Red. masses --      1.2459                 1.5033                 1.0731
 Frc consts  --      1.4687                 1.8720                 1.3853
 IR Inten    --      4.0648                 3.4039                 0.3309

                     97                     98                     99
                      A                      A                      A
 Frequencies --   1483.0444              1483.4736              1485.3384
 Red. masses --      1.0707                 1.0407                 1.0652
 Frc consts  --      1.3874                 1.3494                 1.3847
 IR Inten    --      0.1111                 3.9472                 0.5270

                    100                    101                    102
                      A                      A                      A
 Frequencies --   1489.1284              1490.8453              1494.5001
 Red. masses --      1.0667                 1.0851                 1.0595
 Frc consts  --      1.3937                 1.4209                 1.3942
 IR Inten    --      0.6668                 0.0136                 1.3854

                    103                    104                    105
                      A                      A                      A
 Frequencies --   1496.3784              1499.6365              1499.8566
 Red. masses --      1.0663                 1.0494                 1.0416
 Frc consts  --      1.4067                 1.3905                 1.3806
 IR Inten    --      1.7208                 2.7099                 5.3989

                    106                    107                    108
                      A                      A                      A
 Frequencies --   1499.9409              1505.8828              1506.8404
 Red. masses --      1.0403                 1.0653                 1.0842
 Frc consts  --      1.3790                 1.4233                 1.4505
 IR Inten    --      4.9735                 1.3101                 1.4940

                    109                    110                    111
                      A                      A                      A
 Frequencies --   1511.3002              1511.4822              1517.6129
 Red. masses --      1.0808                 1.0658                 1.0796
 Frc consts  --      1.4544                 1.4346                 1.4649
 IR Inten    --      0.4247                 3.7323                10.7750

                    112                    113                    114
                      A                      A                      A
 Frequencies --   1520.0002              1539.4140              2934.4639
 Red. masses --      1.0870                 1.0971                 1.0536
 Frc consts  --      1.4796                 1.5318                 5.3457
 IR Inten    --      4.1960                 0.9301                17.3810

                    115                    116                    117
                      A                      A                      A
 Frequencies --   2950.6943              2961.0297              2969.2596
 Red. masses --      1.0546                 1.1043                 1.1055
 Frc consts  --      5.4101                 5.7048                 5.7426
 IR Inten    --     82.6465                59.3030                47.6789

                    118                    119                    120
                      A                      A                      A
 Frequencies --   2971.1858              2982.4614              2997.6111
 Red. masses --      1.0792                 1.0808                 1.0681
 Frc consts  --      5.6133                 5.6642                 5.6549
 IR Inten    --      0.1117                10.3215                10.2501

                    121                    122                    123
                      A                      A                      A
 Frequencies --   3000.3610              3005.1730              3010.1168
 Red. masses --      1.0666                 1.0602                 1.0632
 Frc consts  --      5.6574                 5.6411                 5.6760
 IR Inten    --      9.0339                 2.2009                31.8860

                    124                    125                    126
                      A                      A                      A
 Frequencies --   3011.0462              3016.6349              3022.9009
 Red. masses --      1.0611                 1.0648                 1.0631
 Frc consts  --      5.6683                 5.7090                 5.7236
 IR Inten    --     11.8693                34.6319                57.1962

                    127                    128                    129
                      A                      A                      A
 Frequencies --   3027.1217              3027.6373              3029.1574
 Red. masses --      1.0357                 1.0407                 1.0682
 Frc consts  --      5.5918                 5.6204                 5.7748
 IR Inten    --     38.6184                35.5032                17.4499

                    130                    131                    132
                      A                      A                      A
 Frequencies --   3029.8142              3030.6380              3042.5648
 Red. masses --      1.0459                 1.0770                 1.0936
 Frc consts  --      5.6570                 5.8285                 5.9646
 IR Inten    --     11.4840                51.8104                 3.3987

                    133                    134                    135
                      A                      A                      A
 Frequencies --   3043.6568              3044.1429              3050.3230
 Red. masses --      1.0347                 1.0994                 1.0918
 Frc consts  --      5.6475                 6.0023                 5.9853
 IR Inten    --     20.2579                 0.7160                 1.0945

                    136                    137                    138
                      A                      A                      A
 Frequencies --   3063.1328              3065.8794              3071.9348
 Red. masses --      1.1020                 1.0998                 1.0987
 Frc consts  --      6.0920                 6.0908                 6.1089
 IR Inten    --     55.6714                23.1044                40.7965

                    139                    140                    141
                      A                      A                      A
 Frequencies --   3082.2635              3093.6948              3095.0236
 Red. masses --      1.0991                 1.1020                 1.1020
 Frc consts  --      6.1521                 6.2140                 6.2196
 IR Inten    --     81.0254                57.0287                62.3161

                    142                    143                    144
                      A                      A                      A
 Frequencies --   3098.0683              3099.1347              3099.6291
 Red. masses --      1.0955                 1.1010                 1.0993
 Frc consts  --      6.1950                 6.2302                 6.2230
 IR Inten    --     18.4179                42.3016                56.9108

                    145                    146                    147
                      A                      A                      A
 Frequencies --   3114.6136              3117.8071              3120.0216
 Red. masses --      1.1002                 1.1014                 1.1026
 Frc consts  --      6.2881                 6.3083                 6.3238
 IR Inten    --     40.7644                26.6033                26.8343

 - Thermochemistry -
 -------------------
 Temperature   298.150 Kelvin.  Pressure   1.00000 Atm.
 Atom     1 has atomic number  6 and mass  12.00000

 Molecular mass:   242.26097 amu.
 Principal axes and moments of inertia in atomic units:
                           1         2         3
     Eigenvalues --  5041.93975********************
           X            0.99997  -0.00819   0.00015
           Y            0.00819   0.99997   0.00119
           Z           -0.00016  -0.00119   1.00000
 This molecule is an asymmetric top.
 Rotational symmetry number  1.
 Warning -- assumption of classical behavior for rotation
           may cause significant error
 Rotational temperatures (Kelvin)      0.01718     0.00813     0.00564
 Rotational constants (GHZ):           0.35795     0.16942     0.11759
 Zero-point vibrational energy    1250610.8 (Joules/Mol)
                                  298.90316 (Kcal/Mol)
 Warning -- explicit consideration of  33 degrees of freedom as
           vibrations may cause significant error
 Vibrational temperatures:     33.12    39.56    51.23    60.12    65.70
          (Kelvin)            104.42   111.70   135.85   144.32   155.37
                              164.88   185.00   189.87   228.44   240.02
                              261.63   289.14   333.86   345.74   352.81
                              356.96   360.69   404.79   471.94   493.60
                              503.51   535.47   607.93   634.60   687.35
                              748.01   779.29   789.98  1049.75  1072.86
                             1083.61  1123.56  1152.52  1181.90  1210.24
                             1255.82  1264.70  1289.27  1303.89  1314.21
                             1334.01  1361.30  1406.46  1449.62  1455.73
                             1473.11  1495.03  1500.51  1519.72  1528.20
                             1532.16  1544.92  1551.67  1575.77  1597.61
                             1637.66  1661.57  1677.72  1688.65  1697.73
                             1703.20  1714.11  1754.65  1792.24  1798.24
                             1811.68  1834.75  1851.04  1864.07  1868.66
                             1888.92  1898.71  1901.58  1910.04  1914.11
                             1918.77  1935.49  1956.30  1967.88  1980.67
                             1987.72  1999.57  2004.57  2011.06  2021.05
                             2027.21  2029.03  2033.20  2035.14  2091.68
                             2129.74  2133.77  2134.39  2137.07  2142.52
                             2144.99  2150.25  2152.95  2157.64  2157.96
                             2158.08  2166.63  2168.01  2174.42  2174.69
                             2183.51  2186.94  2214.87  4222.04  4245.39
                             4260.26  4272.10  4274.87  4291.10  4312.89
                             4316.85  4323.77  4330.89  4332.22  4340.26
                             4349.28  4355.35  4356.09  4358.28  4359.23
                             4360.41  4377.57  4379.14  4379.84  4388.73
                             4407.16  4411.12  4419.83  4434.69  4451.14
                             4453.05  4457.43  4458.96  4459.67  4481.23
                             4485.83  4489.02

 Zero-point correction=                           0.476333 (Hartree/Particle)
 Thermal correction to Energy=                    0.499352
 Thermal correction to Enthalpy=                  0.500296
 Thermal correction to Gibbs Free Energy=         0.421262
 Sum of electronic and zero-point Energies=           -704.997578
 Sum of electronic and thermal Energies=              -704.974558
 Sum of electronic and thermal Enthalpies=            -704.973614
 Sum of electronic and thermal Free Energies=         -705.052649

                     E (Thermal)             CV                S
                      KCal/Mol        Cal/Mol-Kelvin    Cal/Mol-Kelvin
 Total                  313.348             82.498            166.342
 Electronic               0.000              0.000              0.000
 Translational            0.889              2.981             42.356
 Rotational               0.889              2.981             35.065
 Vibrational            311.571             76.536             88.921
 Vibration     1          0.593              1.985              6.355
 Vibration     2          0.593              1.984              6.002
 Vibration     3          0.594              1.982              5.489
 Vibration     4          0.594              1.980              5.173
 Vibration     5          0.595              1.979              4.997
 Vibration     6          0.599              1.967              4.082
 Vibration     7          0.599              1.964              3.950
 Vibration     8          0.603              1.953              3.566
 Vibration     9          0.604              1.949              3.448
 Vibration    10          0.606              1.943              3.305
 Vibration    11          0.608              1.937              3.190
 Vibration    12          0.611              1.925              2.967
 Vibration    13          0.612              1.921              2.917
 Vibration    14          0.621              1.893              2.564
 Vibration    15          0.624              1.883              2.471
 Vibration    16          0.630              1.864              2.309
 Vibration    17          0.638              1.839              2.124
 Vibration    18          0.653              1.792              1.863
 Vibration    19          0.657              1.779              1.801
 Vibration    20          0.660              1.771              1.765
 Vibration    21          0.662              1.766              1.744
 Vibration    22          0.663              1.762              1.726
 Vibration    23          0.681              1.708              1.525
 Vibration    24          0.711              1.620              1.270
 Vibration    25          0.722              1.589              1.198
 Vibration    26          0.727              1.575              1.166
 Vibration    27          0.744              1.529              1.071
 Vibration    28          0.785              1.421              0.883
 Vibration    29          0.801              1.381              0.823
 Vibration    30          0.834              1.299              0.716
 Vibration    31          0.875              1.206              0.610
 Vibration    32          0.897              1.158              0.562
 Vibration    33          0.904              1.142              0.546

                           ! Non-Optimized Parameters !
 Normal termination of Gaussian 16 at Tue May 23 07:33:46 2023.
