 Gaussian 16, Revision A.03,
 Gaussian 16:  ES64L-G16RevA.03 25-Dec-2016

 -----------------------------
 # opt freq b3lyp/6-31g(2df,p)
 -----------------------------

 -------------------
 Title Card Required
 -------------------
 Symbolic Z-matrix:
 Charge =  0 Multiplicity = 1

 SCF Done:  E(RB3LYP) =  -666.166792199     A.U. after   12 cycles
 SCF Done:  E(RB3LYP) =  -666.176342084     A.U. after    9 cycles
 SCF Done:  E(RB3LYP) =  -666.177321430     A.U. after    9 cycles
 SCF Done:  E(RB3LYP) =  -666.177417753     A.U. after    8 cycles
 SCF Done:  E(RB3LYP) =  -666.177433736     A.U. after    8 cycles
 SCF Done:  E(RB3LYP) =  -666.177435863     A.U. after    8 cycles
 SCF Done:  E(RB3LYP) =  -666.177436342     A.U. after    7 cycles
 Optimization completed.
    -- Stationary point found.
 Normal termination of Gaussian 16 at Mon May 22 01:22:36 2023.

 ----------------------------------------------------------------------
 #N Geom=AllCheck Guess=TCheck SCRF=Check GenChk RB3LYP/6-31G(2df,p) Fr
 eq
 ----------------------------------------------------------------------

 Structure from the checkpoint file:  "CCCCCCCCCCqOrCCCqCrC.chk"
 -------------------
 Title Card Required
 -------------------
 Charge =  0 Multiplicity = 1

                         Standard orientation:
 ---------------------------------------------------------------------
 Center     Atomic      Atomic             Coordinates (Angstroms)
 Number     Number       Type             X           Y           Z
 ---------------------------------------------------------------------
      1          6           0       -8.967500    0.419452   -0.165221
      2          6           0       -7.694488   -0.304422    0.281659
      3          6           0       -6.409294    0.396553   -0.171702
      4          6           0       -5.130157   -0.321583    0.270894
      5          6           0       -3.845193    0.380120   -0.181939
      6          6           0       -2.566174   -0.338990    0.260116
      7          6           0       -1.280791    0.363601   -0.190478
      8          6           0       -0.004550   -0.361807    0.248014
      9          6           0        1.281131    0.343790   -0.194970
     10          6           0        2.560611   -0.414209    0.181938
     11          8           0        2.564222   -1.733585   -0.368600
     12          6           0        3.831406    0.357128   -0.201337
     13          6           0        5.120164   -0.341243    0.247080
     14          6           0        6.422928    0.292272   -0.272695
     15          6           0        6.629244    1.724365    0.241308
     16          6           0        7.627351   -0.587728    0.088969
     17          1           0       -9.867021   -0.104507    0.173233
     18          1           0       -9.017486    0.494716   -1.257344
     19          1           0       -9.005210    1.438422    0.236242
     20          1           0       -7.701742   -1.331886   -0.106069
     21          1           0       -7.689579   -0.395542    1.376073
     22          1           0       -6.401824    1.425161    0.215990
     23          1           0       -6.414300    0.488860   -1.267080
     24          1           0       -5.138261   -1.349802   -0.117387
     25          1           0       -5.126306   -0.414163    1.366107
     26          1           0       -3.836751    1.408128    0.207012
     27          1           0       -3.849286    0.473374   -1.277140
     28          1           0       -2.573043   -1.366383   -0.129962
     29          1           0       -2.562721   -0.433670    1.355068
     30          1           0       -1.272219    1.390572    0.201697
     31          1           0       -1.285968    0.461203   -1.285517
     32          1           0       -0.000905   -1.384148   -0.147204
     33          1           0       -0.000329   -0.461578    1.342542
     34          1           0        1.324046    1.350540    0.241552
     35          1           0        1.267859    0.488526   -1.286713
     36          1           0        2.564059   -0.581651    1.267785
     37          1           0        2.557741   -1.643404   -1.328660
     38          1           0        3.767718    1.364993    0.225925
     39          1           0        3.842406    0.489843   -1.294853
     40          1           0        5.071897   -1.385354   -0.081856
     41          1           0        5.150938   -0.370751    1.346284
     42          1           0        6.356784    0.335219   -1.370353
     43          1           0        6.673870    1.741451    1.337343
     44          1           0        5.822504    2.394815   -0.069562
     45          1           0        7.568736    2.144038   -0.133745
     46          1           0        7.741620   -0.665752    1.176997
     47          1           0        8.558489   -0.173505   -0.312155
     48          1           0        7.512386   -1.602878   -0.305255
 ---------------------------------------------------------------------

 SCF Done:  E(RB3LYP) =  -666.177436342     A.U. after    1 cycles

 The electronic state is 1-A.
 Alpha  occ. eigenvalues --  -19.13062 -10.22449 -10.18160 -10.17534 -10.17500
 Alpha  occ. eigenvalues --  -10.17408 -10.17258 -10.17187 -10.17174 -10.17154
 Alpha  occ. eigenvalues --  -10.17147 -10.17067 -10.16903 -10.16852 -10.16762
 Alpha  occ. eigenvalues --  -10.16637  -1.01142  -0.80862  -0.80509  -0.79068
 Alpha  occ. eigenvalues --   -0.76840  -0.74629  -0.71776  -0.68059  -0.67651
 Alpha  occ. eigenvalues --   -0.64476  -0.61057  -0.59053  -0.57795  -0.57035
 Alpha  occ. eigenvalues --   -0.56655  -0.55065  -0.48201  -0.47439  -0.46465
 Alpha  occ. eigenvalues --   -0.46096  -0.45055  -0.44051  -0.43142  -0.42500
 Alpha  occ. eigenvalues --   -0.41802  -0.40967  -0.40232  -0.39772  -0.39178
 Alpha  occ. eigenvalues --   -0.38453  -0.37697  -0.37168  -0.36320  -0.35636
 Alpha  occ. eigenvalues --   -0.34421  -0.34247  -0.33928  -0.33769  -0.32643
 Alpha  occ. eigenvalues --   -0.32212  -0.31900  -0.31672  -0.31522  -0.31490
 Alpha  occ. eigenvalues --   -0.31409  -0.31202  -0.30247  -0.29383  -0.25912
 Alpha virt. eigenvalues --    0.07170   0.09041   0.09230   0.09962   0.10452
 Alpha virt. eigenvalues --    0.11603   0.11772   0.12142   0.12698   0.13557
 Alpha virt. eigenvalues --    0.13809   0.14146   0.14799   0.15366   0.15489

 Mulliken charges:
               1
     1  C   -0.378951
     2  C   -0.162563
     3  C   -0.158076
     4  C   -0.177611
     5  C   -0.180526
     6  C   -0.179047
     7  C   -0.182641
     8  C   -0.178638
     9  C   -0.206519
    10  C    0.117707
    11  O   -0.427549
    12  C   -0.215670
    13  C   -0.166078
    14  C    0.040212
    15  C   -0.379894
    16  C   -0.387355
    17  H    0.109364
    18  H    0.112077
    19  H    0.112108
    20  H    0.092777
    21  H    0.092759
    22  H    0.089184
    23  H    0.089108
    24  H    0.090291
    25  H    0.090167
    26  H    0.089591
    27  H    0.089322
    28  H    0.091617
    29  H    0.090748
    30  H    0.088454
    31  H    0.087629
    32  H    0.105108
    33  H    0.089876
    34  H    0.092371
    35  H    0.079637
    36  H    0.083366
    37  H    0.273976
    38  H    0.096169
    39  H    0.078600
    40  H    0.103558
    41  H    0.085828
    42  H    0.065301
    43  H    0.109125
    44  H    0.111380
    45  H    0.107887
    46  H    0.110532
    47  H    0.106003
    48  H    0.109289
 Sum of Mulliken charges =  -0.00000

 Dipole moment (field-independent basis, Debye):
    X=             -0.0489    Y=              1.0343    Z=             -0.7921  Tot=              1.3037
 Quadrupole moment (field-independent basis, Debye-Ang):
   XX=           -108.7424   YY=           -109.7208   ZZ=           -102.0941
   XY=              3.2458   XZ=             -2.6482   YZ=              2.5299

  Exact polarizability: 227.541   0.152 150.347   0.472  -0.149 144.410
 Approx polarizability: 230.927   0.628 228.288  -0.153   2.118 232.379

                      1                      2                      3
                      A                      A                      A
 Frequencies --     16.6181                25.2365                30.3054
 Red. masses --      3.7596                 3.6002                 1.7898
 Frc consts  --      0.0006                 0.0014                 0.0010
 IR Inten    --      0.0215                 0.0458                 0.0130

                      4                      5                      6
                      A                      A                      A
 Frequencies --     42.3815                50.2951                69.2880
 Red. masses --      3.4895                 2.6309                 3.1119
 Frc consts  --      0.0037                 0.0039                 0.0088
 IR Inten    --      0.0872                 0.4768                 0.1313

                      7                      8                      9
                      A                      A                      A
 Frequencies --     75.8979                91.4882               114.0271
 Red. masses --      2.9772                 1.7638                 2.7461
 Frc consts  --      0.0101                 0.0087                 0.0210
 IR Inten    --      0.0870                 0.1808                 0.1877

                     10                     11                     12
                      A                      A                      A
 Frequencies --    128.2781               136.4468               147.4657
 Red. masses --      3.1091                 1.7976                 2.1785
 Frc consts  --      0.0301                 0.0197                 0.0279
 IR Inten    --      0.3919                 0.0575                 0.3157

                     13                     14                     15
                      A                      A                      A
 Frequencies --    153.3570               164.5770               169.4444
 Red. masses --      3.8222                 2.1715                 1.9277
 Frc consts  --      0.0530                 0.0347                 0.0326
 IR Inten    --      0.1218                 0.1503                 0.1095

                     16                     17                     18
                      A                      A                      A
 Frequencies --    202.7335               226.2146               247.5033
 Red. masses --      3.0993                 1.0738                 1.1208
 Frc consts  --      0.0751                 0.0324                 0.0405
 IR Inten    --      1.6268                 0.1144                 0.0012

                     19                     20                     21
                      A                      A                      A
 Frequencies --    249.6737               261.2194               284.4019
 Red. masses --      1.3922                 2.0056                 2.8592
 Frc consts  --      0.0511                 0.0806                 0.1363
 IR Inten    --      0.5922                 0.0256                 0.9980

                     22                     23                     24
                      A                      A                      A
 Frequencies --    303.6379               331.9342               372.2040
 Red. masses --      1.1163                 3.5996                 2.7026
 Frc consts  --      0.0606                 0.2337                 0.2206
 IR Inten    --    117.0836                22.2290                 1.3909

                     25                     26                     27
                      A                      A                      A
 Frequencies --    399.5318               418.2742               439.9157
 Red. masses --      2.4754                 2.1967                 2.2590
 Frc consts  --      0.2328                 0.2264                 0.2576
 IR Inten    --      4.4623                 0.7343                 2.0811

                     28                     29                     30
                      A                      A                      A
 Frequencies --    466.0247               476.7984               526.4064
 Red. masses --      2.6978                 2.9023                 2.5425
 Frc consts  --      0.3452                 0.3887                 0.4151
 IR Inten    --      2.1658                 1.9532                 0.6108

                     31                     32                     33
                      A                      A                      A
 Frequencies --    569.1361               731.3119               732.7960
 Red. masses --      3.0469                 1.0584                 1.0733
 Frc consts  --      0.5815                 0.3335                 0.3396
 IR Inten    --     15.2249                 5.2443                 0.0972

                     34                     35                     36
                      A                      A                      A
 Frequencies --    742.9428               763.0117               774.0092
 Red. masses --      1.1129                 1.2652                 1.2415
 Frc consts  --      0.3619                 0.4340                 0.4382
 IR Inten    --      0.7739                 0.7105                 0.1536

                     37                     38                     39
                      A                      A                      A
 Frequencies --    819.3898               829.0455               875.1309
 Red. masses --      1.3881                 2.1148                 1.7441
 Frc consts  --      0.5491                 0.8564                 0.7870
 IR Inten    --      0.4077                 0.0916                 9.2795

                     40                     41                     42
                      A                      A                      A
 Frequencies --    897.4626               900.9491               926.4174
 Red. masses --      1.9476                 1.6156                 1.2037
 Frc consts  --      0.9242                 0.7727                 0.6087
 IR Inten    --      1.6030                 6.7100                 1.0565

                     43                     44                     45
                      A                      A                      A
 Frequencies --    942.3515               953.4952               966.6998
 Red. masses --      1.5720                 1.7183                 1.5283
 Frc consts  --      0.8225                 0.9204                 0.8415
 IR Inten    --      3.0407                 0.8947                 1.2693

                     46                     47                     48
                      A                      A                      A
 Frequencies --    980.6119               994.7510               995.9924
 Red. masses --      1.5775                 3.5281                 3.3255
 Frc consts  --      0.8938                 2.0569                 1.9436
 IR Inten    --      4.1398                 2.5711                 1.6981

                     49                     50                     51
                      A                      A                      A
 Frequencies --   1025.9733              1030.7407              1044.3699
 Red. masses --      1.8076                 1.8835                 2.3963
 Frc consts  --      1.1211                 1.1790                 1.5399
 IR Inten    --      2.6959                 0.0262                 3.5154

                     52                     53                     54
                      A                      A                      A
 Frequencies --   1052.6564              1058.7405              1068.0649
 Red. masses --      1.4909                 2.8081                 2.5762
 Frc consts  --      0.9733                 1.8546                 1.7315
 IR Inten    --      2.2249                 8.2583                 0.4605

                     55                     56                     57
                      A                      A                      A
 Frequencies --   1070.8471              1076.9484              1095.2600
 Red. masses --      2.1260                 2.4867                 2.4940
 Frc consts  --      1.4364                 1.6993                 1.7627
 IR Inten    --      0.1188                 4.5690                10.7753

                     58                     59                     60
                      A                      A                      A
 Frequencies --   1118.8819              1125.8052              1141.4571
 Red. masses --      1.2659                 1.7307                 2.3267
 Frc consts  --      0.9337                 1.2924                 1.7861
 IR Inten    --     41.2335                 6.8195                12.0337

                     61                     62                     63
                      A                      A                      A
 Frequencies --   1158.0427              1194.0066              1213.7459
 Red. masses --      2.8663                 1.7649                 1.8327
 Frc consts  --      2.2648                 1.4825                 1.5908
 IR Inten    --      3.1104                 5.9404                 0.4175

                     64                     65                     66
                      A                      A                      A
 Frequencies --   1224.4677              1227.7501              1243.8167
 Red. masses --      1.6065                 1.3441                 1.5007
 Frc consts  --      1.4191                 1.1937                 1.3679
 IR Inten    --     10.2816                 0.4341                 0.9002

                     67                     68                     69
                      A                      A                      A
 Frequencies --   1260.0575              1278.2042              1280.4641
 Red. masses --      1.2889                 1.3340                 1.2966
 Frc consts  --      1.2057                 1.2841                 1.2525
 IR Inten    --      5.4874                 2.5363                 0.8097

                     70                     71                     72
                      A                      A                      A
 Frequencies --   1301.2116              1309.4955              1313.2340
 Red. masses --      1.2976                 1.3143                 1.1648
 Frc consts  --      1.2945                 1.3278                 1.1835
 IR Inten    --      3.3085                 0.7404                 1.1530

                     73                     74                     75
                      A                      A                      A
 Frequencies --   1322.6721              1326.2375              1334.1506
 Red. masses --      1.0790                 1.0738                 1.2663
 Frc consts  --      1.1122                 1.1128                 1.3280
 IR Inten    --      0.5258                 0.6998                 0.8552

                     76                     77                     78
                      A                      A                      A
 Frequencies --   1335.8335              1338.1748              1354.0838
 Red. masses --      1.0920                 1.1302                 1.3564
 Frc consts  --      1.1481                 1.1924                 1.4653
 IR Inten    --      0.0781                 0.6818                 0.2369

                     79                     80                     81
                      A                      A                      A
 Frequencies --   1363.9057              1369.9063              1376.2534
 Red. masses --      1.3549                 1.2833                 1.3946
 Frc consts  --      1.4850                 1.4189                 1.5563
 IR Inten    --      1.4375                 4.5404                 6.5416

                     82                     83                     84
                      A                      A                      A
 Frequencies --   1389.0665              1394.9069              1398.9710
 Red. masses --      1.4877                 1.6190                 1.6014
 Frc consts  --      1.6913                 1.8561                 1.8466
 IR Inten    --      1.7751                 2.5102                 3.2125

                     85                     86                     87
                      A                      A                      A
 Frequencies --   1400.4295              1402.1122              1402.9939
 Red. masses --      1.2758                 1.5964                 1.5950
 Frc consts  --      1.4741                 1.8491                 1.8497
 IR Inten    --      3.6657                 0.6845                 0.7630

                     88                     89                     90
                      A                      A                      A
 Frequencies --   1413.2728              1419.5183              1421.7700
 Red. masses --      1.2594                 1.2022                 1.2437
 Frc consts  --      1.4820                 1.4273                 1.4813
 IR Inten    --      0.6418                35.8180                 2.1989

                     91                     92                     93
                      A                      A                      A
 Frequencies --   1471.4079              1479.9410              1481.7056
 Red. masses --      1.0831                 1.0791                 1.0727
 Frc consts  --      1.3817                 1.3926                 1.3875
 IR Inten    --      0.3388                 1.0886                 0.1117

                     94                     95                     96
                      A                      A                      A
 Frequencies --   1482.4820              1484.9746              1488.0626
 Red. masses --      1.0751                 1.0689                 1.0563
 Frc consts  --      1.3921                 1.3887                 1.3781
 IR Inten    --      0.3019                 0.1640                 0.0231

                     97                     98                     99
                      A                      A                      A
 Frequencies --   1489.2130              1491.8205              1497.1206
 Red. masses --      1.0714                 1.0606                 1.0816
 Frc consts  --      1.3999                 1.3907                 1.4284
 IR Inten    --      0.1516                 2.6226                 0.3947

                    100                    101                    102
                      A                      A                      A
 Frequencies --   1499.7921              1501.3598              1505.0164
 Red. masses --      1.0403                 1.0842                 1.0549
 Frc consts  --      1.3787                 1.4399                 1.4077
 IR Inten    --      4.8794                 0.4252                 2.8796

                    103                    104                    105
                      A                      A                      A
 Frequencies --   1505.4093              1511.4046              1512.2436
 Red. masses --      1.0874                 1.0517                 1.0925
 Frc consts  --      1.4519                 1.4155                 1.4721
 IR Inten    --      0.5053                 8.7116                 0.1365

                    106                    107                    108
                      A                      A                      A
 Frequencies --   1516.5805              2983.5444              2986.2739
 Red. masses --      1.0974                 1.0678                 1.0780
 Frc consts  --      1.4872                 5.6003                 5.6638
 IR Inten    --      4.1443                 0.9466                 5.0716

                    109                    110                    111
                      A                      A                      A
 Frequencies --   2988.7410              2996.5263              2997.3306
 Red. masses --      1.0677                 1.0580                 1.0575
 Frc consts  --      5.6191                 5.5970                 5.5973
 IR Inten    --     17.9710                 3.3324                 0.1948

                    112                    113                    114
                      A                      A                      A
 Frequencies --   2999.5187              3002.3998              3006.4296
 Red. masses --      1.0578                 1.0593                 1.0687
 Frc consts  --      5.6074                 5.6259                 5.6912
 IR Inten    --      3.1360                 0.1461                25.8493

                    115                    116                    117
                      A                      A                      A
 Frequencies --   3009.0644              3013.5929              3016.5325
 Red. masses --      1.0624                 1.0682                 1.0636
 Frc consts  --      5.6676                 5.7159                 5.7021
 IR Inten    --      9.3942                 3.7633               125.4197

                    118                    119                    120
                      A                      A                      A
 Frequencies --   3017.5399              3020.2256              3021.1902
 Red. masses --      1.0953                 1.0941                 1.0396
 Frc consts  --      5.8760                 5.8802                 5.5910
 IR Inten    --      8.3156                 1.1541                18.4332

                    121                    122                    123
                      A                      A                      A
 Frequencies --   3022.4243              3026.3568              3026.9010
 Red. masses --      1.0771                 1.0394                 1.0966
 Frc consts  --      5.7970                 5.6091                 5.9198
 IR Inten    --     88.1505                28.8612                13.3050

                    124                    125                    126
                      A                      A                      A
 Frequencies --   3027.4949              3036.5556              3038.8166
 Red. masses --      1.0357                 1.0910                 1.1028
 Frc consts  --      5.5931                 5.9269                 6.0000
 IR Inten    --     43.1145                16.1287                 0.9159

                    127                    128                    129
                      A                      A                      A
 Frequencies --   3050.7522              3052.4078              3061.7493
 Red. masses --      1.1003                 1.0948                 1.1046
 Frc consts  --      6.0335                 6.0098                 6.1009
 IR Inten    --      4.5817                10.9674                96.3475

                    130                    131                    132
                      A                      A                      A
 Frequencies --   3071.1343              3075.0596              3085.1440
 Red. masses --      1.0977                 1.0995                 1.1002
 Frc consts  --      6.1002                 6.1255                 6.1699
 IR Inten    --      1.2958               132.0384                 4.9370

                    133                    134                    135
                      A                      A                      A
 Frequencies --   3091.4683              3093.5472              3097.0319
 Red. masses --      1.0997                 1.1020                 1.1014
 Frc consts  --      6.1924                 6.2137                 6.2243
 IR Inten    --     73.0197                61.8633                39.7751

                    136                    137                    138
                      A                      A                      A
 Frequencies --   3098.9133              3102.8984              3788.0753
 Red. masses --      1.1009                 1.1000                 1.0657
 Frc consts  --      6.2292                 6.2398                 9.0099
 IR Inten    --     40.4672                43.4258                 9.9278

 - Thermochemistry -
 -------------------
 Temperature   298.150 Kelvin.  Pressure   1.00000 Atm.
 Atom     1 has atomic number  6 and mass  12.00000

 Molecular mass:   228.24532 amu.
 Principal axes and moments of inertia in atomic units:
                           1         2         3
     Eigenvalues --   678.93815********************
           X            1.00000   0.00143   0.00068
           Y           -0.00142   0.99994  -0.01108
           Z           -0.00070   0.01108   0.99994
 This molecule is an asymmetric top.
 Rotational symmetry number  1.
 Warning -- assumption of classical behavior for rotation
           may cause significant error
 Rotational temperatures (Kelvin)      0.12757     0.00388     0.00382
 Rotational constants (GHZ):           2.65818     0.08093     0.07951
 Zero-point vibrational energy    1175449.2 (Joules/Mol)
                                  280.93910 (Kcal/Mol)
 Warning -- explicit consideration of  31 degrees of freedom as
           vibrations may cause significant error
 Vibrational temperatures:     23.91    36.31    43.60    60.98    72.36
          (Kelvin)             99.69   109.20   131.63   164.06   184.56
                              196.32   212.17   220.65   236.79   243.79
                              291.69   325.47   356.10   359.22   375.84
                              409.19   436.87   477.58   535.52   574.84
                              601.80   632.94   670.51   686.01   757.38
                              818.86  1052.19  1054.33  1068.93  1097.80
                             1113.63  1178.92  1192.81  1259.12  1291.25
                             1296.26  1332.91  1355.83  1371.87  1390.87
                             1410.88  1431.22  1433.01  1476.15  1483.01
                             1502.62  1514.54  1523.29  1536.71  1540.71
                             1549.49  1575.83  1609.82  1619.78  1642.30
                             1666.17  1717.91  1746.31  1761.74  1766.46
                             1789.57  1812.94  1839.05  1842.30  1872.15
                             1884.07  1889.45  1903.03  1908.16  1919.55
                             1921.97  1925.34  1948.22  1962.36  1970.99
                             1980.12  1998.56  2006.96  2012.81  2014.91
                             2017.33  2018.60  2033.38  2042.37  2045.61
                             2117.03  2129.31  2131.84  2132.96  2136.55
                             2140.99  2142.65  2146.40  2154.02  2157.87
                             2160.12  2165.38  2165.95  2174.57  2175.78
                             2182.02  4292.65  4296.58  4300.13  4311.33
                             4312.49  4315.64  4319.78  4325.58  4329.37
                             4335.89  4340.12  4341.57  4345.43  4346.82
                             4348.59  4354.25  4355.04  4355.89  4368.93
                             4372.18  4389.35  4391.73  4405.17  4418.68
                             4424.32  4438.83  4447.93  4450.92  4455.94
                             4458.65  4464.38  5450.20

 Zero-point correction=                           0.447705 (Hartree/Particle)
 Thermal correction to Energy=                    0.469452
 Thermal correction to Enthalpy=                  0.470396
 Thermal correction to Gibbs Free Energy=         0.394057
 Sum of electronic and zero-point Energies=           -665.729731
 Sum of electronic and thermal Energies=              -665.707985
 Sum of electronic and thermal Enthalpies=            -665.707041
 Sum of electronic and thermal Free Energies=         -665.783380

                     E (Thermal)             CV                S
                      KCal/Mol        Cal/Mol-Kelvin    Cal/Mol-Kelvin
 Total                  294.585             78.163            160.669
 Electronic               0.000              0.000              0.000
 Translational            0.889              2.981             42.178
 Rotational               0.889              2.981             34.196
 Vibrational            292.808             72.202             84.296
 Vibration     1          0.593              1.986              7.002
 Vibration     2          0.593              1.985              6.173
 Vibration     3          0.594              1.984              5.809
 Vibration     4          0.595              1.980              5.145
 Vibration     5          0.595              1.977              4.806
 Vibration     6          0.598              1.969              4.173
 Vibration     7          0.599              1.965              3.994
 Vibration     8          0.602              1.955              3.628
 Vibration     9          0.607              1.938              3.199
 Vibration    10          0.611              1.925              2.972
 Vibration    11          0.614              1.917              2.853
 Vibration    12          0.617              1.905              2.705
 Vibration    13          0.619              1.899              2.630
 Vibration    14          0.623              1.886              2.497
 Vibration    15          0.625              1.880              2.442
 Vibration    16          0.639              1.836              2.108
 Vibration    17          0.650              1.801              1.909
 Vibration    18          0.661              1.767              1.748
 Vibration    19          0.662              1.763              1.733
 Vibration    20          0.669              1.744              1.654
 Vibration    21          0.683              1.703              1.507
 Vibration    22          0.695              1.667              1.397
 Vibration    23          0.714              1.612              1.251
 Vibration    24          0.744              1.529              1.071
 Vibration    25          0.766              1.471              0.964
 Vibration    26          0.781              1.431              0.898
 Vibration    27          0.800              1.383              0.827
 Vibration    28          0.823              1.325              0.749
 Vibration    29          0.833              1.302              0.719
 Vibration    30          0.881              1.192              0.595
 Vibration    31          0.925              1.098              0.506

                           ! Non-Optimized Parameters !
 Normal termination of Gaussian 16 at Mon May 22 04:48:15 2023.
