 Gaussian 16, Revision A.03,
 Gaussian 16:  ES64L-G16RevA.03 25-Dec-2016

 -----------------------------
 # opt freq b3lyp/6-31g(2df,p)
 -----------------------------

 -------------------
 Title Card Required
 -------------------
 Symbolic Z-matrix:
 Charge =  0 Multiplicity = 1

 SCF Done:  E(RB3LYP) =  -534.462015308     A.U. after   16 cycles
 SCF Done:  E(RB3LYP) =  -534.522832735     A.U. after   13 cycles
 SCF Done:  E(RB3LYP) =  -534.589955861     A.U. after   12 cycles
 SCF Done:  E(RB3LYP) =  -534.602562065     A.U. after   10 cycles
 SCF Done:  E(RB3LYP) =  -534.646508975     A.U. after   11 cycles
 SCF Done:  E(RB3LYP) =  -534.675191055     A.U. after   11 cycles
 SCF Done:  E(RB3LYP) =  -534.732898616     A.U. after   11 cycles
 SCF Done:  E(RB3LYP) =  -534.795644354     A.U. after   11 cycles
 SCF Done:  E(RB3LYP) =  -534.822513516     A.U. after   11 cycles
 SCF Done:  E(RB3LYP) =  -534.837095631     A.U. after   10 cycles
 SCF Done:  E(RB3LYP) =  -534.845957844     A.U. after   11 cycles
 SCF Done:  E(RB3LYP) =  -534.845943622     A.U. after   10 cycles
 SCF Done:  E(RB3LYP) =  -534.846280692     A.U. after    9 cycles
 SCF Done:  E(RB3LYP) =  -534.846349707     A.U. after    9 cycles
 SCF Done:  E(RB3LYP) =  -534.846384585     A.U. after    9 cycles
 SCF Done:  E(RB3LYP) =  -534.846391226     A.U. after    8 cycles
 SCF Done:  E(RB3LYP) =  -534.846394252     A.U. after    8 cycles
 SCF Done:  E(RB3LYP) =  -534.846394934     A.U. after    7 cycles
 SCF Done:  E(RB3LYP) =  -534.846395006     A.U. after    6 cycles
 Optimization completed.
    -- Stationary point found.
 Normal termination of Gaussian 16 at Sun May 28 03:26:54 2023.

 ----------------------------------------------------------------------
 #N Geom=AllCheck Guess=TCheck SCRF=Check GenChk RB3LYP/6-31G(2df,p) Fr
 eq
 ----------------------------------------------------------------------

 Structure from the checkpoint file:  "CCCCCCqFrqFrF.chk"
 -------------------
 Title Card Required
 -------------------
 Charge =  0 Multiplicity = 1

                         Standard orientation:
 ---------------------------------------------------------------------
 Center     Atomic      Atomic             Coordinates (Angstroms)
 Number     Number       Type             X           Y           Z
 ---------------------------------------------------------------------
      1          6           0       -3.482314   -0.182166    0.171658
      2          6           0       -2.068039   -0.334298   -0.395513
      3          6           0       -1.101629    0.713410    0.173801
      4          6           0        0.318265    0.736709   -0.427776
      5          6           0        1.057436    2.033869   -0.063750
      6          6           0        1.152579   -0.462116    0.008687
      7          9           0        1.272227   -0.526179    1.346955
      8          9           0        0.627751   -1.632464   -0.397048
      9          9           0        2.397435   -0.405426   -0.497144
     10          1           0       -4.159790   -0.933454   -0.245396
     11          1           0       -3.899317    0.805589   -0.055192
     12          1           0       -3.486890   -0.299378    1.261103
     13          1           0       -2.099632   -0.238004   -1.489026
     14          1           0       -1.695888   -1.341091   -0.189214
     15          1           0       -1.021051    0.594586    1.261534
     16          1           0       -1.533307    1.708862    0.011239
     17          1           0        0.249265    0.658893   -1.519990
     18          1           0        1.139302    2.141148    1.022162
     19          1           0        0.507994    2.896231   -0.449714
     20          1           0        2.064799    2.050789   -0.485019
 ---------------------------------------------------------------------

 SCF Done:  E(RB3LYP) =  -534.846395006     A.U. after    1 cycles

 The electronic state is 1-A.
 Alpha  occ. eigenvalues --  -24.71315 -24.71300 -24.71163 -10.40910 -10.20986
 Alpha  occ. eigenvalues --  -10.18979 -10.18643 -10.18178 -10.17503  -1.29910
 Alpha  occ. eigenvalues --   -1.21032  -1.20930  -0.82871  -0.76972  -0.69556
 Alpha  occ. eigenvalues --   -0.68417  -0.61995  -0.59354  -0.57875  -0.57419
 Alpha  occ. eigenvalues --   -0.52851  -0.46532  -0.45963  -0.45452  -0.44237
 Alpha  occ. eigenvalues --   -0.43203  -0.41517  -0.40872  -0.40194  -0.39857
 Alpha  occ. eigenvalues --   -0.39145  -0.38142  -0.36431  -0.34842  -0.33450
 Alpha  occ. eigenvalues --   -0.32839  -0.32547
 Alpha virt. eigenvalues --    0.08407   0.10180   0.11660   0.13492   0.13968
 Alpha virt. eigenvalues --    0.14824   0.16085   0.16612   0.17014   0.17804
 Alpha virt. eigenvalues --    0.18585   0.19307   0.21580   0.22181   0.23726

 Mulliken charges:
               1
     1  C   -0.380995
     2  C   -0.184112
     3  C   -0.175276
     4  C   -0.131621
     5  C   -0.413776
     6  C    0.291305
     7  F   -0.086690
     8  F   -0.080711
     9  F   -0.083842
    10  H    0.114314
    11  H    0.112245
    12  H    0.116433
    13  H    0.094122
    14  H    0.115449
    15  H    0.110398
    16  H    0.096169
    17  H    0.101187
    18  H    0.132088
    19  H    0.120888
    20  H    0.132426
 Sum of Mulliken charges =  -0.00000

 Dipole moment (field-independent basis, Debye):
    X=             -1.1671    Y=              1.5148    Z=             -0.4849  Tot=              1.9727
 Quadrupole moment (field-independent basis, Debye-Ang):
   XX=            -55.5555   YY=            -53.3095   ZZ=            -53.4095
   XY=              1.3380   XZ=             -0.0859   YZ=             -0.5204

  Exact polarizability:  77.668   3.823  66.525  -0.755   0.476  60.762
 Approx polarizability:  94.300   1.585  92.038  -0.500   0.555  93.161

                      1                      2                      3
                      A                      A                      A
 Frequencies --     35.0667                68.6258               119.4158
 Red. masses --      3.5663                 2.1239                 3.3663
 Frc consts  --      0.0026                 0.0059                 0.0283
 IR Inten    --      0.0557                 0.1506                 0.5073

                      4                      5                      6
                      A                      A                      A
 Frequencies --    169.7602               209.4906               233.8492
 Red. masses --      2.4794                 1.3102                 2.7815
 Frc consts  --      0.0421                 0.0339                 0.0896
 IR Inten    --      0.3834                 0.2293                 0.4776

                      7                      8                      9
                      A                      A                      A
 Frequencies --    246.2204               266.7597               314.3206
 Red. masses --      1.1926                 2.8763                 5.1792
 Frc consts  --      0.0426                 0.1206                 0.3015
 IR Inten    --      0.0828                 0.4308                 0.5051

                     10                     11                     12
                      A                      A                      A
 Frequencies --    340.0580               460.5459               469.2107
 Red. masses --      3.3209                 4.7497                 4.1301
 Frc consts  --      0.2263                 0.5936                 0.5357
 IR Inten    --      1.3274                 3.1265                 2.4796

                     13                     14                     15
                      A                      A                      A
 Frequencies --    546.0950               586.1505               630.1609
 Red. masses --      6.7292                 6.6827                 3.5200
 Frc consts  --      1.1824                 1.3528                 0.8236
 IR Inten    --      4.6941                 0.8207                 3.7022

                     16                     17                     18
                      A                      A                      A
 Frequencies --    744.9773               791.1219               875.8365
 Red. masses --      1.2485                 3.8559                 1.3452
 Frc consts  --      0.4082                 1.4219                 0.6080
 IR Inten    --      5.5984                 0.3179                 0.2124

                     19                     20                     21
                      A                      A                      A
 Frequencies --    887.2593               942.4059              1011.4321
 Red. masses --      1.6800                 1.9918                 1.5469
 Frc consts  --      0.7792                 1.0423                 0.9324
 IR Inten    --      1.6093                 3.6995                14.7461

                     22                     23                     24
                      A                      A                      A
 Frequencies --   1046.5243              1062.9319              1076.6298
 Red. masses --      1.9131                 2.1170                 2.1115
 Frc consts  --      1.2345                 1.4092                 1.4421
 IR Inten    --      6.6248                 7.2511                45.2077

                     25                     26                     27
                      A                      A                      A
 Frequencies --   1120.1018              1164.2026              1190.1192
 Red. masses --      2.5310                 2.8567                 3.5794
 Frc consts  --      1.8710                 2.2812                 2.9870
 IR Inten    --     62.1313                63.8181               115.3350

                     28                     29                     30
                      A                      A                      A
 Frequencies --   1199.8729              1263.4805              1270.5475
 Red. masses --      3.9655                 2.0795                 1.8422
 Frc consts  --      3.3637                 1.9559                 1.7522
 IR Inten    --    136.3260                72.6094                54.4549

                     31                     32                     33
                      A                      A                      A
 Frequencies --   1306.8654              1335.6652              1352.7729
 Red. masses --      1.3565                 1.1336                 1.3987
 Frc consts  --      1.3650                 1.1915                 1.5080
 IR Inten    --     19.7391                 5.1996                 6.3509

                     34                     35                     36
                      A                      A                      A
 Frequencies --   1395.6064              1401.2226              1413.7053
 Red. masses --      1.5125                 1.5759                 1.2394
 Frc consts  --      1.7357                 1.8230                 1.4594
 IR Inten    --      5.5190                13.0176                 2.0264

                     37                     38                     39
                      A                      A                      A
 Frequencies --   1417.5532              1482.6436              1494.0914
 Red. masses --      1.3220                 1.0732                 1.0507
 Frc consts  --      1.5652                 1.3900                 1.3819
 IR Inten    --     13.5232                 0.7646                 0.7569

                     40                     41                     42
                      A                      A                      A
 Frequencies --   1496.2988              1500.0619              1508.7696
 Red. masses --      1.0477                 1.0402                 1.0710
 Frc consts  --      1.3820                 1.3790                 1.4364
 IR Inten    --      3.3254                 6.1469                 8.2051

                     43                     44                     45
                      A                      A                      A
 Frequencies --   1513.1511              3019.9707              3024.7267
 Red. masses --      1.0868                 1.0638                 1.0618
 Frc consts  --      1.4661                 5.7165                 5.7235
 IR Inten    --      8.9052                 4.8817                14.3867

                     46                     47                     48
                      A                      A                      A
 Frequencies --   3029.2856              3038.1418              3049.5335
 Red. masses --      1.0413                 1.0836                 1.0363
 Frc consts  --      5.6298                 5.8932                 5.6781
 IR Inten    --     40.6657                10.4496                20.7025

                     49                     50                     51
                      A                      A                      A
 Frequencies --   3062.5456              3083.6713              3102.5892
 Red. masses --      1.0960                 1.0969                 1.1014
 Frc consts  --      6.0565                 6.1454                 6.2464
 IR Inten    --     20.9775                 4.4933                35.2307

                     52                     53                     54
                      A                      A                      A
 Frequencies --   3109.2902              3120.0841              3132.6305
 Red. masses --      1.0974                 1.1016                 1.1018
 Frc consts  --      6.2510                 6.3184                 6.3706
 IR Inten    --     45.7975                23.1134                17.5223

 - Thermochemistry -
 -------------------
 Temperature   298.150 Kelvin.  Pressure   1.00000 Atm.
 Atom     1 has atomic number  6 and mass  12.00000

 Molecular mass:   140.08129 amu.
 Principal axes and moments of inertia in atomic units:
                           1         2         3
     Eigenvalues --   733.039621805.231742135.86642
           X            0.99934   0.03620  -0.00402
           Y           -0.03621   0.99934  -0.00226
           Z            0.00394   0.00240   0.99999
 This molecule is an asymmetric top.
 Rotational symmetry number  1.
 Warning -- assumption of classical behavior for rotation
           may cause significant error
 Rotational temperatures (Kelvin)      0.11816     0.04798     0.04055
 Rotational constants (GHZ):           2.46200     0.99973     0.84497
 Zero-point vibrational energy     435046.2 (Joules/Mol)
                                  103.97854 (Kcal/Mol)
 Warning -- explicit consideration of  14 degrees of freedom as
           vibrations may cause significant error
 Vibrational temperatures:     50.45    98.74   171.81   244.25   301.41
          (Kelvin)            336.46   354.26   383.81   452.24   489.27
                              662.62   675.09   785.71   843.34   906.66
                             1071.86  1138.25  1260.13  1276.57  1355.91
                             1455.23  1505.72  1529.32  1549.03  1611.58
                             1675.03  1712.32  1726.35  1817.87  1828.03
                             1880.29  1921.72  1946.34  2007.97  2016.05
                             2034.01  2039.54  2133.19  2149.66  2152.84
                             2158.25  2170.78  2177.09  4345.06  4351.91
                             4358.47  4371.21  4387.60  4406.32  4436.72
                             4463.93  4473.58  4489.11  4507.16

 Zero-point correction=                           0.165700 (Hartree/Particle)
 Thermal correction to Energy=                    0.175947
 Thermal correction to Enthalpy=                  0.176892
 Thermal correction to Gibbs Free Energy=         0.129461
 Sum of electronic and zero-point Energies=           -534.680695
 Sum of electronic and thermal Energies=              -534.670448
 Sum of electronic and thermal Enthalpies=            -534.669503
 Sum of electronic and thermal Free Energies=         -534.716934

                     E (Thermal)             CV                S
                      KCal/Mol        Cal/Mol-Kelvin    Cal/Mol-Kelvin
 Total                  110.409             36.641             99.827
 Electronic               0.000              0.000              0.000
 Translational            0.889              2.981             40.723
 Rotational               0.889              2.981             29.426
 Vibrational            108.631             30.679             29.678
 Vibration     1          0.594              1.982              5.520
 Vibration     2          0.598              1.969              4.192
 Vibration     3          0.609              1.933              3.110
 Vibration     4          0.625              1.880              2.438
 Vibration     5          0.642              1.826              2.048
 Vibration     6          0.654              1.789              1.849
 Vibration     7          0.661              1.769              1.757
 Vibration     8          0.672              1.734              1.617
 Vibration     9          0.702              1.646              1.339
 Vibration    10          0.720              1.595              1.212
 Vibration    11          0.818              1.338              0.765
 Vibration    12          0.826              1.318              0.740
 Vibration    13          0.901              1.148              0.552
 Vibration    14          0.943              1.061              0.474

 Optimization completed.
    -- Stationary point found.
 Normal termination of Gaussian 16 at Sun May 28 03:57:46 2023.
