 Gaussian 16, Revision A.03,
 Gaussian 16:  ES64L-G16RevA.03 25-Dec-2016

 -----------------------------
 # opt freq b3lyp/6-31g(2df,p)
 -----------------------------

 -------------------
 Title Card Required
 -------------------
 Symbolic Z-matrix:
 Charge =  0 Multiplicity = 1

 SCF Done:  E(RB3LYP) =  -1023.84224290     A.U. after   13 cycles
 SCF Done:  E(RB3LYP) =  -1023.84719908     A.U. after   10 cycles
 SCF Done:  E(RB3LYP) =  -1023.84780338     A.U. after   10 cycles
 SCF Done:  E(RB3LYP) =  -1023.84785472     A.U. after    9 cycles
 SCF Done:  E(RB3LYP) =  -1023.84785934     A.U. after    8 cycles
 SCF Done:  E(RB3LYP) =  -1023.84785762     A.U. after    8 cycles
 SCF Done:  E(RB3LYP) =  -1023.84785986     A.U. after    7 cycles
 SCF Done:  E(RB3LYP) =  -1023.84786063     A.U. after    7 cycles
 SCF Done:  E(RB3LYP) =  -1023.84786067     A.U. after    6 cycles
 SCF Done:  E(RB3LYP) =  -1023.84786076     A.U. after    7 cycles
 SCF Done:  E(RB3LYP) =  -1023.84786101     A.U. after    7 cycles
 SCF Done:  E(RB3LYP) =  -1023.84786118     A.U. after    8 cycles
 SCF Done:  E(RB3LYP) =  -1023.84786136     A.U. after    8 cycles
 SCF Done:  E(RB3LYP) =  -1023.84786169     A.U. after    8 cycles
 SCF Done:  E(RB3LYP) =  -1023.84786174     A.U. after    7 cycles
 SCF Done:  E(RB3LYP) =  -1023.84786173     A.U. after    7 cycles
 SCF Done:  E(RB3LYP) =  -1023.84786173     A.U. after    5 cycles
 Optimization completed.
    -- Stationary point found.
 Normal termination of Gaussian 16 at Sun May 28 14:43:06 2023.

 ----------------------------------------------------------------------
 #N Geom=AllCheck Guess=TCheck SCRF=Check GenChk RB3LYP/6-31G(2df,p) Fr
 eq
 ----------------------------------------------------------------------

 Structure from the checkpoint file:  "CCCCCqdOrCCSCCCCCqCrC.chk"
 -------------------
 Title Card Required
 -------------------
 Charge =  0 Multiplicity = 1

                         Standard orientation:
 ---------------------------------------------------------------------
 Center     Atomic      Atomic             Coordinates (Angstroms)
 Number     Number       Type             X           Y           Z
 ---------------------------------------------------------------------
      1          6           0       -8.712404    0.665727   -0.060686
      2          6           0       -7.518337   -0.283527    0.070687
      3          6           0       -6.170303    0.434363   -0.050030
      4          6           0       -4.976279   -0.510345    0.082854
      5          6           0       -3.623583    0.177170   -0.048008
      6          8           0       -3.520660    1.359882   -0.284244
      7          6           0       -2.398132   -0.714019    0.135927
      8          6           0       -1.085586    0.038612   -0.059956
      9         16           0        0.323694   -1.096818    0.194999
     10          6           0        1.709000    0.063640   -0.096105
     11          6           0        3.051688   -0.651509    0.065206
     12          6           0        4.245270    0.282777   -0.174944
     13          6           0        5.594662   -0.426768   -0.008608
     14          6           0        6.831581    0.431246   -0.333039
     15          6           0        6.987224    1.624848    0.620289
     16          6           0        8.100199   -0.432704   -0.323157
     17          1           0       -9.661892    0.128788    0.028445
     18          1           0       -8.706861    1.175614   -1.030352
     19          1           0       -8.690984    1.437351    0.716763
     20          1           0       -7.585565   -1.065473   -0.697849
     21          1           0       -7.569553   -0.805182    1.036009
     22          1           0       -6.094759    1.217491    0.713573
     23          1           0       -6.108551    0.955897   -1.012072
     24          1           0       -5.020384   -1.306098   -0.675315
     25          1           0       -4.997380   -1.040418    1.045921
     26          1           0       -2.473122   -1.559684   -0.560281
     27          1           0       -2.445239   -1.159796    1.138615
     28          1           0       -1.019780    0.869491    0.647240
     29          1           0       -1.039097    0.459190   -1.068103
     30          1           0        1.627311    0.891906    0.616148
     31          1           0        1.613391    0.477008   -1.106081
     32          1           0        3.099493   -1.496599   -0.632815
     33          1           0        3.116335   -1.078861    1.073639
     34          1           0        4.177944    1.132753    0.515279
     35          1           0        4.178708    0.704408   -1.187663
     36          1           0        5.605629   -1.313375   -0.657135
     37          1           0        5.682275   -0.805508    1.020240
     38          1           0        6.703034    0.827206   -1.351389
     39          1           0        7.090340    1.283536    1.657772
     40          1           0        6.130773    2.303834    0.576356
     41          1           0        7.881337    2.207249    0.374169
     42          1           0        8.275926   -0.858141    0.672377
     43          1           0        8.984008    0.155554   -0.591564
     44          1           0        8.022847   -1.265174   -1.030536
 ---------------------------------------------------------------------

 SCF Done:  E(RB3LYP) =  -1023.84786173     A.U. after    2 cycles

 The electronic state is 1-A.
 Alpha  occ. eigenvalues --  -88.85840 -19.13115 -10.27029 -10.20857 -10.20680
 Alpha  occ. eigenvalues --  -10.19816 -10.19258 -10.18432 -10.18421 -10.18134
 Alpha  occ. eigenvalues --  -10.17978 -10.17954 -10.17549 -10.17249 -10.16948
 Alpha  occ. eigenvalues --  -10.16903  -7.92171  -5.88649  -5.88322  -5.87690
 Alpha  occ. eigenvalues --   -1.04141  -0.82004  -0.80866  -0.80136  -0.78314
 Alpha  occ. eigenvalues --   -0.75002  -0.73158  -0.69014  -0.67881  -0.65391
 Alpha  occ. eigenvalues --   -0.62491  -0.58948  -0.57985  -0.57638  -0.55361
 Alpha  occ. eigenvalues --   -0.52328  -0.48655  -0.47924  -0.47006  -0.46508
 Alpha  occ. eigenvalues --   -0.45348  -0.44137  -0.43697  -0.42886  -0.42495
 Alpha  occ. eigenvalues --   -0.41916  -0.40732  -0.39922  -0.38962  -0.38082
 Alpha  occ. eigenvalues --   -0.38000  -0.37527  -0.37088  -0.35877  -0.35223
 Alpha  occ. eigenvalues --   -0.35009  -0.34637  -0.34573  -0.33487  -0.33035
 Alpha  occ. eigenvalues --   -0.32922  -0.32483  -0.31736  -0.31523  -0.30514
 Alpha  occ. eigenvalues --   -0.30006  -0.24585  -0.21474
 Alpha virt. eigenvalues --   -0.01081   0.03895   0.07516   0.08301   0.09015
 Alpha virt. eigenvalues --    0.09683   0.10260   0.11200   0.11993   0.12194
 Alpha virt. eigenvalues --    0.12514   0.13624   0.13953   0.14530   0.15090

 Mulliken charges:
               1
     1  C   -0.380258
     2  C   -0.170852
     3  C   -0.153573
     4  C   -0.301173
     5  C    0.356429
     6  O   -0.297884
     7  C   -0.307516
     8  C   -0.183660
     9  S   -0.173599
    10  C   -0.191618
    11  C   -0.187094
    12  C   -0.200898
    13  C   -0.164838
    14  C    0.042079
    15  C   -0.380471
    16  C   -0.387963
    17  H    0.110975
    18  H    0.116097
    19  H    0.115893
    20  H    0.092971
    21  H    0.092876
    22  H    0.107587
    23  H    0.109922
    24  H    0.120374
    25  H    0.118251
    26  H    0.134767
    27  H    0.136763
    28  H    0.132626
    29  H    0.130665
    30  H    0.119225
    31  H    0.118947
    32  H    0.111697
    33  H    0.112089
    34  H    0.099013
    35  H    0.093636
    36  H    0.089343
    37  H    0.090065
    38  H    0.069228
    39  H    0.109950
    40  H    0.113058
    41  H    0.109404
    42  H    0.110907
    43  H    0.108014
    44  H    0.108545
 Sum of Mulliken charges =  -0.00000

 Dipole moment (field-independent basis, Debye):
    X=             -0.1621    Y=             -0.7442    Z=              0.0369  Tot=              0.7626
 Quadrupole moment (field-independent basis, Debye-Ang):
   XX=           -100.1510   YY=           -115.5455   ZZ=           -108.8069
   XY=              9.2748   XZ=             -2.2567   YZ=              1.1072

  Exact polarizability: 250.486   0.084 155.671  -0.648  -1.412 137.681
 Approx polarizability: 258.786   1.766 249.743  -0.481  -5.867 223.763

                      1                      2                      3
                      A                      A                      A
 Frequencies --     12.4811                13.5875                22.8969
 Red. masses --      4.0866                 1.8047                 4.5838
 Frc consts  --      0.0004                 0.0002                 0.0014
 IR Inten    --      0.4057                 1.3721                 0.1888

                      4                      5                      6
                      A                      A                      A
 Frequencies --     28.6106                41.0798                63.8189
 Red. masses --      3.6657                 2.6627                 2.8088
 Frc consts  --      0.0018                 0.0026                 0.0067
 IR Inten    --      0.0216                 0.0689                 0.0650

                      7                      8                      9
                      A                      A                      A
 Frequencies --     68.7828                68.9119                91.9076
 Red. masses --      3.4178                 3.0226                 1.8549
 Frc consts  --      0.0095                 0.0085                 0.0092
 IR Inten    --      2.5302                 2.4822                 0.3641

                     10                     11                     12
                      A                      A                      A
 Frequencies --     95.7205               115.1500               126.2687
 Red. masses --      2.8805                 4.1475                 1.8981
 Frc consts  --      0.0155                 0.0324                 0.0178
 IR Inten    --      0.8700                 1.3414                 0.0014

                     13                     14                     15
                      A                      A                      A
 Frequencies --    129.2133               139.6528               148.6144
 Red. masses --      2.5458                 2.9770                 2.3081
 Frc consts  --      0.0250                 0.0342                 0.0300
 IR Inten    --      0.8529                 0.1131                 0.1167

                     16                     17                     18
                      A                      A                      A
 Frequencies --    186.1233               224.8664               245.6679
 Red. masses --      4.0006                 1.0849                 1.1091
 Frc consts  --      0.0817                 0.0323                 0.0394
 IR Inten    --      5.5065                 0.1243                 0.0061

                     19                     20                     21
                      A                      A                      A
 Frequencies --    248.3987               254.3849               279.2933
 Red. masses --      1.2073                 4.4175                 2.8006
 Frc consts  --      0.0439                 0.1684                 0.1287
 IR Inten    --      0.0076                 0.3821                 0.2557

                     22                     23                     24
                      A                      A                      A
 Frequencies --    310.8838               346.8716               361.3641
 Red. masses --      4.5382                 3.8064                 2.6983
 Frc consts  --      0.2584                 0.2698                 0.2076
 IR Inten    --     10.7044                 0.0928                 0.8374

                     25                     26                     27
                      A                      A                      A
 Frequencies --    402.2581               449.2818               468.9808
 Red. masses --      2.2612                 2.3934                 2.9601
 Frc consts  --      0.2156                 0.2846                 0.3836
 IR Inten    --      0.1594                 0.4451                 0.4960

                     28                     29                     30
                      A                      A                      A
 Frequencies --    472.1322               478.4906               650.9444
 Red. masses --      1.9124                 2.9620                 6.4525
 Frc consts  --      0.2512                 0.3996                 1.6109
 IR Inten    --      0.0439                 0.2530                18.1430

                     31                     32                     33
                      A                      A                      A
 Frequencies --    702.2618               737.9848               743.3806
 Red. masses --      1.1624                 1.0818                 1.1361
 Frc consts  --      0.3378                 0.3471                 0.3699
 IR Inten    --      0.2190                 1.7715                 6.5645

                     34                     35                     36
                      A                      A                      A
 Frequencies --    760.0551               775.4337               776.5427
 Red. masses --      5.1723                 2.0277                 1.9359
 Frc consts  --      1.7604                 0.7184                 0.6878
 IR Inten    --      6.0864                 0.2136                 0.2378

                     37                     38                     39
                      A                      A                      A
 Frequencies --    800.4564               824.1232               874.7973
 Red. masses --      1.2770                 2.4787                 3.4578
 Frc consts  --      0.4821                 0.9919                 1.5591
 IR Inten    --      1.8341                 0.7059                 5.6638

                     40                     41                     42
                      A                      A                      A
 Frequencies --    885.4909               902.2925               916.9224
 Red. masses --      1.2927                 1.2932                 2.0026
 Frc consts  --      0.5972                 0.6203                 0.9920
 IR Inten    --      0.4481                 2.0026                 2.5707

                     43                     44                     45
                      A                      A                      A
 Frequencies --    927.0777               948.7705               965.5528
 Red. masses --      1.2019                 1.9551                 1.4575
 Frc consts  --      0.6086                 1.0369                 0.8006
 IR Inten    --      0.9949                 0.5342                 0.2437

                     46                     47                     48
                      A                      A                      A
 Frequencies --    975.8567               992.5517              1014.1810
 Red. masses --      1.3803                 4.2701                 1.4311
 Frc consts  --      0.7744                 2.4786                 0.8672
 IR Inten    --      0.7467                31.3631                 1.2611

                     49                     50                     51
                      A                      A                      A
 Frequencies --   1032.4780              1036.0757              1045.7258
 Red. masses --      3.8797                 2.8333                 2.5954
 Frc consts  --      2.4367                 1.7920                 1.6722
 IR Inten    --      0.7420                 0.0446                14.0692

                     52                     53                     54
                      A                      A                      A
 Frequencies --   1065.5881              1072.2511              1073.5472
 Red. masses --      2.4663                 1.1175                 2.0369
 Frc consts  --      1.6500                 0.7570                 1.3832
 IR Inten    --      0.4092                 0.0741                 7.2053

                     55                     56                     57
                      A                      A                      A
 Frequencies --   1086.3417              1089.5977              1139.4946
 Red. masses --      1.1196                 2.5116                 2.4954
 Frc consts  --      0.7784                 1.7568                 1.9091
 IR Inten    --      0.2702                26.2607                35.2261

                     58                     59                     60
                      A                      A                      A
 Frequencies --   1145.6026              1169.3459              1193.0329
 Red. masses --      2.2186                 1.5927                 1.7524
 Frc consts  --      1.7155                 1.2831                 1.4696
 IR Inten    --      0.5855                 0.3177                 4.9420

                     61                     62                     63
                      A                      A                      A
 Frequencies --   1211.2769              1225.8469              1236.5678
 Red. masses --      1.7869                 1.2864                 1.4593
 Frc consts  --      1.5447                 1.1390                 1.3147
 IR Inten    --      0.3422                12.9754                 0.0364

                     64                     65                     66
                      A                      A                      A
 Frequencies --   1251.9947              1271.7640              1286.8466
 Red. masses --      1.2802                 1.3566                 1.3921
 Frc consts  --      1.1823                 1.2928                 1.3582
 IR Inten    --      4.9143                 1.5049                 1.4847

                     67                     68                     69
                      A                      A                      A
 Frequencies --   1294.0746              1296.9224              1317.9807
 Red. masses --      1.1645                 1.2897                 1.1692
 Frc consts  --      1.1490                 1.2781                 1.1966
 IR Inten    --      0.1033                10.0078                 0.1059

                     70                     71                     72
                      A                      A                      A
 Frequencies --   1321.6362              1327.7030              1331.1742
 Red. masses --      1.1698                 1.0560                 1.0748
 Frc consts  --      1.2039                 1.0967                 1.1222
 IR Inten    --      1.6453                 0.3406                 0.4113

                     73                     74                     75
                      A                      A                      A
 Frequencies --   1344.9195              1358.9374              1370.6182
 Red. masses --      1.3394                 1.4803                 1.3380
 Frc consts  --      1.4274                 1.6106                 1.4809
 IR Inten    --     15.0520                11.7587                 8.4723

                     76                     77                     78
                      A                      A                      A
 Frequencies --   1376.3727              1382.3801              1397.0523
 Red. masses --      1.7433                 1.4666                 1.5415
 Frc consts  --      1.9458                 1.6513                 1.7727
 IR Inten    --     72.9338                 7.0308                 1.1479

                     79                     80                     81
                      A                      A                      A
 Frequencies --   1399.7997              1401.5413              1414.1766
 Red. masses --      1.6455                 1.2795                 1.2505
 Frc consts  --      1.8997                 1.4808                 1.4734
 IR Inten    --      6.6289                 3.5552                 2.1935

                     82                     83                     84
                      A                      A                      A
 Frequencies --   1422.2857              1445.7268              1459.4162
 Red. masses --      1.2428                 1.0864                 1.0972
 Frc consts  --      1.4812                 1.3379                 1.3769
 IR Inten    --      2.9332                 3.8261                13.6259

                     85                     86                     87
                      A                      A                      A
 Frequencies --   1477.4909              1480.4086              1483.2261
 Red. masses --      1.0791                 1.0820                 1.0712
 Frc consts  --      1.3879                 1.3971                 1.3885
 IR Inten    --      0.3523                 6.0765                 2.5187

                     88                     89                     90
                      A                      A                      A
 Frequencies --   1486.2453              1488.9354              1490.0232
 Red. masses --      1.0893                 1.0542                 1.0719
 Frc consts  --      1.4176                 1.3770                 1.4022
 IR Inten    --      0.3648                 0.3279                 0.7094

                     91                     92                     93
                      A                      A                      A
 Frequencies --   1494.8138              1496.0337              1499.5432
 Red. masses --      1.0633                 1.0642                 1.0400
 Frc consts  --      1.3998                 1.4033                 1.3778
 IR Inten    --      0.4156                 0.9555                 5.0421

                     94                     95                     96
                      A                      A                      A
 Frequencies --   1505.1095              1508.9853              1511.2231
 Red. masses --      1.0554                 1.0815                 1.0842
 Frc consts  --      1.4087                 1.4509                 1.4589
 IR Inten    --      2.7063                 1.9093                 4.2088

                     97                     98                     99
                      A                      A                      A
 Frequencies --   1512.4372              1802.8626              2990.4200
 Red. masses --      1.0658                11.0127                 1.0791
 Frc consts  --      1.4365                21.0897                 5.6857
 IR Inten    --      8.4710               102.1624                 6.9901

                    100                    101                    102
                      A                      A                      A
 Frequencies --   2999.5835              3005.2921              3009.6431
 Red. masses --      1.0612                 1.0600                 1.0590
 Frc consts  --      5.6256                 5.6405                 5.6519
 IR Inten    --     12.1415                 8.3955                27.5912

                    103                    104                    105
                      A                      A                      A
 Frequencies --   3010.6042              3021.6315              3023.1698
 Red. masses --      1.0619                 1.0367                 1.0568
 Frc consts  --      5.6708                 5.5768                 5.6908
 IR Inten    --     22.3132                24.4578                 9.9006

                    106                    107                    108
                      A                      A                      A
 Frequencies --   3025.4050              3027.1023              3029.7400
 Red. masses --      1.0612                 1.0393                 1.0362
 Frc consts  --      5.7229                 5.6111                 5.6039
 IR Inten    --     13.9558                26.1020                23.6224

                    109                    110                    111
                      A                      A                      A
 Frequencies --   3030.5350              3031.2814              3032.9821
 Red. masses --      1.0871                 1.0959                 1.0655
 Frc consts  --      5.8827                 5.9329                 5.7747
 IR Inten    --     11.5854                 8.9628                49.9290

                    112                    113                    114
                      A                      A                      A
 Frequencies --   3035.9003              3040.0770              3048.4393
 Red. masses --      1.1006                 1.0598                 1.1004
 Frc consts  --      5.9764                 5.7709                 6.0247
 IR Inten    --      5.3725                35.0493                12.4821

                    115                    116                    117
                      A                      A                      A
 Frequencies --   3055.6968              3057.1236              3064.8516
 Red. masses --      1.0977                 1.0576                 1.1051
 Frc consts  --      6.0391                 5.8236                 6.1163
 IR Inten    --      4.6827                14.7861                18.2373

                    118                    119                    120
                      A                      A                      A
 Frequencies --   3078.8954              3085.3928              3086.0212
 Red. masses --      1.1036                 1.1067                 1.1011
 Frc consts  --      6.1636                 6.2075                 6.1786
 IR Inten    --     20.2438                36.1257                24.4156

                    121                    122                    123
                      A                      A                      A
 Frequencies --   3091.9688              3097.1904              3097.7127
 Red. masses --      1.0998                 1.1014                 1.1021
 Frc consts  --      6.1949                 6.2247                 6.2309
 IR Inten    --     69.7969                43.8063                58.3598

                    124                    125                    126
                      A                      A                      A
 Frequencies --   3102.1629              3105.3399              3106.7896
 Red. masses --      1.1012                 1.0999                 1.1080
 Frc consts  --      6.2436                 6.2490                 6.3011
 IR Inten    --     37.5126                41.3750                 8.0178

 - Thermochemistry -
 -------------------
 Temperature   298.150 Kelvin.  Pressure   1.00000 Atm.
 Atom     1 has atomic number  6 and mass  12.00000

 Molecular mass:   244.18609 amu.
 Principal axes and moments of inertia in atomic units:
                           1         2         3
     Eigenvalues --   725.21341********************
           X            1.00000   0.00225   0.00005
           Y           -0.00225   0.99984   0.01782
           Z           -0.00001  -0.01782   0.99984
 This molecule is an asymmetric top.
 Rotational symmetry number  1.
 Warning -- assumption of classical behavior for rotation
           may cause significant error
 Rotational temperatures (Kelvin)      0.11943     0.00372     0.00364
 Rotational constants (GHZ):           2.48857     0.07741     0.07583
 Zero-point vibrational energy    1040719.8 (Joules/Mol)
                                  248.73799 (Kcal/Mol)
 Warning -- explicit consideration of  29 degrees of freedom as
           vibrations may cause significant error
 Vibrational temperatures:     17.96    19.55    32.94    41.16    59.10
          (Kelvin)             91.82    98.96    99.15   132.23   137.72
                              165.68   181.67   185.91   200.93   213.82
                              267.79   323.53   353.46   357.39   366.00
                              401.84   447.29   499.07   519.92   578.76
                              646.42   674.76   679.29   688.44   936.56
                             1010.40  1061.80  1069.56  1093.55  1115.68
                             1117.27  1151.68  1185.73  1258.64  1274.02
                             1298.20  1319.25  1333.86  1365.07  1389.22
                             1404.04  1428.06  1459.18  1485.51  1490.68
                             1504.57  1533.14  1542.73  1544.59  1563.00
                             1567.69  1639.48  1648.27  1682.43  1716.51
                             1742.76  1763.72  1779.15  1801.34  1829.78
                             1851.49  1861.88  1865.98  1896.28  1901.54
                             1910.27  1915.26  1935.04  1955.21  1972.01
                             1980.29  1988.94  2010.05  2014.00  2016.51
                             2034.68  2046.35  2080.08  2099.77  2125.78
                             2129.98  2134.03  2138.38  2142.25  2143.81
                             2150.70  2152.46  2157.51  2165.52  2171.09
                             2174.31  2176.06  2593.92  4302.55  4315.73
                             4323.95  4330.21  4331.59  4347.45  4349.67
                             4352.88  4355.32  4359.12  4360.26  4361.34
                             4363.78  4367.98  4373.99  4386.02  4396.47
                             4398.52  4409.64  4429.84  4439.19  4440.10
                             4448.65  4456.17  4456.92  4463.32  4467.89
                             4469.98

 Zero-point correction=                           0.396389 (Hartree/Particle)
 Thermal correction to Energy=                    0.418325
 Thermal correction to Enthalpy=                  0.419270
 Thermal correction to Gibbs Free Energy=         0.339810
 Sum of electronic and zero-point Energies=          -1023.451473
 Sum of electronic and thermal Energies=             -1023.429536
 Sum of electronic and thermal Enthalpies=           -1023.428592
 Sum of electronic and thermal Free Energies=        -1023.508052

                     E (Thermal)             CV                S
                      KCal/Mol        Cal/Mol-Kelvin    Cal/Mol-Kelvin
 Total                  262.503             76.285            167.236
 Electronic               0.000              0.000              0.000
 Translational            0.889              2.981             42.379
 Rotational               0.889              2.981             34.353
 Vibrational            260.726             70.324             90.505
 Vibration     1          0.593              1.987              7.571
 Vibration     2          0.593              1.986              7.402
 Vibration     3          0.593              1.985              6.366
 Vibration     4          0.593              1.984              5.923
 Vibration     5          0.594              1.981              5.206
 Vibration     6          0.597              1.972              4.335
 Vibration     7          0.598              1.969              4.188
 Vibration     8          0.598              1.969              4.184
 Vibration     9          0.602              1.955              3.619
 Vibration    10          0.603              1.952              3.540
 Vibration    11          0.608              1.937              3.180
 Vibration    12          0.611              1.927              3.002
 Vibration    13          0.612              1.924              2.958
 Vibration    14          0.615              1.914              2.809
 Vibration    15          0.618              1.904              2.690
 Vibration    16          0.632              1.859              2.266
 Vibration    17          0.650              1.803              1.920
 Vibration    18          0.660              1.770              1.761
 Vibration    19          0.662              1.765              1.742
 Vibration    20          0.665              1.755              1.700
 Vibration    21          0.680              1.712              1.538
 Vibration    22          0.700              1.653              1.358
 Vibration    23          0.725              1.582              1.180
 Vibration    24          0.736              1.552              1.116
 Vibration    25          0.768              1.465              0.954
 Vibration    26          0.808              1.362              0.798
 Vibration    27          0.826              1.319              0.740
 Vibration    28          0.829              1.312              0.732
 Vibration    29          0.835              1.298              0.714

 Optimization completed.
    -- Stationary point found.
 Normal termination of Gaussian 16 at Sun May 28 17:35:47 2023.
