 Gaussian 16, Revision A.03,
 Gaussian 16:  ES64L-G16RevA.03 25-Dec-2016

 -----------------------------
 # opt freq b3lyp/6-31g(2df,p)
 -----------------------------

 -------------------
 Title Card Required
 -------------------
 Symbolic Z-matrix:
 Charge =  0 Multiplicity = 1

 SCF Done:  E(RB3LYP) =  -700.783731257     A.U. after   12 cycles
 SCF Done:  E(RB3LYP) =  -700.802333874     A.U. after   11 cycles
 SCF Done:  E(RB3LYP) =  -700.807859988     A.U. after   11 cycles
 SCF Done:  E(RB3LYP) =  -700.812053320     A.U. after   10 cycles
 SCF Done:  E(RB3LYP) =  -700.813997758     A.U. after   10 cycles
 SCF Done:  E(RB3LYP) =  -700.815562042     A.U. after   10 cycles
 SCF Done:  E(RB3LYP) =  -700.817156705     A.U. after   11 cycles
 SCF Done:  E(RB3LYP) =  -700.817645297     A.U. after   10 cycles
 SCF Done:  E(RB3LYP) =  -700.817758422     A.U. after   10 cycles
 SCF Done:  E(RB3LYP) =  -700.817935938     A.U. after   10 cycles
 SCF Done:  E(RB3LYP) =  -700.817984354     A.U. after    9 cycles
 SCF Done:  E(RB3LYP) =  -700.817988100     A.U. after    8 cycles
 SCF Done:  E(RB3LYP) =  -700.817991578     A.U. after    8 cycles
 SCF Done:  E(RB3LYP) =  -700.817993021     A.U. after    8 cycles
 SCF Done:  E(RB3LYP) =  -700.817993328     A.U. after    6 cycles
 SCF Done:  E(RB3LYP) =  -700.817993376     A.U. after    6 cycles
 SCF Done:  E(RB3LYP) =  -700.817993383     A.U. after    5 cycles
 SCF Done:  E(RB3LYP) =  -700.817993346     A.U. after    6 cycles
 SCF Done:  E(RB3LYP) =  -700.817993314     A.U. after    5 cycles
 Optimization completed.
    -- Stationary point found.
 Normal termination of Gaussian 16 at Tue May 23 01:49:54 2023.

 ----------------------------------------------------------------------
 #N Geom=AllCheck Guess=TCheck SCRF=Check GenChk RB3LYP/6-31G(2df,p) Fr
 eq
 ----------------------------------------------------------------------

 Structure from the checkpoint file:  "CCCC1CC1qCrCqCOrCCqCrCCO.chk"
 -------------------
 Title Card Required
 -------------------
 Charge =  0 Multiplicity = 1

                         Standard orientation:
 ---------------------------------------------------------------------
 Center     Atomic      Atomic             Coordinates (Angstroms)
 Number     Number       Type             X           Y           Z
 ---------------------------------------------------------------------
      1          6           0       -4.155631   -3.460476   -0.044404
      2          6           0       -3.339269   -2.350500   -0.711227
      3          6           0       -2.651071   -1.419443    0.297529
      4          6           0       -1.840481   -0.329816   -0.375993
      5          6           0       -2.469629    0.974137   -0.812665
      6          6           0       -1.424635    0.975718    0.280334
      7          6           0       -1.881855    1.305273    1.691191
      8          6           0       -0.022189    1.481253   -0.083631
      9          6           0        0.154091    2.985790    0.188071
     10          8           0       -0.871557    3.805546   -0.346211
     11          6           0        1.103371    0.677266    0.627447
     12          6           0        2.153771    0.038317   -0.305273
     13          6           0        2.961741    1.095724   -1.073140
     14          6           0        3.064021   -0.907770    0.500498
     15          6           0        4.012544   -1.770078   -0.336249
     16          8           0        4.695220   -2.740165    0.445636
     17          1           0       -4.631154   -4.108995   -0.786929
     18          1           0       -4.947192   -3.044354    0.589046
     19          1           0       -3.523366   -4.090605    0.591284
     20          1           0       -3.987935   -1.752780   -1.364075
     21          1           0       -2.579526   -2.796997   -1.366451
     22          1           0       -2.000441   -2.017537    0.951639
     23          1           0       -3.414954   -0.980249    0.949818
     24          1           0       -1.101570   -0.730053   -1.069488
     25          1           0       -3.498807    1.159560   -0.519207
     26          1           0       -2.216574    1.375942   -1.789071
     27          1           0       -2.849039    0.852950    1.920861
     28          1           0       -1.993581    2.387179    1.812033
     29          1           0       -1.167892    0.950673    2.443953
     30          1           0        0.091085    1.332610   -1.168153
     31          1           0        1.145989    3.301697   -0.173173
     32          1           0        0.141170    3.171207    1.267529
     33          1           0       -0.947746    3.612936   -1.285886
     34          1           0        0.644189   -0.122197    1.218522
     35          1           0        1.626743    1.319877    1.349907
     36          1           0        1.610588   -0.573725   -1.041417
     37          1           0        3.549645    1.712297   -0.382063
     38          1           0        2.311545    1.766276   -1.643079
     39          1           0        3.655620    0.640727   -1.785639
     40          1           0        2.445428   -1.589476    1.096578
     41          1           0        3.654125   -0.316776    1.218071
     42          1           0        4.726228   -1.144861   -0.893524
     43          1           0        3.440404   -2.341356   -1.076576
     44          1           0        5.239047   -2.269386    1.085176
 ---------------------------------------------------------------------

 SCF Done:  E(RB3LYP) =  -700.817993314     A.U. after    1 cycles

 The electronic state is 1-A.
 Alpha  occ. eigenvalues --  -19.13131 -19.13096 -10.22364 -10.22061 -10.19173
 Alpha  occ. eigenvalues --  -10.18950 -10.18568 -10.18166 -10.17874 -10.17865
 Alpha  occ. eigenvalues --  -10.17725 -10.17680 -10.17582 -10.17451 -10.16995
 Alpha  occ. eigenvalues --  -10.16934  -1.01205  -1.01162  -0.86583  -0.81690
 Alpha  occ. eigenvalues --   -0.78126  -0.75902  -0.71535  -0.70180  -0.68501
 Alpha  occ. eigenvalues --   -0.67646  -0.63289  -0.60567  -0.59463  -0.56620
 Alpha  occ. eigenvalues --   -0.56266  -0.53111  -0.50099  -0.50031  -0.47234
 Alpha  occ. eigenvalues --   -0.46927  -0.45998  -0.44872  -0.43794  -0.43331
 Alpha  occ. eigenvalues --   -0.42171  -0.41762  -0.40780  -0.40660  -0.39627
 Alpha  occ. eigenvalues --   -0.38932  -0.38577  -0.37564  -0.36888  -0.36195
 Alpha  occ. eigenvalues --   -0.35336  -0.34715  -0.34303  -0.33727  -0.33079
 Alpha  occ. eigenvalues --   -0.32458  -0.32276  -0.32038  -0.31602  -0.30599
 Alpha  occ. eigenvalues --   -0.27859  -0.26450  -0.25825  -0.24829
 Alpha virt. eigenvalues --    0.06157   0.07658   0.07814   0.08980   0.09460
 Alpha virt. eigenvalues --    0.10803   0.11226   0.11649   0.12508   0.13064
 Alpha virt. eigenvalues --    0.13371   0.13889   0.14804   0.15211   0.15672

 Mulliken charges:
               1
     1  C   -0.382312
     2  C   -0.151467
     3  C   -0.213067
     4  C   -0.039211
     5  C   -0.340973
     6  C    0.358624
     7  C   -0.484552
     8  C   -0.103927
     9  C   -0.087265
    10  O   -0.417825
    11  C   -0.214733
    12  C    0.019340
    13  C   -0.390050
    14  C   -0.203733
    15  C   -0.070205
    16  O   -0.417125
    17  H    0.110313
    18  H    0.112502
    19  H    0.113100
    20  H    0.098613
    21  H    0.092101
    22  H    0.091419
    23  H    0.093066
    24  H    0.073427
    25  H    0.105108
    26  H    0.087511
    27  H    0.112993
    28  H    0.135491
    29  H    0.111144
    30  H    0.054644
    31  H    0.086884
    32  H    0.111176
    33  H    0.280225
    34  H    0.101776
    35  H    0.088737
    36  H    0.074225
    37  H    0.111851
    38  H    0.115258
    39  H    0.115937
    40  H    0.103418
    41  H    0.081500
    42  H    0.087759
    43  H    0.108963
    44  H    0.279340
 Sum of Mulliken charges =  -0.00000

 Dipole moment (field-independent basis, Debye):
    X=              0.6469    Y=              0.3975    Z=             -0.4580  Tot=              0.8867
 Quadrupole moment (field-independent basis, Debye-Ang):
   XX=           -100.8928   YY=           -118.1494   ZZ=            -98.4783
   XY=              9.5503   XZ=              3.1463   YZ=             -2.6084

  Exact polarizability: 173.369   2.719 165.424   2.076  -0.483 138.983
 Approx polarizability: 221.465  -1.381 222.104   6.536   0.479 219.641

                      1                      2                      3
                      A                      A                      A
 Frequencies --     16.4269                36.9051                54.4849
 Red. masses --      4.2462                 2.8572                 3.2354
 Frc consts  --      0.0007                 0.0023                 0.0057
 IR Inten    --      0.1148                 0.8869                 0.7957

                      4                      5                      6
                      A                      A                      A
 Frequencies --     59.5301                68.0648                76.1972
 Red. masses --      3.1459                 1.8918                 1.9937
 Frc consts  --      0.0066                 0.0052                 0.0068
 IR Inten    --      0.1280                 1.8186                 1.7249

                      7                      8                      9
                      A                      A                      A
 Frequencies --     86.4138               110.4408               113.5120
 Red. masses --      2.7231                 2.7285                 3.0047
 Frc consts  --      0.0120                 0.0196                 0.0228
 IR Inten    --      0.7558                 0.6708                 1.7468

                     10                     11                     12
                      A                      A                      A
 Frequencies --    122.4142               162.3726               191.7822
 Red. masses --      3.3006                 2.4636                 3.0251
 Frc consts  --      0.0291                 0.0383                 0.0656
 IR Inten    --      0.4126                 1.2411                 2.1416

                     13                     14                     15
                      A                      A                      A
 Frequencies --    201.7833               217.8035               239.1050
 Red. masses --      1.3880                 2.5148                 1.6220
 Frc consts  --      0.0333                 0.0703                 0.0546
 IR Inten    --      4.8149                 2.1326                29.2194

                     16                     17                     18
                      A                      A                      A
 Frequencies --    243.8282               252.4758               273.2572
 Red. masses --      1.1045                 1.4827                 1.4050
 Frc consts  --      0.0387                 0.0557                 0.0618
 IR Inten    --      0.1223                 5.7395                69.6664

                     19                     20                     21
                      A                      A                      A
 Frequencies --    281.1755               290.6703               297.6709
 Red. masses --      2.1713                 2.7137                 1.2466
 Frc consts  --      0.1011                 0.1351                 0.0651
 IR Inten    --     16.0482                 4.0425                96.8650

                     22                     23                     24
                      A                      A                      A
 Frequencies --    315.7202               344.1739               364.5534
 Red. masses --      2.1516                 2.4309                 2.9984
 Frc consts  --      0.1264                 0.1697                 0.2348
 IR Inten    --     19.1893                 1.1942                11.3486

                     25                     26                     27
                      A                      A                      A
 Frequencies --    407.7804               419.8171               446.7379
 Red. masses --      2.1288                 2.3663                 3.1087
 Frc consts  --      0.2086                 0.2457                 0.3655
 IR Inten    --      1.6761                 3.5965                 5.9242

                     28                     29                     30
                      A                      A                      A
 Frequencies --    466.9751               510.8920               532.4880
 Red. masses --      2.2583                 2.7519                 3.0471
 Frc consts  --      0.2902                 0.4232                 0.5091
 IR Inten    --      0.1410                 2.2967                 2.3126

                     31                     32                     33
                      A                      A                      A
 Frequencies --    614.0144               711.7685               745.7366
 Red. masses --      2.7457                 2.6746                 1.1320
 Frc consts  --      0.6099                 0.7983                 0.3709
 IR Inten    --      2.3210                 1.9448                 3.2033

                     34                     35                     36
                      A                      A                      A
 Frequencies --    781.1918               833.2230               842.1229
 Red. masses --      1.1833                 2.4274                 2.1751
 Frc consts  --      0.4255                 0.9929                 0.9088
 IR Inten    --      1.8493                 1.9804                 0.6020

                     37                     38                     39
                      A                      A                      A
 Frequencies --    853.1261               873.4940               877.3383
 Red. masses --      1.1879                 2.0297                 1.7403
 Frc consts  --      0.5094                 0.9124                 0.7892
 IR Inten    --      0.7393                 5.5104                 0.6057

                     40                     41                     42
                      A                      A                      A
 Frequencies --    896.5700               924.3382               945.4628
 Red. masses --      1.9017                 1.8163                 1.5989
 Frc consts  --      0.9006                 0.9143                 0.8421
 IR Inten    --      0.8838                 5.7807                 2.0543

                     43                     44                     45
                      A                      A                      A
 Frequencies --    952.4729               966.8639               973.4464
 Red. masses --      1.4860                 1.6301                 1.5558
 Frc consts  --      0.7943                 0.8978                 0.8686
 IR Inten    --      4.7062                 3.1682                 2.7123

                     46                     47                     48
                      A                      A                      A
 Frequencies --   1002.5472              1015.7530              1028.6328
 Red. masses --      2.0265                 2.7028                 2.1022
 Frc consts  --      1.2001                 1.6430                 1.3105
 IR Inten    --     51.5152                 1.2224                15.5371

                     49                     50                     51
                      A                      A                      A
 Frequencies --   1047.4774              1056.4089              1064.6595
 Red. masses --      2.3598                 1.4345                 2.8478
 Frc consts  --      1.5255                 0.9433                 1.9019
 IR Inten    --      1.1101                10.1606                71.7614

                     52                     53                     54
                      A                      A                      A
 Frequencies --   1079.0430              1083.1350              1092.2785
 Red. masses --      3.7740                 1.7139                 2.4461
 Frc consts  --      2.5890                 1.1847                 1.7195
 IR Inten    --     41.8220                 9.3795                41.2857

                     55                     56                     57
                      A                      A                      A
 Frequencies --   1102.5615              1120.9159              1123.6294
 Red. masses --      2.0587                 2.1370                 1.5858
 Frc consts  --      1.4745                 1.5820                 1.1797
 IR Inten    --      1.3134                15.7569                 4.0271

                     58                     59                     60
                      A                      A                      A
 Frequencies --   1137.2287              1145.7607              1148.5176
 Red. masses --      1.9662                 1.9308                 1.4798
 Frc consts  --      1.4982                 1.4934                 1.1501
 IR Inten    --      3.2328                 8.5895                 5.7148

                     61                     62                     63
                      A                      A                      A
 Frequencies --   1179.8579              1192.7578              1217.5137
 Red. masses --      1.4483                 1.8193                 1.6288
 Frc consts  --      1.1879                 1.5250                 1.4225
 IR Inten    --      8.0856                 1.8872                 2.5331

                     64                     65                     66
                      A                      A                      A
 Frequencies --   1253.8360              1259.4294              1275.4555
 Red. masses --      1.5304                 1.3709                 1.2850
 Frc consts  --      1.4175                 1.2812                 1.2317
 IR Inten    --      5.6930                 0.2803                 8.9428

                     67                     68                     69
                      A                      A                      A
 Frequencies --   1278.9072              1294.8237              1306.4133
 Red. masses --      1.4376                 1.2738                 1.3674
 Frc consts  --      1.3854                 1.2583                 1.3750
 IR Inten    --      5.2826                 1.6430                 2.0642

                     70                     71                     72
                      A                      A                      A
 Frequencies --   1315.7520              1328.7400              1334.2204
 Red. masses --      1.2394                 1.1398                 1.5518
 Frc consts  --      1.2642                 1.1856                 1.6276
 IR Inten    --     12.3137                 2.6836                 4.4852

                     73                     74                     75
                      A                      A                      A
 Frequencies --   1350.1764              1370.8666              1374.3791
 Red. masses --      1.2867                 1.3270                 1.3244
 Frc consts  --      1.3820                 1.4693                 1.4739
 IR Inten    --      2.2601                 2.3758                 2.7775

                     76                     77                     78
                      A                      A                      A
 Frequencies --   1381.9115              1383.9666              1397.7898
 Red. masses --      1.4246                 1.3767                 1.4046
 Frc consts  --      1.6029                 1.5536                 1.6169
 IR Inten    --      1.3431                 3.6644                 1.3965

                     79                     80                     81
                      A                      A                      A
 Frequencies --   1402.3022              1411.5663              1412.9754
 Red. masses --      1.2911                 1.2458                 1.2464
 Frc consts  --      1.4959                 1.4625                 1.4661
 IR Inten    --      9.5351                 0.5776                 4.3741

                     82                     83                     84
                      A                      A                      A
 Frequencies --   1419.1072              1421.3575              1424.5766
 Red. masses --      1.3203                 1.2774                 1.2875
 Frc consts  --      1.5665                 1.5205                 1.5394
 IR Inten    --     15.5650                79.4442                 3.0074

                     85                     86                     87
                      A                      A                      A
 Frequencies --   1430.2829              1477.3848              1479.0005
 Red. masses --      1.5831                 1.0943                 1.0854
 Frc consts  --      1.9081                 1.4072                 1.3988
 IR Inten    --      3.4118                 0.3155                 0.7176

                     88                     89                     90
                      A                      A                      A
 Frequencies --   1489.4613              1491.7865              1493.8082
 Red. masses --      1.0971                 1.0849                 1.1831
 Frc consts  --      1.4340                 1.4225                 1.5554
 IR Inten    --      0.2051                 2.1028                 3.5128

                     91                     92                     93
                      A                      A                      A
 Frequencies --   1496.4907              1497.8557              1499.3242
 Red. masses --      1.0597                 1.0639                 1.0542
 Frc consts  --      1.3983                 1.4063                 1.3963
 IR Inten    --      1.8122                 2.1491                 3.2820

                     94                     95                     96
                      A                      A                      A
 Frequencies --   1500.3934              1508.3926              1510.4527
 Red. masses --      1.0963                 1.0836                 1.0828
 Frc consts  --      1.4542                 1.4526                 1.4555
 IR Inten    --      4.9458                 7.7283                 3.2773

                     97                     98                     99
                      A                      A                      A
 Frequencies --   1515.6331              1520.9399              2973.8958
 Red. masses --      1.0916                 1.0955                 1.0760
 Frc consts  --      1.4774                 1.4931                 5.6065
 IR Inten    --      0.9585                 2.5637                37.5185

                    100                    101                    102
                      A                      A                      A
 Frequencies --   2980.8855              2984.3246              2988.7835
 Red. masses --      1.0764                 1.0766                 1.0685
 Frc consts  --      5.6354                 5.6493                 5.6234
 IR Inten    --     42.6938                 4.2191                41.8258

                    103                    104                    105
                      A                      A                      A
 Frequencies --   2993.4457              3003.0911              3008.8586
 Red. masses --      1.0684                 1.0643                 1.0683
 Frc consts  --      5.6405                 5.6552                 5.6986
 IR Inten    --     13.4164                12.6631                48.8210

                    106                    107                    108
                      A                      A                      A
 Frequencies --   3016.8122              3027.4177              3029.0340
 Red. masses --      1.0622                 1.0361                 1.0396
 Frc consts  --      5.6957                 5.5947                 5.6196
 IR Inten    --     27.0749                37.4734                24.9161

                    109                    110                    111
                      A                      A                      A
 Frequencies --   3031.6132              3041.7665              3048.6902
 Red. masses --      1.0419                 1.0913                 1.0891
 Frc consts  --      5.6417                 5.9490                 5.9641
 IR Inten    --     25.0125                11.4027                 9.2733

                    112                    113                    114
                      A                      A                      A
 Frequencies --   3060.9294              3062.0985              3068.6354
 Red. masses --      1.0999                 1.0951                 1.0913
 Frc consts  --      6.0719                 6.0497                 6.0546
 IR Inten    --     16.2402                14.2788                30.8462

                    115                    116                    117
                      A                      A                      A
 Frequencies --   3069.7516              3093.6351              3094.6187
 Red. masses --      1.0993                 1.1016                 1.0974
 Frc consts  --      6.1036                 6.2118                 6.1921
 IR Inten    --     78.0657                27.4478                31.0695

                    118                    119                    120
                      A                      A                      A
 Frequencies --   3095.2086              3099.6450              3105.5819
 Red. masses --      1.0972                 1.1008                 1.0859
 Frc consts  --      6.1932                 6.2314                 6.1705
 IR Inten    --     33.3137                35.6901                36.2065

                    121                    122                    123
                      A                      A                      A
 Frequencies --   3107.4410              3114.1844              3119.7237
 Red. masses --      1.1001                 1.0589                 1.0952
 Frc consts  --      6.2588                 6.0505                 6.2801
 IR Inten    --     43.3658                17.0662                30.1572

                    124                    125                    126
                      A                      A                      A
 Frequencies --   3194.3580              3814.5737              3819.3721
 Red. masses --      1.1156                 1.0661                 1.0660
 Frc consts  --      6.7068                 9.1400                 9.1622
 IR Inten    --     17.7820                16.5052                11.6951

 - Thermochemistry -
 -------------------
 Temperature   298.150 Kelvin.  Pressure   1.00000 Atm.
 Atom     1 has atomic number  6 and mass  12.00000

 Molecular mass:   228.20893 amu.
 Principal axes and moments of inertia in atomic units:
                           1         2         3
     Eigenvalues --  3878.785546543.354819512.92713
           X            0.99859   0.05284  -0.00429
           Y           -0.05283   0.99860   0.00230
           Z            0.00440  -0.00207   0.99999
 This molecule is an asymmetric top.
 Rotational symmetry number  1.
 Warning -- assumption of classical behavior for rotation
           may cause significant error
 Rotational temperatures (Kelvin)      0.02233     0.01324     0.00910
 Rotational constants (GHZ):           0.46529     0.27581     0.18971
 Zero-point vibrational energy    1053870.8 (Joules/Mol)
                                  251.88116 (Kcal/Mol)
 Warning -- explicit consideration of  31 degrees of freedom as
           vibrations may cause significant error
 Vibrational temperatures:     23.63    53.10    78.39    85.65    97.93
          (Kelvin)            109.63   124.33   158.90   163.32   176.13
                              233.62   275.93   290.32   313.37   344.02
                              350.81   363.26   393.16   404.55   418.21
                              428.28   454.25   495.19   524.51   586.71
                              604.02   642.76   671.87   735.06   766.13
                              883.43  1024.08  1072.95  1123.96  1198.82
                             1211.63  1227.46  1256.76  1262.29  1289.96
                             1329.92  1360.31  1370.40  1391.10  1400.57
                             1442.44  1461.44  1479.97  1507.09  1519.94
                             1531.81  1552.50  1558.39  1571.55  1586.34
                             1612.75  1616.65  1636.22  1648.49  1652.46
                             1697.55  1716.11  1751.73  1803.99  1812.04
                             1835.10  1840.06  1862.96  1879.64  1893.07
                             1911.76  1919.65  1942.60  1972.37  1977.42
                             1988.26  1991.22  2011.11  2017.60  2030.93
                             2032.96  2041.78  2045.02  2049.65  2057.86
                             2125.63  2127.95  2143.00  2146.35  2149.26
                             2153.12  2155.08  2157.19  2158.73  2170.24
                             2173.20  2180.66  2188.29  4278.77  4288.83
                             4293.78  4300.19  4306.90  4320.78  4329.08
                             4340.52  4355.78  4358.10  4361.82  4376.42
                             4386.39  4403.99  4405.68  4415.08  4416.69
                             4451.05  4452.47  4453.31  4459.70  4468.24
                             4470.91  4480.62  4488.59  4595.97  5488.32
                             5495.22

 Zero-point correction=                           0.401398 (Hartree/Particle)
 Thermal correction to Energy=                    0.422017
 Thermal correction to Enthalpy=                  0.422961
 Thermal correction to Gibbs Free Energy=         0.350776
 Sum of electronic and zero-point Energies=           -700.416595
 Sum of electronic and thermal Energies=              -700.395976
 Sum of electronic and thermal Enthalpies=            -700.395032
 Sum of electronic and thermal Free Energies=         -700.467217

                     E (Thermal)             CV                S
                      KCal/Mol        Cal/Mol-Kelvin    Cal/Mol-Kelvin
 Total                  264.820             75.368            151.927
 Electronic               0.000              0.000              0.000
 Translational            0.889              2.981             42.177
 Rotational               0.889              2.981             33.845
 Vibrational            263.042             69.407             75.904
 Vibration     1          0.593              1.986              7.025
 Vibration     2          0.594              1.982              5.419
 Vibration     3          0.596              1.976              4.648
 Vibration     4          0.597              1.974              4.473
 Vibration     5          0.598              1.969              4.209
 Vibration     6          0.599              1.965              3.987
 Vibration     7          0.601              1.959              3.740
 Vibration     8          0.606              1.941              3.261
 Vibration     9          0.607              1.938              3.208
 Vibration    10          0.610              1.930              3.062
 Vibration    11          0.622              1.889              2.522
 Vibration    12          0.634              1.851              2.211
 Vibration    13          0.639              1.837              2.117
 Vibration    14          0.646              1.814              1.977
 Vibration    15          0.657              1.781              1.810
 Vibration    16          0.659              1.773              1.775
 Vibration    17          0.664              1.759              1.713
 Vibration    18          0.676              1.723              1.576
 Vibration    19          0.681              1.708              1.527
 Vibration    20          0.687              1.691              1.470
 Vibration    21          0.691              1.678              1.430
 Vibration    22          0.703              1.644              1.332
 Vibration    23          0.723              1.587              1.193
 Vibration    24          0.738              1.545              1.103
 Vibration    25          0.772              1.453              0.934
 Vibration    26          0.782              1.427              0.893
 Vibration    27          0.806              1.368              0.806
 Vibration    28          0.824              1.323              0.746
 Vibration    29          0.866              1.226              0.631
 Vibration    30          0.887              1.178              0.582
 Vibration    31          0.973              1.002              0.426

                           ! Non-Optimized Parameters !
 Normal termination of Gaussian 16 at Tue May 23 06:28:53 2023.
