 Gaussian 16, Revision A.03,
 Gaussian 16:  ES64L-G16RevA.03 25-Dec-2016

 -----------------------------
 # opt freq b3lyp/6-31g(2df,p)
 -----------------------------

 -------------------
 Title Card Required
 -------------------
 Symbolic Z-matrix:
 Charge =  0 Multiplicity = 1

 SCF Done:  E(RB3LYP) =  -393.148360887     A.U. after   12 cycles
 SCF Done:  E(RB3LYP) =  -393.152916532     A.U. after   10 cycles
 SCF Done:  E(RB3LYP) =  -393.154844139     A.U. after   10 cycles
 SCF Done:  E(RB3LYP) =  -393.155741022     A.U. after   10 cycles
 SCF Done:  E(RB3LYP) =  -393.155869539     A.U. after    9 cycles
 SCF Done:  E(RB3LYP) =  -393.155892635     A.U. after    8 cycles
 SCF Done:  E(RB3LYP) =  -393.155902388     A.U. after    8 cycles
 SCF Done:  E(RB3LYP) =  -393.155903939     A.U. after    6 cycles
 SCF Done:  E(RB3LYP) =  -393.155904558     A.U. after    6 cycles
 SCF Done:  E(RB3LYP) =  -393.155906729     A.U. after    7 cycles
 SCF Done:  E(RB3LYP) =  -393.156014970     A.U. after    9 cycles
 SCF Done:  E(RB3LYP) =  -393.156019017     A.U. after    7 cycles
 SCF Done:  E(RB3LYP) =  -393.156022455     A.U. after    8 cycles
 SCF Done:  E(RB3LYP) =  -393.156024487     A.U. after    7 cycles
 SCF Done:  E(RB3LYP) =  -393.156026194     A.U. after    8 cycles
 SCF Done:  E(RB3LYP) =  -393.156026380     A.U. after    6 cycles
 SCF Done:  E(RB3LYP) =  -393.156026605     A.U. after    6 cycles
 SCF Done:  E(RB3LYP) =  -393.156026623     A.U. after    5 cycles
 SCF Done:  E(RB3LYP) =  -393.156026625     A.U. after    5 cycles
 Optimization completed.
    -- Stationary point found.
 Normal termination of Gaussian 16 at Sun May 28 23:19:04 2023.

 ----------------------------------------------------------------------
 #N Geom=AllCheck Guess=TCheck SCRF=Check GenChk RB3LYP/6-31G(2df,p) Fr
 eq
 ----------------------------------------------------------------------

 Structure from the checkpoint file:  "CCCCqCrC1CCCC1.chk"
 -------------------
 Title Card Required
 -------------------
 Charge =  0 Multiplicity = 1

                         Standard orientation:
 ---------------------------------------------------------------------
 Center     Atomic      Atomic             Coordinates (Angstroms)
 Number     Number       Type             X           Y           Z
 ---------------------------------------------------------------------
      1          6           0       -4.041006   -1.016615    0.000548
      2          6           0       -2.979472    0.029426   -0.353765
      3          6           0       -1.602129   -0.304529    0.234613
      4          6           0       -0.456443    0.636064   -0.189489
      5          6           0       -0.723604    2.085544    0.248313
      6          6           0        0.907053    0.146828    0.338111
      7          6           0        1.299194   -1.294401   -0.050270
      8          6           0        2.810625   -1.342063    0.208916
      9          6           0        3.317518    0.020991   -0.306110
     10          6           0        2.118139    0.998068   -0.144425
     11          1           0       -5.015499   -0.759258   -0.426542
     12          1           0       -4.165847   -1.101264    1.086022
     13          1           0       -3.763053   -2.007442   -0.376121
     14          1           0       -3.314711    1.011714   -0.001727
     15          1           0       -2.895829    0.109429   -1.446227
     16          1           0       -1.348497   -1.330042   -0.059155
     17          1           0       -1.670581   -0.313250    1.332814
     18          1           0       -0.402230    0.618837   -1.290035
     19          1           0       -0.814397    2.150092    1.339913
     20          1           0       -1.647901    2.477351   -0.184751
     21          1           0        0.087079    2.752976   -0.056659
     22          1           0        0.873837    0.191887    1.437355
     23          1           0        1.094699   -1.460302   -1.117711
     24          1           0        0.750707   -2.057486    0.508391
     25          1           0        3.306327   -2.191138   -0.270917
     26          1           0        2.992445   -1.430799    1.287214
     27          1           0        3.597849   -0.059491   -1.361644
     28          1           0        4.209371    0.360429    0.228021
     29          1           0        1.883897    1.475043   -1.102909
     30          1           0        2.343089    1.806837    0.556017
 ---------------------------------------------------------------------

 SCF Done:  E(RB3LYP) =  -393.156026625     A.U. after    1 cycles

 The electronic state is 1-A.
 Alpha  occ. eigenvalues --  -10.17807 -10.17441 -10.17351 -10.17097 -10.17077
 Alpha  occ. eigenvalues --  -10.16930 -10.16921 -10.16914 -10.16842 -10.16496
 Alpha  occ. eigenvalues --   -0.83317  -0.79309  -0.75008  -0.70067  -0.68627
 Alpha  occ. eigenvalues --   -0.66809  -0.60192  -0.56738  -0.55685  -0.54147
 Alpha  occ. eigenvalues --   -0.47279  -0.46142  -0.45946  -0.42934  -0.41276
 Alpha  occ. eigenvalues --   -0.40676  -0.40132  -0.38849  -0.37568  -0.36236
 Alpha  occ. eigenvalues --   -0.34858  -0.33776  -0.33255  -0.32555  -0.32171
 Alpha  occ. eigenvalues --   -0.31762  -0.31204  -0.30192  -0.29720  -0.29128
 Alpha virt. eigenvalues --    0.08282   0.09649   0.09748   0.11531   0.12489
 Alpha virt. eigenvalues --    0.13206   0.14216   0.15753   0.15931   0.16151
 Alpha virt. eigenvalues --    0.17180   0.17344   0.17917   0.18148   0.18829

 Mulliken charges:
               1
     1  C   -0.379209
     2  C   -0.176071
     3  C   -0.165492
     4  C    0.002744
     5  C   -0.400194
     6  C    0.070311
     7  C   -0.218011
     8  C   -0.206544
     9  C   -0.207733
    10  C   -0.221128
    11  H    0.108724
    12  H    0.112353
    13  H    0.112080
    14  H    0.097863
    15  H    0.091504
    16  H    0.092644
    17  H    0.085150
    18  H    0.061386
    19  H    0.107362
    20  H    0.112297
    21  H    0.113889
    22  H    0.060425
    23  H    0.088796
    24  H    0.093696
    25  H    0.088934
    26  H    0.093888
    27  H    0.096473
    28  H    0.092913
    29  H    0.094005
    30  H    0.096944
 Sum of Mulliken charges =  -0.00000

 Dipole moment (field-independent basis, Debye):
    X=              0.0526    Y=             -0.0098    Z=             -0.0061  Tot=              0.0539
 Quadrupole moment (field-independent basis, Debye-Ang):
   XX=            -67.2320   YY=            -67.0299   ZZ=            -65.3069
   XY=             -0.1957   XZ=              0.1933   YZ=              0.2234

  Exact polarizability: 126.988   0.044 103.794  -0.235  -0.071  91.121
 Approx polarizability: 148.709  -0.320 145.551   0.004   0.334 147.153

                      1                      2                      3
                      A                      A                      A
 Frequencies --     31.9982                65.5948                81.9060
 Red. masses --      2.1705                 1.6073                 2.2644
 Frc consts  --      0.0013                 0.0041                 0.0090
 IR Inten    --      0.0037                 0.0119                 0.0010

                      4                      5                      6
                      A                      A                      A
 Frequencies --    104.0378               122.0460               180.8857
 Red. masses --      2.5338                 2.8281                 1.7113
 Frc consts  --      0.0162                 0.0248                 0.0330
 IR Inten    --      0.0148                 0.0101                 0.0186

                      7                      8                      9
                      A                      A                      A
 Frequencies --    226.2222               250.0199               256.5305
 Red. masses --      1.4187                 1.1314                 1.8185
 Frc consts  --      0.0428                 0.0417                 0.0705
 IR Inten    --      0.0055                 0.0048                 0.0173

                     10                     11                     12
                      A                      A                      A
 Frequencies --    302.0470               330.5700               368.9529
 Red. masses --      3.6705                 2.3790                 2.0329
 Frc consts  --      0.1973                 0.1532                 0.1630
 IR Inten    --      0.0772                 0.0718                 0.1409

                     13                     14                     15
                      A                      A                      A
 Frequencies --    425.0856               510.8350               566.6196
 Red. masses --      2.9994                 2.0821                 2.0014
 Frc consts  --      0.3193                 0.3201                 0.3786
 IR Inten    --      0.1699                 0.0202                 0.5589

                     16                     17                     18
                      A                      A                      A
 Frequencies --    624.1206               744.9568               779.1146
 Red. masses --      2.8518                 1.1252                 1.2368
 Frc consts  --      0.6545                 0.3679                 0.4423
 IR Inten    --      0.3150                 2.1271                 0.4340

                     19                     20                     21
                      A                      A                      A
 Frequencies --    821.0809               856.5599               865.7226
 Red. masses --      2.0238                 1.6454                 2.3449
 Frc consts  --      0.8039                 0.7113                 1.0355
 IR Inten    --      0.7173                 0.3657                 0.6361

                     22                     23                     24
                      A                      A                      A
 Frequencies --    874.4064               905.7730               924.3823
 Red. masses --      1.5552                 2.6341                 1.7243
 Frc consts  --      0.7006                 1.2733                 0.8681
 IR Inten    --      0.4376                 1.0240                 1.6829

                     25                     26                     27
                      A                      A                      A
 Frequencies --    935.8618               964.5333               978.7090
 Red. masses --      1.7993                 1.7333                 1.6695
 Frc consts  --      0.9285                 0.9501                 0.9422
 IR Inten    --      1.5252                 1.8970                 2.4365

                     28                     29                     30
                      A                      A                      A
 Frequencies --   1004.5845              1010.5932              1036.5454
 Red. masses --      1.3286                 1.3385                 2.4174
 Frc consts  --      0.7900                 0.8054                 1.5303
 IR Inten    --      0.1168                 0.2029                 0.0605

                     31                     32                     33
                      A                      A                      A
 Frequencies --   1049.4631              1078.6442              1083.6731
 Red. masses --      2.1643                 2.9088                 2.0621
 Frc consts  --      1.4044                 1.9940                 1.4268
 IR Inten    --      0.8179                 0.0530                 0.6030

                     34                     35                     36
                      A                      A                      A
 Frequencies --   1112.2945              1153.9592              1182.4572
 Red. masses --      1.4692                 2.6068                 1.8205
 Frc consts  --      1.0709                 2.0452                 1.4997
 IR Inten    --      0.0507                 0.1947                 6.9011

                     37                     38                     39
                      A                      A                      A
 Frequencies --   1199.1245              1212.7848              1228.2641
 Red. masses --      1.4423                 1.7945                 1.4752
 Frc consts  --      1.2219                 1.5551                 1.3113
 IR Inten    --      0.8274                 1.0717                 0.1732

                     40                     41                     42
                      A                      A                      A
 Frequencies --   1257.4032              1279.5598              1292.1056
 Red. masses --      1.3809                 1.2379                 1.3311
 Frc consts  --      1.2863                 1.1942                 1.3094
 IR Inten    --      3.9941                 1.6266                 0.8853

                     43                     44                     45
                      A                      A                      A
 Frequencies --   1298.4141              1319.0248              1325.3047
 Red. masses --      1.2246                 1.2589                 1.3014
 Frc consts  --      1.2163                 1.2904                 1.3467
 IR Inten    --      0.2461                 1.1935                 0.9037

                     46                     47                     48
                      A                      A                      A
 Frequencies --   1330.7428              1344.9373              1347.4264
 Red. masses --      1.1295                 1.2431                 1.3355
 Frc consts  --      1.1785                 1.3249                 1.4285
 IR Inten    --      0.8082                 0.9596                 1.5158

                     49                     50                     51
                      A                      A                      A
 Frequencies --   1354.2561              1364.3584              1387.1703
 Red. masses --      1.4220                 1.3456                 1.4984
 Frc consts  --      1.5366                 1.4758                 1.6988
 IR Inten    --      0.7658                 0.9754                 1.2144

                     52                     53                     54
                      A                      A                      A
 Frequencies --   1396.4866              1409.8712              1414.0507
 Red. masses --      1.5117                 1.2397                 1.2474
 Frc consts  --      1.7369                 1.4518                 1.4695
 IR Inten    --      2.5396                 2.1634                 4.5654

                     55                     56                     57
                      A                      A                      A
 Frequencies --   1480.6314              1488.8587              1490.7777
 Red. masses --      1.0731                 1.0766                 1.0895
 Frc consts  --      1.3861                 1.4061                 1.4266
 IR Inten    --      0.0056                 0.4667                 1.0441

                     58                     59                     60
                      A                      A                      A
 Frequencies --   1493.8677              1494.9660              1499.4307
 Red. masses --      1.0596                 1.0877                 1.0587
 Frc consts  --      1.3932                 1.4322                 1.4024
 IR Inten    --      0.8072                 2.5470                 1.5699

                     61                     62                     63
                      A                      A                      A
 Frequencies --   1499.6374              1507.1583              1511.6179
 Red. masses --      1.0443                 1.0526                 1.0772
 Frc consts  --      1.3837                 1.4087                 1.4502
 IR Inten    --      4.4270                 3.1784                 4.7365

                     64                     65                     66
                      A                      A                      A
 Frequencies --   1517.2032              2970.0173              2984.9295
 Red. masses --      1.1010                 1.0791                 1.0820
 Frc consts  --      1.4933                 5.6084                 5.6801
 IR Inten    --      0.2664                 2.6641                14.4718

                     67                     68                     69
                      A                      A                      A
 Frequencies --   2999.7447              3010.5508              3017.4056
 Red. masses --      1.0666                 1.0695                 1.0636
 Frc consts  --      5.6550                 5.7113                 5.7053
 IR Inten    --     15.9110                26.7965                39.1898

                     70                     71                     72
                      A                      A                      A
 Frequencies --   3026.9733              3028.5564              3029.1093
 Red. masses --      1.0359                 1.0508                 1.0554
 Frc consts  --      5.5924                 5.6785                 5.7056
 IR Inten    --     37.8088                30.1578                35.3297

                     73                     74                     75
                      A                      A                      A
 Frequencies --   3033.6142              3044.1954              3048.3958
 Red. masses --      1.0642                 1.0918                 1.0643
 Frc consts  --      5.7701                 5.9612                 5.8274
 IR Inten    --     21.7042                 1.4257                45.3312

                     76                     77                     78
                      A                      A                      A
 Frequencies --   3064.3782              3072.9940              3083.6255
 Red. masses --      1.0992                 1.0969                 1.0973
 Frc consts  --      6.0815                 6.1028                 6.1475
 IR Inten    --     29.9615                25.0539                18.8029

                     79                     80                     81
                      A                      A                      A
 Frequencies --   3088.4328              3094.3367              3097.1244
 Red. masses --      1.0959                 1.1018                 1.0959
 Frc consts  --      6.1587                 6.2158                 6.1935
 IR Inten    --     35.1803                64.2363                13.9238

                     82                     83                     84
                      A                      A                      A
 Frequencies --   3098.6692              3099.1182              3113.7452
 Red. masses --      1.1038                 1.0997                 1.1005
 Frc consts  --      6.2442                 6.2228                 6.2867
 IR Inten    --     76.6377                52.0936                39.6367

 - Thermochemistry -
 -------------------
 Temperature   298.150 Kelvin.  Pressure   1.00000 Atm.
 Atom     1 has atomic number  6 and mass  12.00000

 Molecular mass:   140.15650 amu.
 Principal axes and moments of inertia in atomic units:
                           1         2         3
     Eigenvalues --   698.174952944.854913468.91908
           X            0.99999   0.00404  -0.00069
           Y           -0.00404   0.99999   0.00004
           Z            0.00069  -0.00004   1.00000
 This molecule is an asymmetric top.
 Rotational symmetry number  1.
 Warning -- assumption of classical behavior for rotation
           may cause significant error
 Rotational temperatures (Kelvin)      0.12406     0.02941     0.02497
 Rotational constants (GHZ):           2.58494     0.61285     0.52026
 Zero-point vibrational energy     739065.7 (Joules/Mol)
                                  176.64094 (Kcal/Mol)
 Warning -- explicit consideration of  15 degrees of freedom as
           vibrations may cause significant error
 Vibrational temperatures:     46.04    94.38   117.84   149.69   175.60
          (Kelvin)            260.25   325.48   359.72   369.09   434.58
                              475.62   530.84   611.60   734.98   815.24
                              897.97  1071.83  1120.97  1181.35  1232.40
                             1245.58  1258.08  1303.21  1329.98  1346.50
                             1387.75  1408.14  1445.37  1454.02  1491.36
                             1509.94  1551.93  1559.16  1600.34  1660.29
                             1701.29  1725.27  1744.93  1767.20  1809.12
                             1841.00  1859.05  1868.13  1897.78  1906.82
                             1914.64  1935.06  1938.65  1948.47  1963.01
                             1995.83  2009.23  2028.49  2034.50  2130.30
                             2142.14  2144.90  2149.34  2150.92  2157.35
                             2157.64  2168.46  2174.88  2182.92  4273.19
                             4294.65  4315.96  4331.51  4341.37  4355.14
                             4357.42  4358.21  4364.69  4379.92  4385.96
                             4408.96  4421.35  4436.65  4443.57  4452.06
                             4456.07  4458.29  4458.94  4479.98

 Zero-point correction=                           0.281495 (Hartree/Particle)
 Thermal correction to Energy=                    0.293400
 Thermal correction to Enthalpy=                  0.294344
 Thermal correction to Gibbs Free Energy=         0.242972
 Sum of electronic and zero-point Energies=           -392.874531
 Sum of electronic and thermal Energies=              -392.862627
 Sum of electronic and thermal Enthalpies=            -392.861683
 Sum of electronic and thermal Free Energies=         -392.913055

                     E (Thermal)             CV                S
                      KCal/Mol        Cal/Mol-Kelvin    Cal/Mol-Kelvin
 Total                  184.111             44.429            108.122
 Electronic               0.000              0.000              0.000
 Translational            0.889              2.981             40.724
 Rotational               0.889              2.981             30.346
 Vibrational            182.334             38.467             37.052
 Vibration     1          0.594              1.983              5.702
 Vibration     2          0.597              1.971              4.281
 Vibration     3          0.600              1.962              3.845
 Vibration     4          0.605              1.946              3.377
 Vibration     5          0.610              1.931              3.068
 Vibration     6          0.630              1.866              2.319
 Vibration     7          0.650              1.801              1.909
 Vibration     8          0.663              1.763              1.730
 Vibration     9          0.666              1.752              1.685
 Vibration    10          0.694              1.670              1.406
 Vibration    11          0.713              1.614              1.257
 Vibration    12          0.741              1.536              1.084
 Vibration    13          0.787              1.416              0.875
 Vibration    14          0.866              1.226              0.632
 Vibration    15          0.923              1.103              0.511

 Optimization completed.
    -- Stationary point found.
 Normal termination of Gaussian 16 at Mon May 29 00:16:34 2023.
