 Gaussian 16, Revision A.03,
 Gaussian 16:  ES64L-G16RevA.03 25-Dec-2016

 -----------------------------
 # opt freq b3lyp/6-31g(2df,p)
 -----------------------------

 -------------------
 Title Card Required
 -------------------
 Symbolic Z-matrix:
 Charge =  0 Multiplicity = 1

 SCF Done:  E(RB3LYP) =  -550.373893982     A.U. after   12 cycles
 SCF Done:  E(RB3LYP) =  -550.388735557     A.U. after   10 cycles
 SCF Done:  E(RB3LYP) =  -550.396520540     A.U. after   10 cycles
 SCF Done:  E(RB3LYP) =  -550.398194539     A.U. after   10 cycles
 SCF Done:  E(RB3LYP) =  -550.399191653     A.U. after   10 cycles
 SCF Done:  E(RB3LYP) =  -550.400976629     A.U. after    9 cycles
 SCF Done:  E(RB3LYP) =  -550.402841406     A.U. after   10 cycles
 SCF Done:  E(RB3LYP) =  -550.403403645     A.U. after   12 cycles
 SCF Done:  E(RB3LYP) =  -550.405159967     A.U. after   10 cycles
 SCF Done:  E(RB3LYP) =  -550.405746105     A.U. after    9 cycles
 SCF Done:  E(RB3LYP) =  -550.407034945     A.U. after    9 cycles
 SCF Done:  E(RB3LYP) =  -550.407071714     A.U. after    9 cycles
 SCF Done:  E(RB3LYP) =  -550.407093362     A.U. after    9 cycles
 SCF Done:  E(RB3LYP) =  -550.407102824     A.U. after    8 cycles
 SCF Done:  E(RB3LYP) =  -550.407104850     A.U. after    7 cycles
 SCF Done:  E(RB3LYP) =  -550.407105939     A.U. after    7 cycles
 SCF Done:  E(RB3LYP) =  -550.407106509     A.U. after    6 cycles
 SCF Done:  E(RB3LYP) =  -550.407106660     A.U. after    6 cycles
 SCF Done:  E(RB3LYP) =  -550.407106698     A.U. after    5 cycles
 Optimization completed.
    -- Stationary point found.
 Normal termination of Gaussian 16 at Thu May 25 01:09:45 2023.

 ----------------------------------------------------------------------
 #N Geom=AllCheck Guess=TCheck SCRF=Check GenChk RB3LYP/6-31G(2df,p) Fr
 eq
 ----------------------------------------------------------------------

 Structure from the checkpoint file:  "CCCCCC1CCCC1qCCrCC.chk"
 -------------------
 Title Card Required
 -------------------
 Charge =  0 Multiplicity = 1

                         Standard orientation:
 ---------------------------------------------------------------------
 Center     Atomic      Atomic             Coordinates (Angstroms)
 Number     Number       Type             X           Y           Z
 ---------------------------------------------------------------------
      1          6           0        5.498464    0.177604    0.155057
      2          6           0        4.100740   -0.380458    0.436683
      3          6           0        3.018799    0.212972   -0.472017
      4          6           0        1.615117   -0.340954   -0.195523
      5          6           0        0.560383    0.263836   -1.135596
      6          6           0       -0.908701   -0.212529   -1.036037
      7          6           0       -1.085429   -1.746715   -1.022661
      8          6           0       -2.545941   -2.000209   -0.579379
      9          6           0       -3.073330   -0.644116   -0.047032
     10          6           0       -1.866296    0.335003    0.081544
     11          6           0       -1.304261    0.344875    1.528239
     12          6           0       -1.031528   -0.993347    2.229389
     13          6           0       -2.403595    1.760178   -0.237293
     14          6           0       -1.476118    2.970635   -0.066384
     15          1           0        6.248318   -0.264543    0.818713
     16          1           0        5.527177    1.263764    0.297524
     17          1           0        5.805705   -0.026519   -0.876832
     18          1           0        3.835605   -0.192124    1.485647
     19          1           0        4.111822   -1.472432    0.320181
     20          1           0        3.284322    0.024794   -1.522051
     21          1           0        3.009053    1.306170   -0.356646
     22          1           0        1.361157   -0.148783    0.852334
     23          1           0        1.640367   -1.431892   -0.308789
     24          1           0        0.889988    0.058916   -2.164094
     25          1           0        0.595355    1.353816   -1.036930
     26          1           0       -1.377623    0.135393   -1.968742
     27          1           0       -0.392308   -2.212813   -0.318474
     28          1           0       -0.863433   -2.180463   -2.003381
     29          1           0       -2.593081   -2.782402    0.183556
     30          1           0       -3.160253   -2.348757   -1.414788
     31          1           0       -3.612533   -0.742316    0.900680
     32          1           0       -3.790313   -0.225247   -0.761387
     33          1           0       -2.031028    0.893732    2.143313
     34          1           0       -0.390007    0.947530    1.555927
     35          1           0       -1.922207   -1.627762    2.261003
     36          1           0       -0.727487   -0.811918    3.265871
     37          1           0       -0.230781   -1.564385    1.754245
     38          1           0       -3.283500    1.920726    0.400882
     39          1           0       -2.783920    1.754460   -1.267177
     40          1           0       -1.064760    3.039310    0.944852
     41          1           0       -2.036665    3.893415   -0.250529
     42          1           0       -0.638792    2.959682   -0.768854
 ---------------------------------------------------------------------

 SCF Done:  E(RB3LYP) =  -550.407106698     A.U. after    1 cycles

 The electronic state is 1-A.
 Alpha  occ. eigenvalues --  -10.18264 -10.17478 -10.17426 -10.17246 -10.17197
 Alpha  occ. eigenvalues --  -10.17182 -10.17128 -10.17053 -10.16905 -10.16862
 Alpha  occ. eigenvalues --  -10.16777 -10.16763 -10.16648 -10.16638  -0.83955
 Alpha  occ. eigenvalues --   -0.79561  -0.76771  -0.75160  -0.74137  -0.70416
 Alpha  occ. eigenvalues --   -0.68839  -0.65163  -0.61652  -0.60511  -0.58481
 Alpha  occ. eigenvalues --   -0.57209  -0.55036  -0.51058  -0.47178  -0.46329
 Alpha  occ. eigenvalues --   -0.45148  -0.45094  -0.43441  -0.42299  -0.41647
 Alpha  occ. eigenvalues --   -0.41300  -0.40306  -0.39693  -0.38463  -0.37813
 Alpha  occ. eigenvalues --   -0.37347  -0.36467  -0.35846  -0.35433  -0.34416
 Alpha  occ. eigenvalues --   -0.33443  -0.33047  -0.32511  -0.32432  -0.31881
 Alpha  occ. eigenvalues --   -0.31501  -0.30423  -0.29868  -0.29201  -0.28605
 Alpha  occ. eigenvalues --   -0.27984
 Alpha virt. eigenvalues --    0.07291   0.08734   0.09127   0.10282   0.10945
 Alpha virt. eigenvalues --    0.11846   0.12243   0.13508   0.13608   0.14340
 Alpha virt. eigenvalues --    0.15067   0.15413   0.15935   0.16310   0.17054

 Mulliken charges:
               1
     1  C   -0.378426
     2  C   -0.167886
     3  C   -0.154710
     4  C   -0.182926
     5  C   -0.237810
     6  C   -0.002295
     7  C   -0.221936
     8  C   -0.225968
     9  C   -0.233441
    10  C    0.281558
    11  C   -0.212413
    12  C   -0.406146
    13  C   -0.207097
    14  C   -0.406478
    15  H    0.109311
    16  H    0.112285
    17  H    0.112316
    18  H    0.092810
    19  H    0.092812
    20  H    0.089390
    21  H    0.089508
    22  H    0.101310
    23  H    0.092782
    24  H    0.089791
    25  H    0.097080
    26  H    0.063173
    27  H    0.100967
    28  H    0.086676
    29  H    0.095943
    30  H    0.093433
    31  H    0.090412
    32  H    0.088368
    33  H    0.087812
    34  H    0.097951
    35  H    0.115675
    36  H    0.108375
    37  H    0.122748
    38  H    0.090063
    39  H    0.087191
    40  H    0.116006
    41  H    0.108902
    42  H    0.122880
 Sum of Mulliken charges =  -0.00000

 Dipole moment (field-independent basis, Debye):
    X=             -0.0366    Y=              0.0525    Z=             -0.0153  Tot=              0.0658
 Quadrupole moment (field-independent basis, Debye-Ang):
   XX=            -93.9820   YY=            -93.5972   ZZ=            -92.0188
   XY=             -0.6251   XZ=              0.0721   YZ=              0.4040

  Exact polarizability: 167.917   1.158 145.766   1.104   0.026 136.547
 Approx polarizability: 208.840  -0.615 208.001  -0.039   0.708 208.024

                      1                      2                      3
                      A                      A                      A
 Frequencies --     26.9397                39.8785                58.2491
 Red. masses --      1.6193                 3.0908                 1.7864
 Frc consts  --      0.0007                 0.0029                 0.0036
 IR Inten    --      0.0055                 0.0007                 0.0001

                      4                      5                      6
                      A                      A                      A
 Frequencies --     61.9080                82.5750               111.2358
 Red. masses --      2.4165                 2.1621                 1.9957
 Frc consts  --      0.0055                 0.0087                 0.0145
 IR Inten    --      0.0036                 0.0202                 0.0063

                      7                      8                      9
                      A                      A                      A
 Frequencies --    120.9629               130.1249               170.5160
 Red. masses --      2.3156                 2.4294                 1.9661
 Frc consts  --      0.0200                 0.0242                 0.0337
 IR Inten    --      0.0522                 0.0034                 0.0120

                     10                     11                     12
                      A                      A                      A
 Frequencies --    194.4012               217.7887               227.3860
 Red. masses --      3.0597                 1.8476                 1.9760
 Frc consts  --      0.0681                 0.0516                 0.0602
 IR Inten    --      0.0420                 0.0199                 0.0188

                     13                     14                     15
                      A                      A                      A
 Frequencies --    238.1866               247.9838               262.6523
 Red. masses --      1.6548                 1.1229                 1.4705
 Frc consts  --      0.0553                 0.0407                 0.0598
 IR Inten    --      0.0037                 0.0023                 0.0465

                     16                     17                     18
                      A                      A                      A
 Frequencies --    280.8651               301.4493               339.0444
 Red. masses --      2.7450                 1.6801                 3.0054
 Frc consts  --      0.1276                 0.0900                 0.2036
 IR Inten    --      0.3760                 0.0530                 0.1057

                     19                     20                     21
                      A                      A                      A
 Frequencies --    383.4762               394.8366               430.7749
 Red. masses --      2.7094                 2.7129                 2.3528
 Frc consts  --      0.2347                 0.2492                 0.2572
 IR Inten    --      0.3615                 0.4736                 0.2193

                     22                     23                     24
                      A                      A                      A
 Frequencies --    445.9521               569.8768               607.1288
 Red. masses --      2.7315                 2.8133                 2.5148
 Frc consts  --      0.3201                 0.5383                 0.5462
 IR Inten    --      0.2725                 0.4703                 0.4518

                     25                     26                     27
                      A                      A                      A
 Frequencies --    636.2305               687.0958               731.1080
 Red. masses --      3.6155                 2.5810                 1.1113
 Frc consts  --      0.8623                 0.7179                 0.3500
 IR Inten    --      0.1824                 0.1049                 3.3504

                     28                     29                     30
                      A                      A                      A
 Frequencies --    749.3365               760.6846               780.0878
 Red. masses --      1.2125                 1.3250                 1.1783
 Frc consts  --      0.4011                 0.4517                 0.4225
 IR Inten    --      0.9041                 1.1661                 0.0269

                     31                     32                     33
                      A                      A                      A
 Frequencies --    788.6559               836.3072               845.8324
 Red. masses --      1.2823                 1.3089                 1.5993
 Frc consts  --      0.4699                 0.5394                 0.6741
 IR Inten    --      3.7577                 1.4448                 2.0099

                     34                     35                     36
                      A                      A                      A
 Frequencies --    891.5779               907.8999               919.0159
 Red. masses --      2.4200                 2.1008                 2.3354
 Frc consts  --      1.1334                 1.0202                 1.1622
 IR Inten    --      1.3094                 2.1180                 1.6118

                     37                     38                     39
                      A                      A                      A
 Frequencies --    938.5914               949.9794               973.9497
 Red. masses --      1.8135                 1.6627                 1.6613
 Frc consts  --      0.9413                 0.8841                 0.9285
 IR Inten    --      4.0571                 0.6616                 0.9329

                     40                     41                     42
                      A                      A                      A
 Frequencies --    985.1656              1022.4162              1025.4021
 Red. masses --      1.7542                 2.0808                 2.6590
 Frc consts  --      1.0031                 1.2816                 1.6472
 IR Inten    --      1.0288                 0.2292                 0.1905

                     43                     44                     45
                      A                      A                      A
 Frequencies --   1034.9608              1049.9645              1054.4860
 Red. masses --      2.1527                 1.7498                 2.7015
 Frc consts  --      1.3586                 1.1365                 1.7698
 IR Inten    --      0.5253                 1.0268                 0.6463

                     46                     47                     48
                      A                      A                      A
 Frequencies --   1067.1624              1069.0593              1092.1922
 Red. masses --      2.2877                 2.3202                 1.7184
 Frc consts  --      1.5350                 1.5624                 1.2077
 IR Inten    --      0.3196                 0.1253                 3.5780

                     49                     50                     51
                      A                      A                      A
 Frequencies --   1097.3507              1118.7479              1126.7523
 Red. masses --      1.4851                 2.3234                 2.0150
 Frc consts  --      1.0537                 1.7133                 1.5072
 IR Inten    --      0.8383                 1.5047                 0.3587

                     52                     53                     54
                      A                      A                      A
 Frequencies --   1150.7486              1187.2522              1189.2415
 Red. masses --      1.8885                 2.1858                 2.1126
 Frc consts  --      1.4734                 1.8153                 1.7604
 IR Inten    --      1.9784                 0.1352                 0.4034

                     55                     56                     57
                      A                      A                      A
 Frequencies --   1225.1184              1229.9387              1239.2282
 Red. masses --      1.7048                 1.4702                 1.4494
 Frc consts  --      1.5076                 1.3104                 1.3114
 IR Inten    --      0.3488                 0.4438                 0.1055

                     58                     59                     60
                      A                      A                      A
 Frequencies --   1267.2159              1277.3598              1290.0263
 Red. masses --      1.3511                 1.1988                 1.2842
 Frc consts  --      1.2783                 1.1524                 1.2592
 IR Inten    --      2.3245                 0.2005                 0.4702

                     61                     62                     63
                      A                      A                      A
 Frequencies --   1307.1416              1313.1900              1325.3825
 Red. masses --      1.1836                 1.1947                 1.3058
 Frc consts  --      1.1916                 1.2139                 1.3515
 IR Inten    --      0.0210                 0.5379                 1.8929

                     64                     65                     66
                      A                      A                      A
 Frequencies --   1331.2704              1333.6601              1338.8396
 Red. masses --      1.0794                 1.2798                 1.3916
 Frc consts  --      1.1271                 1.3411                 1.4697
 IR Inten    --      0.4926                 0.0087                 1.9817

                     67                     68                     69
                      A                      A                      A
 Frequencies --   1343.6332              1357.6499              1366.1560
 Red. masses --      1.2124                 1.2890                 1.2954
 Frc consts  --      1.2896                 1.3999                 1.4245
 IR Inten    --      1.6621                 4.7719                 0.0950

                     70                     71                     72
                      A                      A                      A
 Frequencies --   1369.6442              1378.3735              1393.5703
 Red. masses --      1.3515                 1.4369                 1.4281
 Frc consts  --      1.4938                 1.6085                 1.6341
 IR Inten    --      1.0063                 2.7304                 2.0105

                     73                     74                     75
                      A                      A                      A
 Frequencies --   1396.7923              1410.3343              1412.1593
 Red. masses --      1.5862                 1.2508                 1.2443
 Frc consts  --      1.8234                 1.4658                 1.4619
 IR Inten    --      0.0345                 2.0373                 0.6618

                     76                     77                     78
                      A                      A                      A
 Frequencies --   1413.5683              1415.8799              1474.5541
 Red. masses --      1.2630                 1.3303                 1.0744
 Frc consts  --      1.4869                 1.5713                 1.3764
 IR Inten    --      8.0127                 4.9200                 3.3289

                     79                     80                     81
                      A                      A                      A
 Frequencies --   1481.3652              1482.0814              1485.6971
 Red. masses --      1.0706                 1.0743                 1.0703
 Frc consts  --      1.3842                 1.3903                 1.3919
 IR Inten    --      1.3191                 1.0964                 0.7821

                     82                     83                     84
                      A                      A                      A
 Frequencies --   1488.1633              1489.4494              1493.8832
 Red. masses --      1.0685                 1.0683                 1.0727
 Frc consts  --      1.3943                 1.3963                 1.4104
 IR Inten    --      0.3431                 0.3141                 1.4554

                     85                     86                     87
                      A                      A                      A
 Frequencies --   1499.8561              1500.3634              1504.9563
 Red. masses --      1.0410                 1.0638                 1.0507
 Frc consts  --      1.3797                 1.4109                 1.4021
 IR Inten    --      4.1219                 3.3208                 3.2214

                     88                     89                     90
                      A                      A                      A
 Frequencies --   1507.9472              1509.7291              1513.1876
 Red. masses --      1.0721                 1.0608                 1.0598
 Frc consts  --      1.4363                 1.4245                 1.4297
 IR Inten    --      1.2414                 5.0805                 8.6756

                     91                     92                     93
                      A                      A                      A
 Frequencies --   1515.8497              1522.4859              2974.7339
 Red. masses --      1.0927                 1.0856                 1.0815
 Frc consts  --      1.4794                 1.4826                 5.6387
 IR Inten    --      3.7615                 0.3790                17.1758

                     94                     95                     96
                      A                      A                      A
 Frequencies --   2998.7997              3002.2008              3007.2777
 Red. masses --      1.0584                 1.0623                 1.0679
 Frc consts  --      5.6077                 5.6411                 5.6899
 IR Inten    --      3.8897                19.7394                38.7990

                     97                     98                     99
                      A                      A                      A
 Frequencies --   3009.8420              3012.6435              3022.8366
 Red. masses --      1.0700                 1.0595                 1.0939
 Frc consts  --      5.7112                 5.6656                 5.8890
 IR Inten    --     21.2488                31.2981                 8.2390

                    100                    101                    102
                      A                      A                      A
 Frequencies --   3027.5695              3029.7282              3034.7984
 Red. masses --      1.0363                 1.0698                 1.0631
 Frc consts  --      5.5965                 5.7860                 5.7688
 IR Inten    --     33.0534                38.2300                34.5254

                    103                    104                    105
                      A                      A                      A
 Frequencies --   3037.4217              3040.7432              3042.0707
 Red. masses --      1.0960                 1.0412                 1.0393
 Frc consts  --      5.9575                 5.6721                 5.6668
 IR Inten    --     27.9320                17.9161                13.4719

                    106                    107                    108
                      A                      A                      A
 Frequencies --   3045.1287              3048.1975              3056.7687
 Red. masses --      1.0628                 1.1004                 1.0707
 Frc consts  --      5.8067                 6.0242                 5.8945
 IR Inten    --     37.8017                25.2384                59.7264

                    109                    110                    111
                      A                      A                      A
 Frequencies --   3058.6386              3065.1767              3066.5498
 Red. masses --      1.0868                 1.0898                 1.0959
 Frc consts  --      5.9906                 6.0327                 6.0717
 IR Inten    --     23.5854                26.7378                 5.6142

                    112                    113                    114
                      A                      A                      A
 Frequencies --   3081.7853              3085.8556              3093.9512
 Red. masses --      1.1012                 1.1009                 1.1020
 Frc consts  --      6.1618                 6.1765                 6.2150
 IR Inten    --     13.6696                53.4396                78.3148

                    115                    116                    117
                      A                      A                      A
 Frequencies --   3097.9542              3099.0333              3100.5778
 Red. masses --      1.1002                 1.1009                 1.0977
 Frc consts  --      6.2214                 6.2297                 6.2174
 IR Inten    --     43.9410                42.4141                59.9236

                    118                    119                    120
                      A                      A                      A
 Frequencies --   3104.3488              3120.3415              3125.7737
 Red. masses --      1.0999                 1.1002                 1.0992
 Frc consts  --      6.2454                 6.3112                 6.3276
 IR Inten    --     29.3175                34.0152                35.5411

 - Thermochemistry -
 -------------------
 Temperature   298.150 Kelvin.  Pressure   1.00000 Atm.
 Atom     1 has atomic number  6 and mass  12.00000

 Molecular mass:   196.21910 amu.
 Principal axes and moments of inertia in atomic units:
                           1         2         3
     Eigenvalues --  1881.003805461.871045964.78715
           X            1.00000  -0.00087  -0.00077
           Y            0.00086   0.99982  -0.01884
           Z            0.00079   0.01884   0.99982
 This molecule is an asymmetric top.
 Rotational symmetry number  1.
 Warning -- assumption of classical behavior for rotation
           may cause significant error
 Rotational temperatures (Kelvin)      0.04605     0.01586     0.01452
 Rotational constants (GHZ):           0.95946     0.33043     0.30257
 Zero-point vibrational energy    1036611.4 (Joules/Mol)
                                  247.75608 (Kcal/Mol)
 Warning -- explicit consideration of  24 degrees of freedom as
           vibrations may cause significant error
 Vibrational temperatures:     38.76    57.38    83.81    89.07   118.81
          (Kelvin)            160.04   174.04   187.22   245.33   279.70
                              313.35   327.16   342.70   356.79   377.90
                              404.10   433.72   487.81   551.74   568.08
                              619.79   641.63   819.93   873.52   915.39
                              988.58  1051.90  1078.13  1094.46  1122.37
                             1134.70  1203.26  1216.96  1282.78  1306.27
                             1322.26  1350.42  1366.81  1401.30  1417.43
                             1471.03  1475.32  1489.08  1510.66  1517.17
                             1535.41  1538.14  1571.42  1578.84  1609.63
                             1621.15  1655.67  1708.19  1711.05  1762.67
                             1769.61  1782.97  1823.24  1837.84  1856.06
                             1880.69  1889.39  1906.93  1915.40  1918.84
                             1926.29  1933.19  1953.36  1965.59  1970.61
                             1983.17  2005.04  2009.67  2029.16  2031.78
                             2033.81  2037.14  2121.55  2131.35  2132.38
                             2137.59  2141.14  2142.99  2149.36  2157.96
                             2158.69  2165.30  2169.60  2172.16  2177.14
                             2180.97  2190.52  4279.98  4314.60  4319.50
                             4326.80  4330.49  4334.52  4349.19  4356.00
                             4359.10  4366.40  4370.17  4374.95  4376.86
                             4381.26  4385.68  4398.01  4400.70  4410.11
                             4412.08  4434.00  4439.86  4451.51  4457.27
                             4458.82  4461.04  4466.47  4489.48  4497.29

 Zero-point correction=                           0.394824 (Hartree/Particle)
 Thermal correction to Energy=                    0.412177
 Thermal correction to Enthalpy=                  0.413121
 Thermal correction to Gibbs Free Energy=         0.349085
 Sum of electronic and zero-point Energies=           -550.012282
 Sum of electronic and thermal Energies=              -549.994930
 Sum of electronic and thermal Enthalpies=            -549.993986
 Sum of electronic and thermal Free Energies=         -550.058022

                     E (Thermal)             CV                S
                      KCal/Mol        Cal/Mol-Kelvin    Cal/Mol-Kelvin
 Total                  258.645             65.104            134.776
 Electronic               0.000              0.000              0.000
 Translational            0.889              2.981             41.727
 Rotational               0.889              2.981             32.483
 Vibrational            256.867             59.142             60.566
 Vibration     1          0.593              1.984              6.043
 Vibration     2          0.594              1.981              5.265
 Vibration     3          0.596              1.974              4.516
 Vibration     4          0.597              1.972              4.395
 Vibration     5          0.600              1.961              3.829
 Vibration     6          0.607              1.940              3.247
 Vibration     7          0.609              1.932              3.085
 Vibration     8          0.612              1.923              2.944
 Vibration     9          0.626              1.879              2.430
 Vibration    10          0.635              1.848              2.185
 Vibration    11          0.646              1.814              1.977
 Vibration    12          0.651              1.799              1.899
 Vibration    13          0.656              1.782              1.816
 Vibration    14          0.662              1.766              1.745
 Vibration    15          0.670              1.741              1.644
 Vibration    16          0.681              1.709              1.528
 Vibration    17          0.693              1.671              1.409
 Vibration    18          0.719              1.597              1.217
 Vibration    19          0.753              1.505              1.025
 Vibration    20          0.762              1.481              0.982
 Vibration    21          0.792              1.403              0.856
 Vibration    22          0.805              1.370              0.808
 Vibration    23          0.926              1.096              0.504
 Vibration    24          0.966              1.017              0.438

                           ! Non-Optimized Parameters !
 Normal termination of Gaussian 16 at Thu May 25 04:28:47 2023.
