 Gaussian 16, Revision A.03,
 Gaussian 16:  ES64L-G16RevA.03 25-Dec-2016

 -----------------------------
 # opt freq b3lyp/6-31g(2df,p)
 -----------------------------

 -------------------
 Title Card Required
 -------------------
 Symbolic Z-matrix:
 Charge =  0 Multiplicity = 1

 SCF Done:  E(RB3LYP) =  -696.952605435     A.U. after   12 cycles
 SCF Done:  E(RB3LYP) =  -696.971470480     A.U. after   10 cycles
 SCF Done:  E(RB3LYP) =  -696.976036068     A.U. after   10 cycles
 SCF Done:  E(RB3LYP) =  -696.978562442     A.U. after   10 cycles
 SCF Done:  E(RB3LYP) =  -696.981321792     A.U. after   11 cycles
 SCF Done:  E(RB3LYP) =  -696.982627694     A.U. after   10 cycles
 SCF Done:  E(RB3LYP) =  -696.984930567     A.U. after   10 cycles
 SCF Done:  E(RB3LYP) =  -696.985839087     A.U. after   11 cycles
 SCF Done:  E(RB3LYP) =  -696.985831564     A.U. after   11 cycles
 SCF Done:  E(RB3LYP) =  -696.986820667     A.U. after   10 cycles
 SCF Done:  E(RB3LYP) =  -696.987023705     A.U. after    8 cycles
 SCF Done:  E(RB3LYP) =  -696.987166368     A.U. after    9 cycles
 SCF Done:  E(RB3LYP) =  -696.987220710     A.U. after    9 cycles
 SCF Done:  E(RB3LYP) =  -696.987224256     A.U. after    7 cycles
 SCF Done:  E(RB3LYP) =  -696.987224569     A.U. after    9 cycles
 SCF Done:  E(RB3LYP) =  -696.987230750     A.U. after    8 cycles
 SCF Done:  E(RB3LYP) =  -696.987230935     A.U. after    6 cycles
 SCF Done:  E(RB3LYP) =  -696.987230909     A.U. after    6 cycles
 SCF Done:  E(RB3LYP) =  -696.987230938     A.U. after    5 cycles
 Optimization completed.
    -- Stationary point found.
 Normal termination of Gaussian 16 at Mon May 22 10:08:09 2023.

 ----------------------------------------------------------------------
 #N Geom=AllCheck Guess=TCheck SCRF=Check GenChk RB3LYP/6-31G(2df,p) Fr
 eq
 ----------------------------------------------------------------------

 Structure from the checkpoint file:  "CCCCC1CCNCNCCqOCrCC1.chk"
 -------------------
 Title Card Required
 -------------------
 Charge =  0 Multiplicity = 1

                         Standard orientation:
 ---------------------------------------------------------------------
 Center     Atomic      Atomic             Coordinates (Angstroms)
 Number     Number       Type             X           Y           Z
 ---------------------------------------------------------------------
      1          6           0        5.850735   -0.470182   -0.396918
      2          6           0        4.422153   -0.889721   -0.754080
      3          6           0        3.379771   -0.418085    0.266263
      4          6           0        1.948370   -0.835818   -0.093533
      5          6           0        0.884705   -0.464827    0.958155
      6          6           0        0.774093    1.052433    1.256557
      7          6           0        0.576643    2.048522    0.083461
      8          7           0       -0.516426    3.004105    0.331619
      9          6           0       -1.738142    2.703546   -0.399710
     10          7           0       -2.246283    1.416289    0.013465
     11          6           0       -2.948391    0.581614   -0.940297
     12          6           0       -2.606112   -0.908129   -0.795138
     13          8           0       -3.324689   -1.389782    0.333946
     14          6           0       -3.435249   -2.792102    0.397552
     15          6           0       -1.074411   -1.159445   -0.720148
     16          6           0       -0.476675   -1.168234    0.710053
     17          1           0        6.571022   -0.821908   -1.142476
     18          1           0        6.151735   -0.877952    0.574680
     19          1           0        5.939951    0.620427   -0.336910
     20          1           0        4.372581   -1.983262   -0.842663
     21          1           0        4.161832   -0.495522   -1.745646
     22          1           0        3.440636    0.674372    0.357551
     23          1           0        3.637876   -0.817657    1.257460
     24          1           0        1.927034   -1.925548   -0.236531
     25          1           0        1.687957   -0.405826   -1.069365
     26          1           0        1.237820   -0.895483    1.907324
     27          1           0        1.670115    1.351592    1.813724
     28          1           0       -0.060942    1.201042    1.945763
     29          1           0        0.404818    1.512119   -0.859624
     30          1           0        1.499095    2.621679   -0.061928
     31          1           0       -0.225276    3.950019    0.115262
     32          1           0       -1.574607    2.634630   -1.492268
     33          1           0       -2.433866    3.545190   -0.232765
     34          1           0       -2.686539    1.441751    0.922122
     35          1           0       -2.641472    0.888854   -1.946384
     36          1           0       -4.044409    0.684517   -0.896310
     37          1           0       -2.999538   -1.413829   -1.694618
     38          1           0       -4.073855   -3.029132    1.252700
     39          1           0       -2.463558   -3.286318    0.540352
     40          1           0       -3.898980   -3.201343   -0.514333
     41          1           0       -0.599735   -0.394576   -1.340648
     42          1           0       -0.848575   -2.112585   -1.210563
     43          1           0       -0.352652   -2.216812    1.010186
     44          1           0       -1.206939   -0.750367    1.405448
 ---------------------------------------------------------------------

 SCF Done:  E(RB3LYP) =  -696.987230938     A.U. after    1 cycles

 The electronic state is 1-A.
 Alpha  occ. eigenvalues --  -19.13199 -14.30395 -14.30137 -10.22425 -10.22091
 Alpha  occ. eigenvalues --  -10.21807 -10.19934 -10.19180 -10.17246 -10.17127
 Alpha  occ. eigenvalues --  -10.16878 -10.16757 -10.16729 -10.16610 -10.16088
 Alpha  occ. eigenvalues --  -10.15724  -1.02418  -0.91859  -0.86082  -0.80595
 Alpha  occ. eigenvalues --   -0.77716  -0.75346  -0.72207  -0.70812  -0.67276
 Alpha  occ. eigenvalues --   -0.65323  -0.63413  -0.61701  -0.58870  -0.57120
 Alpha  occ. eigenvalues --   -0.55764  -0.52534  -0.49782  -0.48770  -0.48529
 Alpha  occ. eigenvalues --   -0.46570  -0.46177  -0.44859  -0.44040  -0.42719
 Alpha  occ. eigenvalues --   -0.42450  -0.41630  -0.40993  -0.40268  -0.39164
 Alpha  occ. eigenvalues --   -0.38976  -0.38688  -0.36884  -0.36707  -0.35283
 Alpha  occ. eigenvalues --   -0.34607  -0.34278  -0.34029  -0.33506  -0.32782
 Alpha  occ. eigenvalues --   -0.32216  -0.31495  -0.30348  -0.29449  -0.28702
 Alpha  occ. eigenvalues --   -0.28287  -0.24739  -0.21534  -0.20900
 Alpha virt. eigenvalues --    0.07246   0.08405   0.08913   0.09712   0.10470
 Alpha virt. eigenvalues --    0.11251   0.11935   0.12178   0.13166   0.13705
 Alpha virt. eigenvalues --    0.14534   0.15275   0.15935   0.16144   0.16739

 Mulliken charges:
               1
     1  C   -0.379327
     2  C   -0.162358
     3  C   -0.171906
     4  C   -0.175223
     5  C   -0.013686
     6  C   -0.165962
     7  C   -0.157780
     8  N   -0.280876
     9  C   -0.123434
    10  N   -0.249151
    11  C   -0.178797
    12  C    0.122986
    13  O   -0.243776
    14  C   -0.236257
    15  C   -0.221835
    16  C   -0.186296
    17  H    0.108386
    18  H    0.112286
    19  H    0.111281
    20  H    0.091845
    21  H    0.091226
    22  H    0.093999
    23  H    0.088807
    24  H    0.081922
    25  H    0.090758
    26  H    0.065168
    27  H    0.082006
    28  H    0.097642
    29  H    0.087683
    30  H    0.085302
    31  H    0.210668
    32  H    0.074321
    33  H    0.077401
    34  H    0.227954
    35  H    0.098549
    36  H    0.088874
    37  H    0.053744
    38  H    0.123065
    39  H    0.108205
    40  H    0.100862
    41  H    0.100101
    42  H    0.087122
    43  H    0.078030
    44  H    0.106471
 Sum of Mulliken charges =  -0.00000

 Dipole moment (field-independent basis, Debye):
    X=             -0.1891    Y=              0.0769    Z=             -1.2229  Tot=              1.2398
 Quadrupole moment (field-independent basis, Debye-Ang):
   XX=           -103.4474   YY=            -95.5945   ZZ=           -102.5245
   XY=              1.3684   XZ=              1.4381   YZ=             -2.4863

  Exact polarizability: 184.498   4.466 163.582   3.710  -1.182 133.547
 Approx polarizability: 220.892   3.983 225.943   1.682   0.137 215.358

                      1                      2                      3
                      A                      A                      A
 Frequencies --     31.3825                48.5812                55.0238
 Red. masses --      3.5577                 3.0433                 2.4854
 Frc consts  --      0.0021                 0.0042                 0.0044
 IR Inten    --      0.1849                 0.3255                 0.2934

                      4                      5                      6
                      A                      A                      A
 Frequencies --     66.9528                96.7370               104.5975
 Red. masses --      1.9105                 2.5313                 3.0769
 Frc consts  --      0.0050                 0.0140                 0.0198
 IR Inten    --      0.2194                 1.2154                 0.5563

                      7                      8                      9
                      A                      A                      A
 Frequencies --    120.0014               125.7918               139.2639
 Red. masses --      2.5896                 2.3400                 2.5892
 Frc consts  --      0.0220                 0.0218                 0.0296
 IR Inten    --      0.4808                 1.3529                 0.2856

                     10                     11                     12
                      A                      A                      A
 Frequencies --    164.9294               185.2904               210.6317
 Red. masses --      1.7015                 2.5017                 1.8765
 Frc consts  --      0.0273                 0.0506                 0.0490
 IR Inten    --      1.0328                 0.4643                 1.0846

                     13                     14                     15
                      A                      A                      A
 Frequencies --    229.0889               247.3383               255.6777
 Red. masses --      2.3395                 1.2680                 2.1776
 Frc consts  --      0.0723                 0.0457                 0.0839
 IR Inten    --      3.4535                 0.7231                 2.6722

                     16                     17                     18
                      A                      A                      A
 Frequencies --    261.8595               291.8168               316.0055
 Red. masses --      2.7470                 2.5718                 2.1927
 Frc consts  --      0.1110                 0.1290                 0.1290
 IR Inten    --      1.1308                 1.7259                 0.5744

                     19                     20                     21
                      A                      A                      A
 Frequencies --    323.2912               347.3955               364.2363
 Red. masses --      3.3631                 2.6928                 1.9604
 Frc consts  --      0.2071                 0.1915                 0.1532
 IR Inten    --      2.2349                 0.8710                 4.6007

                     22                     23                     24
                      A                      A                      A
 Frequencies --    397.0023               427.8580               460.0503
 Red. masses --      2.3550                 3.0290                 2.4230
 Frc consts  --      0.2187                 0.3267                 0.3021
 IR Inten    --      1.7957                 2.2019                 1.2690

                     25                     26                     27
                      A                      A                      A
 Frequencies --    508.0037               529.1143               606.9115
 Red. masses --      2.5825                 2.8320                 2.5588
 Frc consts  --      0.3927                 0.4671                 0.5553
 IR Inten    --     34.3045                 5.6249                 6.2128

                     28                     29                     30
                      A                      A                      A
 Frequencies --    633.0136               678.7115               729.7342
 Red. masses --      1.2688                 1.8278                 2.0448
 Frc consts  --      0.2995                 0.4961                 0.6415
 IR Inten    --    101.4019                11.4779                 1.1819

                     31                     32                     33
                      A                      A                      A
 Frequencies --    736.4254               753.7679               766.8182
 Red. masses --      1.3531                 1.6642                 2.0521
 Frc consts  --      0.4324                 0.5571                 0.7109
 IR Inten    --      6.2872                13.5645                32.8384

                     34                     35                     36
                      A                      A                      A
 Frequencies --    802.6893               852.1373               856.1761
 Red. masses --      1.2968                 2.5597                 2.0942
 Frc consts  --      0.4923                 1.0951                 0.9045
 IR Inten    --      0.5118                 2.3004                12.0911

                     37                     38                     39
                      A                      A                      A
 Frequencies --    891.4415               905.1642               923.6435
 Red. masses --      2.2337                 1.8425                 1.4591
 Frc consts  --      1.0458                 0.8895                 0.7334
 IR Inten    --      1.0916                 3.0126                 4.1616

                     40                     41                     42
                      A                      A                      A
 Frequencies --    936.7320               963.0115               970.9276
 Red. masses --      2.7566                 2.1544                 2.2012
 Frc consts  --      1.4251                 1.1772                 1.2226
 IR Inten    --      1.0298                 4.8849                 0.8250

                     43                     44                     45
                      A                      A                      A
 Frequencies --    983.7293              1012.8512              1028.0125
 Red. masses --      2.2297                 2.0451                 2.9231
 Frc consts  --      1.2713                 1.2361                 1.8201
 IR Inten    --      3.5688                 1.8414                 0.1382

                     46                     47                     48
                      A                      A                      A
 Frequencies --   1041.2806              1061.4661              1066.9758
 Red. masses --      2.2003                 1.7090                 2.4328
 Frc consts  --      1.4056                 1.1345                 1.6318
 IR Inten    --     11.0706                 2.4754                 0.1472

                     49                     50                     51
                      A                      A                      A
 Frequencies --   1078.9250              1097.4459              1123.7319
 Red. masses --      2.4390                 2.1972                 2.1537
 Frc consts  --      1.6728                 1.5592                 1.6024
 IR Inten    --      5.4705                 1.7176                23.6888

                     52                     53                     54
                      A                      A                      A
 Frequencies --   1131.5854              1141.1753              1144.4754
 Red. masses --      2.5932                 3.7207                 2.1192
 Frc consts  --      1.9564                 2.8548                 1.6355
 IR Inten    --     45.9471               117.9727                47.2389

                     55                     56                     57
                      A                      A                      A
 Frequencies --   1151.4374              1157.7694              1183.9238
 Red. masses --      2.5282                 1.9879                 1.3101
 Frc consts  --      1.9749                 1.5699                 1.0819
 IR Inten    --     28.1693                10.0912                 5.3589

                     58                     59                     60
                      A                      A                      A
 Frequencies --   1190.4525              1224.2450              1227.8857
 Red. masses --      2.5282                 1.4245                 1.2595
 Frc consts  --      2.1110                 1.2579                 1.1189
 IR Inten    --     34.0838                17.9558                 9.9203

                     61                     62                     63
                      A                      A                      A
 Frequencies --   1235.1465              1250.0163              1261.2425
 Red. masses --      1.4516                 1.2531                 1.1912
 Frc consts  --      1.3048                 1.1536                 1.1164
 IR Inten    --      1.8748                 8.5097                 3.7861

                     64                     65                     66
                      A                      A                      A
 Frequencies --   1273.1758              1289.5127              1292.6178
 Red. masses --      1.2083                 1.2259                 1.2608
 Frc consts  --      1.1540                 1.2010                 1.2412
 IR Inten    --      7.1236                 0.4943                 5.7212

                     67                     68                     69
                      A                      A                      A
 Frequencies --   1316.7421              1327.3256              1330.8320
 Red. masses --      1.1761                 1.2771                 1.3298
 Frc consts  --      1.2014                 1.3257                 1.3877
 IR Inten    --      0.3709                 0.8315                 9.0948

                     70                     71                     72
                      A                      A                      A
 Frequencies --   1331.9788              1345.5372              1360.2299
 Red. masses --      1.0819                 1.2312                 1.3061
 Frc consts  --      1.1309                 1.3134                 1.4239
 IR Inten    --      0.8482                 9.0044                22.7801

                     73                     74                     75
                      A                      A                      A
 Frequencies --   1366.6360              1375.8613              1382.2715
 Red. masses --      1.2232                 1.3401                 1.3644
 Frc consts  --      1.3461                 1.4946                 1.5359
 IR Inten    --     16.5720                 3.4339                 6.0302

                     76                     77                     78
                      A                      A                      A
 Frequencies --   1390.6349              1394.8207              1399.9485
 Red. masses --      1.3354                 1.3814                 1.4567
 Frc consts  --      1.5216                 1.5834                 1.6820
 IR Inten    --     26.1404                 7.6295                 3.8091

                     79                     80                     81
                      A                      A                      A
 Frequencies --   1401.2980              1411.3387              1414.1345
 Red. masses --      1.3337                 1.2754                 1.3167
 Frc consts  --      1.5430                 1.4967                 1.5514
 IR Inten    --      5.4160                 2.9194                 0.8249

                     82                     83                     84
                      A                      A                      A
 Frequencies --   1433.6900              1468.6716              1473.4253
 Red. masses --      1.3329                 1.1629                 1.1140
 Frc consts  --      1.6142                 1.4780                 1.4249
 IR Inten    --      4.7940                 4.9128                 3.2340

                     85                     86                     87
                      A                      A                      A
 Frequencies --   1478.9222              1481.1668              1484.7528
 Red. masses --      1.1339                 1.0952                 1.0713
 Frc consts  --      1.4612                 1.4156                 1.3915
 IR Inten    --      1.3730                 4.6560                 0.9865

                     88                     89                     90
                      A                      A                      A
 Frequencies --   1486.1633              1487.3024              1488.7127
 Red. masses --      1.0828                 1.0815                 1.1453
 Frc consts  --      1.4091                 1.4096                 1.4955
 IR Inten    --      6.8464                 7.2676                 8.6081

                     91                     92                     93
                      A                      A                      A
 Frequencies --   1496.1613              1497.9209              1499.6552
 Red. masses --      1.1164                 1.1491                 1.0405
 Frc consts  --      1.4724                 1.5190                 1.3787
 IR Inten    --      8.7185                12.0564                 4.5964

                     94                     95                     96
                      A                      A                      A
 Frequencies --   1500.6269              1502.7113              1509.6917
 Red. masses --      1.0765                 1.1106                 1.0600
 Frc consts  --      1.4282                 1.4776                 1.4235
 IR Inten    --      1.0909                19.1007                 2.0313

                     97                     98                     99
                      A                      A                      A
 Frequencies --   1512.6551              1520.8770              2908.6654
 Red. masses --      1.0886                 1.1510                 1.0606
 Frc consts  --      1.4675                 1.5686                 5.2868
 IR Inten    --      2.4967                 9.9606                83.7658

                    100                    101                    102
                      A                      A                      A
 Frequencies --   2938.5391              2943.4844              2973.9473
 Red. masses --      1.0811                 1.0975                 1.0447
 Frc consts  --      5.5004                 5.6024                 5.4439
 IR Inten    --     40.9202               112.9022                46.4123

                    103                    104                    105
                      A                      A                      A
 Frequencies --   2974.8687              2975.0721              3000.5628
 Red. masses --      1.0669                 1.0810                 1.0599
 Frc consts  --      5.5629                 5.6371                 5.6223
 IR Inten    --    143.5754                 5.5471                 5.1195

                    106                    107                    108
                      A                      A                      A
 Frequencies --   3002.8722              3005.1829              3013.1107
 Red. masses --      1.0611                 1.0641                 1.0718
 Frc consts  --      5.6375                 5.6621                 5.7333
 IR Inten    --      5.0132                29.2071                31.2229

                    109                    110                    111
                      A                      A                      A
 Frequencies --   3014.3343              3024.2139              3026.7029
 Red. masses --      1.0664                 1.0822                 1.0955
 Frc consts  --      5.7091                 5.8315                 5.9131
 IR Inten    --     52.7253                13.5222                56.2898

                    112                    113                    114
                      A                      A                      A
 Frequencies --   3026.9582              3029.9880              3039.3809
 Red. masses --      1.0393                 1.0828                 1.0987
 Frc consts  --      5.6105                 5.8572                 5.9801
 IR Inten    --     19.6091                46.4836                 6.9259

                    115                    116                    117
                      A                      A                      A
 Frequencies --   3043.9287              3054.2817              3059.8464
 Red. masses --      1.0678                 1.0932                 1.1032
 Frc consts  --      5.8290                 6.0086                 6.0857
 IR Inten    --     42.4419                67.3112                64.3016

                    118                    119                    120
                      A                      A                      A
 Frequencies --   3062.5535              3088.5290              3090.6167
 Red. masses --      1.0910                 1.0925                 1.0942
 Frc consts  --      6.0291                 6.1402                 6.1579
 IR Inten    --     19.4858                34.5897                28.6193

                    121                    122                    123
                      A                      A                      A
 Frequencies --   3093.2894              3098.1260              3105.8954
 Red. masses --      1.1019                 1.1010                 1.0928
 Frc consts  --      6.2120                 6.2261                 6.2113
 IR Inten    --     64.4250                40.1152                11.6551

                    124                    125                    126
                      A                      A                      A
 Frequencies --   3106.6618              3541.9219              3588.8974
 Red. masses --      1.0936                 1.0746                 1.0744
 Frc consts  --      6.2189                 7.9427                 8.1537
 IR Inten    --     44.7219                 0.5805                 6.7050

 - Thermochemistry -
 -------------------
 Temperature   298.150 Kelvin.  Pressure   1.00000 Atm.
 Atom     1 has atomic number  6 and mass  12.00000

 Molecular mass:   228.22016 amu.
 Principal axes and moments of inertia in atomic units:
                           1         2         3
     Eigenvalues --  2586.146426705.396938459.80836
           X            1.00000   0.00068   0.00055
           Y           -0.00067   0.99999  -0.00512
           Z           -0.00056   0.00512   0.99999
 This molecule is an asymmetric top.
 Rotational symmetry number  1.
 Warning -- assumption of classical behavior for rotation
           may cause significant error
 Rotational temperatures (Kelvin)      0.03349     0.01292     0.01024
 Rotational constants (GHZ):           0.69785     0.26915     0.21333
 Zero-point vibrational energy    1068680.5 (Joules/Mol)
                                  255.42078 (Kcal/Mol)
 Warning -- explicit consideration of  27 degrees of freedom as
           vibrations may cause significant error
 Vibrational temperatures:     45.15    69.90    79.17    96.33   139.18
          (Kelvin)            150.49   172.66   180.99   200.37   237.30
                              266.59   303.05   329.61   355.86   367.86
                              376.76   419.86   454.66   465.14   499.82
                              524.05   571.20   615.59   661.91   730.90
                              761.28   873.21   910.77   976.51  1049.92
                             1059.55  1084.50  1103.28  1154.89  1226.04
                             1231.85  1282.59  1302.33  1328.92  1347.75
                             1385.56  1396.95  1415.37  1457.27  1479.08
                             1498.17  1527.21  1535.14  1552.33  1578.98
                             1616.80  1628.10  1641.90  1646.64  1656.66
                             1665.77  1703.40  1712.80  1761.42  1766.65
                             1777.10  1798.49  1814.65  1831.82  1855.32
                             1859.79  1894.50  1909.73  1914.77  1916.42
                             1935.93  1957.07  1966.28  1979.56  1988.78
                             2000.81  2006.84  2014.21  2016.16  2030.60
                             2034.62  2062.76  2113.09  2119.93  2127.84
                             2131.07  2136.23  2138.26  2139.90  2141.93
                             2152.64  2155.17  2157.67  2159.07  2162.07
                             2172.11  2176.37  2188.20  4184.92  4227.90
                             4235.02  4278.85  4280.17  4280.47  4317.14
                             4320.46  4323.79  4335.19  4336.95  4351.17
                             4354.75  4355.12  4359.48  4372.99  4379.53
                             4394.43  4402.44  4406.33  4443.70  4446.71
                             4450.55  4457.51  4468.69  4469.79  5096.04
                             5163.62

 Zero-point correction=                           0.407039 (Hartree/Particle)
 Thermal correction to Energy=                    0.425657
 Thermal correction to Enthalpy=                  0.426601
 Thermal correction to Gibbs Free Energy=         0.360041
 Sum of electronic and zero-point Energies=           -696.580192
 Sum of electronic and thermal Energies=              -696.561574
 Sum of electronic and thermal Enthalpies=            -696.560630
 Sum of electronic and thermal Free Energies=         -696.627190

                     E (Thermal)             CV                S
                      KCal/Mol        Cal/Mol-Kelvin    Cal/Mol-Kelvin
 Total                  267.104             70.268            140.087
 Electronic               0.000              0.000              0.000
 Translational            0.889              2.981             42.178
 Rotational               0.889              2.981             33.350
 Vibrational            265.326             64.306             64.560
 Vibration     1          0.594              1.983              5.740
 Vibration     2          0.595              1.978              4.874
 Vibration     3          0.596              1.976              4.628
 Vibration     4          0.598              1.970              4.241
 Vibration     5          0.603              1.952              3.519
 Vibration     6          0.605              1.946              3.367
 Vibration     7          0.609              1.933              3.100
 Vibration     8          0.611              1.927              3.009
 Vibration     9          0.615              1.914              2.814
 Vibration    10          0.623              1.886              2.492
 Vibration    11          0.631              1.860              2.274
 Vibration    12          0.643              1.825              2.038
 Vibration    13          0.652              1.797              1.886
 Vibration    14          0.661              1.767              1.749
 Vibration    15          0.666              1.753              1.691
 Vibration    16          0.669              1.743              1.649
 Vibration    17          0.687              1.689              1.463
 Vibration    18          0.703              1.643              1.331
 Vibration    19          0.708              1.629              1.293
 Vibration    20          0.725              1.581              1.178
 Vibration    21          0.738              1.546              1.104
 Vibration    22          0.764              1.477              0.974
 Vibration    23          0.789              1.410              0.866
 Vibration    24          0.818              1.339              0.766
 Vibration    25          0.863              1.232              0.638
 Vibration    26          0.884              1.186              0.589
 Vibration    27          0.966              1.017              0.438

 Optimization completed.
    -- Stationary point found.
 Normal termination of Gaussian 16 at Mon May 22 15:20:01 2023.
