 Gaussian 16, Revision A.03,
 Gaussian 16:  ES64L-G16RevA.03 25-Dec-2016

 -----------------------------
 # opt freq b3lyp/6-31g(2df,p)
 -----------------------------

 -------------------
 Title Card Required
 -------------------
 Symbolic Z-matrix:
 Charge =  0 Multiplicity = 1

 SCF Done:  E(RB3LYP) =  -586.300073197     A.U. after   12 cycles
 SCF Done:  E(RB3LYP) =  -586.308984347     A.U. after   11 cycles
 SCF Done:  E(RB3LYP) =  -586.312567254     A.U. after   10 cycles
 SCF Done:  E(RB3LYP) =  -586.315130354     A.U. after   10 cycles
 SCF Done:  E(RB3LYP) =  -586.318532550     A.U. after   11 cycles
 SCF Done:  E(RB3LYP) =  -586.321407934     A.U. after   10 cycles
 SCF Done:  E(RB3LYP) =  -586.323573763     A.U. after   10 cycles
 SCF Done:  E(RB3LYP) =  -586.324512788     A.U. after   10 cycles
 SCF Done:  E(RB3LYP) =  -586.324820537     A.U. after    9 cycles
 SCF Done:  E(RB3LYP) =  -586.324950517     A.U. after    9 cycles
 SCF Done:  E(RB3LYP) =  -586.324997086     A.U. after    9 cycles
 SCF Done:  E(RB3LYP) =  -586.325012586     A.U. after    8 cycles
 SCF Done:  E(RB3LYP) =  -586.325014708     A.U. after    8 cycles
 SCF Done:  E(RB3LYP) =  -586.325014972     A.U. after    6 cycles
 SCF Done:  E(RB3LYP) =  -586.325015090     A.U. after    6 cycles
 SCF Done:  E(RB3LYP) =  -586.325015087     A.U. after    5 cycles
 Optimization completed.
    -- Stationary point found.
 Normal termination of Gaussian 16 at Tue May 23 14:02:15 2023.

 ----------------------------------------------------------------------
 #N Geom=AllCheck Guess=TCheck SCRF=Check GenChk RB3LYP/6-31G(2df,p) Fr
 eq
 ----------------------------------------------------------------------

 Structure from the checkpoint file:  "CCCCCC1OCCCqCrC1CC.chk"
 -------------------
 Title Card Required
 -------------------
 Charge =  0 Multiplicity = 1

                         Standard orientation:
 ---------------------------------------------------------------------
 Center     Atomic      Atomic             Coordinates (Angstroms)
 Number     Number       Type             X           Y           Z
 ---------------------------------------------------------------------
      1          6           0        5.890049    0.111334   -0.554838
      2          6           0        4.638115   -0.191637    0.272805
      3          6           0        3.336980   -0.052226   -0.525011
      4          6           0        2.081088   -0.351841    0.299416
      5          6           0        0.781114   -0.214698   -0.500952
      6          6           0       -0.474489   -0.522675    0.332157
      7          8           0       -0.563571    0.280703    1.514614
      8          6           0       -0.883210    1.645378    1.290950
      9          6           0       -2.202994    1.812402    0.538449
     10          6           0       -2.177721    0.999745   -0.765607
     11          6           0       -3.465684    1.165503   -1.579525
     12          6           0       -1.802488   -0.476203   -0.464971
     13          6           0       -2.897041   -1.267546    0.286169
     14          6           0       -2.769862   -2.787263    0.126004
     15          1           0        6.801368    0.003226    0.041828
     16          1           0        5.868121    1.134800   -0.945990
     17          1           0        5.971545   -0.566267   -1.412252
     18          1           0        4.601552    0.478194    1.142155
     19          1           0        4.704885   -1.209472    0.679598
     20          1           0        3.372935   -0.722281   -1.395968
     21          1           0        3.271128    0.966413   -0.933541
     22          1           0        2.039313    0.314778    1.168665
     23          1           0        2.147368   -1.370587    0.706796
     24          1           0        0.794514   -0.911666   -1.349482
     25          1           0        0.727291    0.788838   -0.939643
     26          1           0       -0.347438   -1.535800    0.731719
     27          1           0       -0.075090    2.151534    0.738180
     28          1           0       -0.931115    2.101440    2.284697
     29          1           0       -2.371439    2.875377    0.325444
     30          1           0       -3.032432    1.478240    1.173846
     31          1           0       -1.364544    1.407976   -1.382318
     32          1           0       -4.357783    0.903776   -1.001943
     33          1           0       -3.452824    0.538694   -2.478214
     34          1           0       -3.582631    2.206312   -1.900411
     35          1           0       -1.631178   -0.974859   -1.429571
     36          1           0       -3.887588   -0.968570   -0.070756
     37          1           0       -2.858109   -1.005723    1.349306
     38          1           0       -2.861856   -3.081987   -0.925636
     39          1           0       -3.553083   -3.307589    0.686334
     40          1           0       -1.807489   -3.162054    0.489965
 ---------------------------------------------------------------------

 SCF Done:  E(RB3LYP) =  -586.325015087     A.U. after    1 cycles

 The electronic state is 1-A.
 Alpha  occ. eigenvalues --  -19.12883 -10.22031 -10.21902 -10.18386 -10.17830
 Alpha  occ. eigenvalues --  -10.17443 -10.17353 -10.17287 -10.17177 -10.17133
 Alpha  occ. eigenvalues --  -10.17132 -10.16990 -10.16957 -10.16823  -1.02016
 Alpha  occ. eigenvalues --   -0.81723  -0.79906  -0.77700  -0.75310  -0.72480
 Alpha  occ. eigenvalues --   -0.69954  -0.66906  -0.63245  -0.60962  -0.59926
 Alpha  occ. eigenvalues --   -0.57486  -0.56790  -0.52314  -0.48499  -0.47342
 Alpha  occ. eigenvalues --   -0.46139  -0.45589  -0.44317  -0.43567  -0.42755
 Alpha  occ. eigenvalues --   -0.41650  -0.40886  -0.40199  -0.39286  -0.38801
 Alpha  occ. eigenvalues --   -0.37234  -0.36876  -0.36312  -0.35765  -0.35247
 Alpha  occ. eigenvalues --   -0.34669  -0.34356  -0.33182  -0.32856  -0.32135
 Alpha  occ. eigenvalues --   -0.31645  -0.30963  -0.29920  -0.29847  -0.27608
 Alpha  occ. eigenvalues --   -0.24064
 Alpha virt. eigenvalues --    0.07880   0.09200   0.09569   0.10362   0.11308
 Alpha virt. eigenvalues --    0.12345   0.12786   0.13202   0.13607   0.14625
 Alpha virt. eigenvalues --    0.14985   0.15605   0.16063   0.16468   0.16651

 Mulliken charges:
               1
     1  C   -0.379251
     2  C   -0.162374
     3  C   -0.162091
     4  C   -0.179487
     5  C   -0.227683
     6  C    0.107718
     7  O   -0.269261
     8  C   -0.084449
     9  C   -0.201606
    10  C    0.010179
    11  C   -0.418007
    12  C    0.015890
    13  C   -0.194524
    14  C   -0.389120
    15  H    0.109539
    16  H    0.111630
    17  H    0.111753
    18  H    0.094132
    19  H    0.093313
    20  H    0.087599
    21  H    0.087689
    22  H    0.108657
    23  H    0.089476
    24  H    0.092171
    25  H    0.095524
    26  H    0.073498
    27  H    0.083624
    28  H    0.102164
    29  H    0.087646
    30  H    0.101210
    31  H    0.070285
    32  H    0.119146
    33  H    0.108624
    34  H    0.108675
    35  H    0.058069
    36  H    0.089223
    37  H    0.110247
    38  H    0.111033
    39  H    0.111174
    40  H    0.117968
 Sum of Mulliken charges =  -0.00000

 Dipole moment (field-independent basis, Debye):
    X=             -0.3285    Y=              0.4763    Z=             -0.9919  Tot=              1.1483
 Quadrupole moment (field-independent basis, Debye-Ang):
   XX=            -91.2891   YY=            -88.5106   ZZ=            -93.4240
   XY=             -0.9437   XZ=              0.2911   YZ=              1.0454

  Exact polarizability: 167.459   0.507 139.740   2.216   1.118 126.303
 Approx polarizability: 197.094  -0.269 201.776  -0.356   1.171 195.820

                      1                      2                      3
                      A                      A                      A
 Frequencies --     35.4912                46.8973                61.6104
 Red. masses --      3.3702                 1.6265                 3.1905
 Frc consts  --      0.0025                 0.0021                 0.0071
 IR Inten    --      0.0061                 0.0205                 0.1463

                      4                      5                      6
                      A                      A                      A
 Frequencies --     79.9283                96.2369               112.8690
 Red. masses --      2.0178                 2.9146                 2.4099
 Frc consts  --      0.0076                 0.0159                 0.0181
 IR Inten    --      0.0161                 0.1623                 0.1053

                      7                      8                      9
                      A                      A                      A
 Frequencies --    136.3698               163.6083               177.3948
 Red. masses --      1.8317                 2.6532                 2.5894
 Frc consts  --      0.0201                 0.0418                 0.0480
 IR Inten    --      0.0186                 1.1187                 0.8653

                     10                     11                     12
                      A                      A                      A
 Frequencies --    179.8527               228.7064               233.6447
 Red. masses --      1.8488                 2.0373                 1.2379
 Frc consts  --      0.0352                 0.0628                 0.0398
 IR Inten    --      0.0976                 0.4361                 0.7379

                     13                     14                     15
                      A                      A                      A
 Frequencies --    247.0692               260.2185               276.8252
 Red. masses --      1.1251                 2.1245                 2.0001
 Frc consts  --      0.0405                 0.0848                 0.0903
 IR Inten    --      0.0080                 0.1259                 0.3128

                     16                     17                     18
                      A                      A                      A
 Frequencies --    306.6060               321.4239               360.2562
 Red. masses --      2.2215                 2.4707                 3.0821
 Frc consts  --      0.1230                 0.1504                 0.2357
 IR Inten    --      2.0698                 0.3433                 2.8480

                     19                     20                     21
                      A                      A                      A
 Frequencies --    391.4657               424.9438               460.0746
 Red. masses --      3.0679                 3.5600                 2.9872
 Frc consts  --      0.2770                 0.3788                 0.3725
 IR Inten    --      4.3253                 0.8015                 0.7537

                     22                     23                     24
                      A                      A                      A
 Frequencies --    522.6180               555.2654               578.1978
 Red. masses --      2.3017                 2.6740                 2.7621
 Frc consts  --      0.3704                 0.4857                 0.5441
 IR Inten    --      1.6643                 8.4239                 1.0647

                     25                     26                     27
                      A                      A                      A
 Frequencies --    676.6785               731.6740               750.0677
 Red. masses --      2.2694                 1.0812                 1.7723
 Frc consts  --      0.6123                 0.3410                 0.5875
 IR Inten    --      0.8470                 2.8467                 2.0993

                     28                     29                     30
                      A                      A                      A
 Frequencies --    761.7389               804.5441               817.0241
 Red. masses --      1.4064                 1.5292                 1.7719
 Frc consts  --      0.4808                 0.5832                 0.6969
 IR Inten    --      1.2719                 2.3837                 7.0226

                     31                     32                     33
                      A                      A                      A
 Frequencies --    861.2455               873.3171               898.1710
 Red. masses --      1.5910                 1.9722                 1.9430
 Frc consts  --      0.6953                 0.8862                 0.9235
 IR Inten    --      3.5083                 1.1800                 2.9485

                     34                     35                     36
                      A                      A                      A
 Frequencies --    916.8959               939.9584               974.4839
 Red. masses --      1.8621                 1.7841                 1.4040
 Frc consts  --      0.9224                 0.9287                 0.7855
 IR Inten    --      5.5857                 1.5546                 3.0090

                     37                     38                     39
                      A                      A                      A
 Frequencies --    985.1901               990.3724              1001.5675
 Red. masses --      1.7470                 1.7998                 1.7795
 Frc consts  --      0.9990                 1.0401                 1.0517
 IR Inten    --      2.3370                 1.7618                 4.9620

                     40                     41                     42
                      A                      A                      A
 Frequencies --   1023.5314              1029.2353              1040.4310
 Red. masses --      2.0496                 2.4400                 2.0818
 Frc consts  --      1.2651                 1.5229                 1.3277
 IR Inten    --      3.3224                 3.5805                 1.8679

                     43                     44                     45
                      A                      A                      A
 Frequencies --   1056.2474              1061.6916              1070.3285
 Red. masses --      2.0279                 1.9955                 2.2464
 Frc consts  --      1.3330                 1.3252                 1.5163
 IR Inten    --      0.3693                 1.6187                 0.1487

                     46                     47                     48
                      A                      A                      A
 Frequencies --   1074.2161              1107.7794              1123.3162
 Red. masses --      2.2538                 2.5815                 2.1649
 Frc consts  --      1.5323                 1.8665                 1.6095
 IR Inten    --     32.8116                24.0034                 8.4387

                     49                     50                     51
                      A                      A                      A
 Frequencies --   1137.8754              1165.4421              1184.1623
 Red. masses --      1.9366                 2.5824                 2.3601
 Frc consts  --      1.4774                 2.0666                 1.9499
 IR Inten    --     11.3023                21.9357                 4.5673

                     52                     53                     54
                      A                      A                      A
 Frequencies --   1194.9379              1225.7726              1234.3772
 Red. masses --      2.4042                 1.4166                 1.5627
 Frc consts  --      2.0226                 1.2541                 1.4029
 IR Inten    --     30.0145                 2.8987                 5.7300

                     55                     56                     57
                      A                      A                      A
 Frequencies --   1253.3169              1281.6987              1288.1456
 Red. masses --      1.2837                 1.3051                 1.2784
 Frc consts  --      1.1881                 1.2632                 1.2498
 IR Inten    --      1.9974                 6.1417                 2.4765

                     58                     59                     60
                      A                      A                      A
 Frequencies --   1295.3633              1304.5344              1324.8468
 Red. masses --      1.2825                 1.2636                 1.2581
 Frc consts  --      1.2679                 1.2670                 1.3011
 IR Inten    --      1.4013                 2.7165                 3.2100

                     61                     62                     63
                      A                      A                      A
 Frequencies --   1328.0004              1332.6091              1337.2081
 Red. masses --      1.1127                 1.1318                 1.2482
 Frc consts  --      1.1561                 1.1842                 1.3151
 IR Inten    --      4.1559                 2.5996                 0.8801

                     64                     65                     66
                      A                      A                      A
 Frequencies --   1340.9517              1362.8808              1370.8583
 Red. masses --      1.2466                 1.3671                 1.3901
 Frc consts  --      1.3207                 1.4962                 1.5391
 IR Inten    --      1.1863                 1.1453                 1.7990

                     67                     68                     69
                      A                      A                      A
 Frequencies --   1385.8636              1387.7250              1397.4407
 Red. masses --      1.2779                 1.4769                 1.4983
 Frc consts  --      1.4461                 1.6758                 1.7239
 IR Inten    --      4.1672                 3.0519                 3.4105

                     70                     71                     72
                      A                      A                      A
 Frequencies --   1400.0101              1403.9828              1411.8296
 Red. masses --      1.6094                 1.3776                 1.2599
 Frc consts  --      1.8585                 1.5999                 1.4796
 IR Inten    --      1.8068                 7.8944                 0.5297

                     73                     74                     75
                      A                      A                      A
 Frequencies --   1412.9530              1414.7162              1421.9998
 Red. masses --      1.2481                 1.2342                 1.3100
 Frc consts  --      1.4681                 1.4554                 1.5607
 IR Inten    --      0.3810                 3.0295                 6.1779

                     76                     77                     78
                      A                      A                      A
 Frequencies --   1477.2568              1482.3991              1483.6426
 Red. masses --      1.0820                 1.0898                 1.0695
 Frc consts  --      1.3912                 1.4110                 1.3870
 IR Inten    --      0.6073                 3.8573                 0.0328

                     79                     80                     81
                      A                      A                      A
 Frequencies --   1489.9247              1490.4837              1496.4659
 Red. masses --      1.0691                 1.0625                 1.0474
 Frc consts  --      1.3982                 1.3908                 1.3819
 IR Inten    --      0.7576                 1.2258                 3.4414

                     82                     83                     84
                      A                      A                      A
 Frequencies --   1499.7578              1501.4188              1502.7434
 Red. masses --      1.0403                 1.0513                 1.0776
 Frc consts  --      1.3787                 1.3963                 1.4337
 IR Inten    --      4.8643                 3.1012                 0.4516

                     85                     86                     87
                      A                      A                      A
 Frequencies --   1504.2318              1508.7791              1510.4933
 Red. masses --      1.0498                 1.0676                 1.0861
 Frc consts  --      1.3995                 1.4318                 1.4600
 IR Inten    --      3.0061                 2.8544                 2.1455

                     88                     89                     90
                      A                      A                      A
 Frequencies --   1514.9009              2970.9180              2993.0922
 Red. masses --      1.0929                 1.0706                 1.0818
 Frc consts  --      1.4778                 5.5676                 5.7098
 IR Inten    --      3.9344                49.3328                13.0952

                     91                     92                     93
                      A                      A                      A
 Frequencies --   2997.2815              3002.9042              3008.5049
 Red. masses --      1.0581                 1.0803                 1.0660
 Frc consts  --      5.6006                 5.7393                 5.6847
 IR Inten    --      9.0235                21.2613                 1.0037

                     94                     95                     96
                      A                      A                      A
 Frequencies --   3015.7133              3021.8809              3023.1017
 Red. masses --      1.0637                 1.0750                 1.0584
 Frc consts  --      5.6995                 5.7838                 5.6993
 IR Inten    --     35.5033                10.6888                21.5422

                     97                     98                     99
                      A                      A                      A
 Frequencies --   3024.4906              3027.3333              3027.5524
 Red. masses --      1.0810                 1.0365                 1.0510
 Frc consts  --      5.8260                 5.5967                 5.6760
 IR Inten    --     26.6461                46.0118                 5.8085

                    100                    101                    102
                      A                      A                      A
 Frequencies --   3028.2214              3032.6463              3044.0543
 Red. masses --      1.0400                 1.0692                 1.0600
 Frc consts  --      5.6190                 5.7934                 5.7870
 IR Inten    --     38.2869                36.9175                26.2623

                    103                    104                    105
                      A                      A                      A
 Frequencies --   3047.1561              3056.0973              3064.0652
 Red. masses --      1.0980                 1.0959                 1.0995
 Frc consts  --      6.0066                 6.0304                 6.0819
 IR Inten    --     25.2127                 6.5039                33.4885

                    106                    107                    108
                      A                      A                      A
 Frequencies --   3073.4642              3075.0283              3076.9779
 Red. masses --      1.0971                 1.0999                 1.0992
 Frc consts  --      6.1061                 6.1276                 6.1314
 IR Inten    --     44.2165                46.7417                33.5985

                    109                    110                    111
                      A                      A                      A
 Frequencies --   3091.8119              3093.3496              3098.1642
 Red. masses --      1.1012                 1.1020                 1.1012
 Frc consts  --      6.2020                 6.2129                 6.2279
 IR Inten    --     31.1516                67.3097                64.3585

                    112                    113                    114
                      A                      A                      A
 Frequencies --   3098.9228              3099.4934              3104.0170
 Red. masses --      1.1009                 1.1007                 1.1003
 Frc consts  --      6.2290                 6.2303                 6.2459
 IR Inten    --     44.4327                12.1734                56.1909

 - Thermochemistry -
 -------------------
 Temperature   298.150 Kelvin.  Pressure   1.00000 Atm.
 Atom     1 has atomic number  6 and mass  12.00000

 Molecular mass:   198.19837 amu.
 Principal axes and moments of inertia in atomic units:
                           1         2         3
     Eigenvalues --  1595.697336546.828367054.65146
           X            0.99999   0.00292   0.00124
           Y           -0.00291   0.99992  -0.01269
           Z           -0.00128   0.01268   0.99992
 This molecule is an asymmetric top.
 Rotational symmetry number  1.
 Warning -- assumption of classical behavior for rotation
           may cause significant error
 Rotational temperatures (Kelvin)      0.05428     0.01323     0.01228
 Rotational constants (GHZ):           1.13100     0.27567     0.25582
 Zero-point vibrational energy     975468.1 (Joules/Mol)
                                  233.14246 (Kcal/Mol)
 Warning -- explicit consideration of  24 degrees of freedom as
           vibrations may cause significant error
 Vibrational temperatures:     51.06    67.47    88.64   115.00   138.46
          (Kelvin)            162.39   196.21   235.40   255.23   258.77
                              329.06   336.16   355.48   374.40   398.29
                              441.14   462.46   518.33   563.23   611.40
                              661.94   751.93   798.90   831.90   973.59
                             1052.72  1079.18  1095.97  1157.56  1175.52
                             1239.14  1256.51  1292.27  1319.21  1352.39
                             1402.06  1417.47  1424.92  1441.03  1472.63
                             1480.84  1496.95  1519.70  1527.54  1539.96
                             1545.56  1593.85  1616.20  1637.15  1676.81
                             1703.75  1719.25  1763.61  1775.99  1803.24
                             1844.08  1853.35  1863.74  1876.93  1906.16
                             1910.70  1917.33  1923.94  1929.33  1960.88
                             1972.36  1993.95  1996.63  2010.61  2014.30
                             2020.02  2031.31  2032.92  2035.46  2045.94
                             2125.44  2132.84  2134.63  2143.67  2144.47
                             2153.08  2157.82  2160.21  2162.11  2164.25
                             2170.80  2173.26  2179.60  4274.49  4306.39
                             4312.42  4320.51  4328.57  4338.94  4347.81
                             4349.57  4351.57  4355.66  4355.97  4356.94
                             4363.30  4379.72  4384.18  4397.04  4408.51
                             4422.03  4424.28  4427.08  4448.43  4450.64
                             4457.57  4458.66  4459.48  4465.99

 Zero-point correction=                           0.371536 (Hartree/Particle)
 Thermal correction to Energy=                    0.388218
 Thermal correction to Enthalpy=                  0.389162
 Thermal correction to Gibbs Free Energy=         0.326988
 Sum of electronic and zero-point Energies=           -585.953479
 Sum of electronic and thermal Energies=              -585.936797
 Sum of electronic and thermal Enthalpies=            -585.935853
 Sum of electronic and thermal Free Energies=         -585.998027

                     E (Thermal)             CV                S
                      KCal/Mol        Cal/Mol-Kelvin    Cal/Mol-Kelvin
 Total                  243.611             62.744            130.858
 Electronic               0.000              0.000              0.000
 Translational            0.889              2.981             41.757
 Rotational               0.889              2.981             32.666
 Vibrational            241.833             56.782             56.435
 Vibration     1          0.594              1.982              5.496
 Vibration     2          0.595              1.979              4.944
 Vibration     3          0.597              1.973              4.405
 Vibration     4          0.600              1.963              3.893
 Vibration     5          0.603              1.952              3.529
 Vibration     6          0.607              1.939              3.219
 Vibration     7          0.614              1.917              2.854
 Vibration     8          0.623              1.887              2.508
 Vibration     9          0.628              1.870              2.356
 Vibration    10          0.629              1.867              2.330
 Vibration    11          0.651              1.797              1.889
 Vibration    12          0.654              1.789              1.851
 Vibration    13          0.661              1.768              1.751
 Vibration    14          0.668              1.745              1.660
 Vibration    15          0.678              1.716              1.553
 Vibration    16          0.697              1.661              1.381
 Vibration    17          0.707              1.632              1.303
 Vibration    18          0.735              1.554              1.121
 Vibration    19          0.759              1.488              0.995
 Vibration    20          0.787              1.416              0.875
 Vibration    21          0.818              1.339              0.766
 Vibration    22          0.878              1.200              0.604
 Vibration    23          0.911              1.128              0.533
 Vibration    24          0.935              1.078              0.489

 Optimization completed.
    -- Stationary point found.
 Normal termination of Gaussian 16 at Tue May 23 17:01:14 2023.
