 Gaussian 16, Revision A.03,
 Gaussian 16:  ES64L-G16RevA.03 25-Dec-2016

 -----------------------------
 # opt freq b3lyp/6-31g(2df,p)
 -----------------------------

 -------------------
 Title Card Required
 -------------------
 Symbolic Z-matrix:
 Charge =  0 Multiplicity = 1

 SCF Done:  E(RB3LYP) =  -584.087241881     A.U. after   12 cycles
 SCF Done:  E(RB3LYP) =  -584.097740835     A.U. after   11 cycles
 SCF Done:  E(RB3LYP) =  -584.100861601     A.U. after   11 cycles
 SCF Done:  E(RB3LYP) =  -584.109478697     A.U. after   11 cycles
 SCF Done:  E(RB3LYP) =  -584.113061743     A.U. after   10 cycles
 SCF Done:  E(RB3LYP) =  -584.115866661     A.U. after   10 cycles
 SCF Done:  E(RB3LYP) =  -584.117170660     A.U. after   11 cycles
 SCF Done:  E(RB3LYP) =  -584.117554573     A.U. after   10 cycles
 SCF Done:  E(RB3LYP) =  -584.117658338     A.U. after    9 cycles
 SCF Done:  E(RB3LYP) =  -584.117899636     A.U. after   10 cycles
 SCF Done:  E(RB3LYP) =  -584.119677313     A.U. after   10 cycles
 SCF Done:  E(RB3LYP) =  -584.119724499     A.U. after    9 cycles
 SCF Done:  E(RB3LYP) =  -584.119734953     A.U. after   10 cycles
 SCF Done:  E(RB3LYP) =  -584.119757671     A.U. after    9 cycles
 SCF Done:  E(RB3LYP) =  -584.119759552     A.U. after    7 cycles
 SCF Done:  E(RB3LYP) =  -584.119760091     A.U. after    7 cycles
 SCF Done:  E(RB3LYP) =  -584.119760202     A.U. after    6 cycles
 SCF Done:  E(RB3LYP) =  -584.119760273     A.U. after    5 cycles
 SCF Done:  E(RB3LYP) =  -584.119760300     A.U. after    6 cycles
 Optimization completed.
    -- Stationary point found.
 Normal termination of Gaussian 16 at Mon May 22 09:31:54 2023.

 ----------------------------------------------------------------------
 #N Geom=AllCheck Guess=TCheck SCRF=Check GenChk RB3LYP/6-31G(2df,p) Fr
 eq
 ----------------------------------------------------------------------

 Structure from the checkpoint file:  "CCCCCCqCCqCrOrCqCrO.chk"
 -------------------
 Title Card Required
 -------------------
 Charge =  0 Multiplicity = 1

                         Standard orientation:
 ---------------------------------------------------------------------
 Center     Atomic      Atomic             Coordinates (Angstroms)
 Number     Number       Type             X           Y           Z
 ---------------------------------------------------------------------
      1          6           0        5.376399    0.761748   -0.143286
      2          6           0        4.076899    0.346678    0.551796
      3          6           0        2.871465    0.308901   -0.393911
      4          6           0        1.566562   -0.107417    0.293368
      5          6           0        0.359348   -0.114416   -0.654555
      6          6           0       -0.986670   -0.550420   -0.016169
      7          6           0       -2.177546    0.318839   -0.484300
      8          6           0       -2.460199    1.579952    0.348250
      9          6           0       -1.371043    2.653680    0.308640
     10          8           0       -3.720226    2.140097   -0.021339
     11          6           0       -1.300434   -2.044573   -0.286197
     12          6           0       -0.206108   -3.020954    0.149500
     13          8           0       -2.544933   -2.428658    0.298078
     14          1           0        6.217460    0.779601    0.556918
     15          1           0        5.288241    1.761564   -0.582984
     16          1           0        5.631684    0.068173   -0.952334
     17          1           0        3.866173    1.038324    1.378370
     18          1           0        4.206768   -0.642095    1.011710
     19          1           0        3.082773   -0.382053   -1.222410
     20          1           0        2.741019    1.298285   -0.854797
     21          1           0        1.361393    0.579466    1.126905
     22          1           0        1.698899   -1.095714    0.749850
     23          1           0        0.575498   -0.759445   -1.517863
     24          1           0        0.251761    0.892259   -1.071309
     25          1           0       -0.899660   -0.444354    1.077959
     26          1           0       -3.089149   -0.281823   -0.441666
     27          1           0       -2.029116    0.606532   -1.536304
     28          1           0       -2.604820    1.269435    1.391584
     29          1           0       -1.178704    2.977958   -0.722053
     30          1           0       -0.426424    2.296301    0.729317
     31          1           0       -1.694613    3.526088    0.883244
     32          1           0       -3.655276    2.414986   -0.942685
     33          1           0       -1.466435   -2.161123   -1.365788
     34          1           0        0.005364   -2.918214    1.221437
     35          1           0        0.730048   -2.868018   -0.393474
     36          1           0       -0.543656   -4.044994   -0.032095
     37          1           0       -2.440004   -2.394757    1.255743
 ---------------------------------------------------------------------

 SCF Done:  E(RB3LYP) =  -584.119760300     A.U. after    1 cycles

 The electronic state is 1-A.
 Alpha  occ. eigenvalues --  -19.13209 -19.12454 -10.22949 -10.22547 -10.18584
 Alpha  occ. eigenvalues --  -10.17926 -10.17904 -10.17890 -10.17760 -10.17598
 Alpha  occ. eigenvalues --  -10.17241 -10.17213 -10.16822  -1.01453  -1.00698
 Alpha  occ. eigenvalues --   -0.81679  -0.79046  -0.75462  -0.74091  -0.71321
 Alpha  occ. eigenvalues --   -0.67536  -0.63974  -0.60378  -0.58837  -0.57853
 Alpha  occ. eigenvalues --   -0.57127  -0.49199  -0.47441  -0.46968  -0.45706
 Alpha  occ. eigenvalues --   -0.45314  -0.44029  -0.43176  -0.42172  -0.41397
 Alpha  occ. eigenvalues --   -0.40876  -0.39873  -0.38645  -0.37783  -0.37120
 Alpha  occ. eigenvalues --   -0.36838  -0.35936  -0.34885  -0.34080  -0.33597
 Alpha  occ. eigenvalues --   -0.32927  -0.32443  -0.32275  -0.31961  -0.30651
 Alpha  occ. eigenvalues --   -0.29330  -0.26685  -0.25488
 Alpha virt. eigenvalues --    0.07191   0.07595   0.08687   0.09607   0.09977
 Alpha virt. eigenvalues --    0.10960   0.12507   0.12861   0.13314   0.14035
 Alpha virt. eigenvalues --    0.15001   0.15891   0.15916   0.16995   0.17026

 Mulliken charges:
               1
     1  C   -0.378966
     2  C   -0.164816
     3  C   -0.160227
     4  C   -0.186733
     5  C   -0.215357
     6  C   -0.003814
     7  C   -0.230489
     8  C    0.129246
     9  C   -0.399530
    10  O   -0.430127
    11  C    0.126490
    12  C   -0.410680
    13  O   -0.425958
    14  H    0.110880
    15  H    0.113246
    16  H    0.112984
    17  H    0.093755
    18  H    0.093537
    19  H    0.090629
    20  H    0.091871
    21  H    0.093928
    22  H    0.095317
    23  H    0.090663
    24  H    0.096322
    25  H    0.053190
    26  H    0.127732
    27  H    0.073115
    28  H    0.081955
    29  H    0.103337
    30  H    0.121475
    31  H    0.120747
    32  H    0.273253
    33  H    0.087340
    34  H    0.105775
    35  H    0.121874
    36  H    0.123344
    37  H    0.274692
 Sum of Mulliken charges =  -0.00000

 Dipole moment (field-independent basis, Debye):
    X=              2.3870    Y=              0.0143    Z=             -0.0956  Tot=              2.3890
 Quadrupole moment (field-independent basis, Debye-Ang):
   XX=            -97.8789   YY=            -85.6229   ZZ=            -79.6765
   XY=             -0.9036   XZ=              1.6826   YZ=             -4.4395

  Exact polarizability: 147.800  -0.781 130.995   0.369  -1.216 111.284
 Approx polarizability: 179.216  -1.666 175.164  -0.506  -2.156 180.345

                      1                      2                      3
                      A                      A                      A
 Frequencies --     32.8193                42.4146                57.5670
 Red. masses --      3.7978                 2.7789                 1.8536
 Frc consts  --      0.0024                 0.0029                 0.0036
 IR Inten    --      0.3497                 0.6835                 0.2980

                      4                      5                      6
                      A                      A                      A
 Frequencies --     69.4706                78.0940                94.8326
 Red. masses --      2.9144                 3.5652                 2.8956
 Frc consts  --      0.0083                 0.0128                 0.0153
 IR Inten    --      0.7939                 0.6962                 0.0357

                      7                      8                      9
                      A                      A                      A
 Frequencies --    122.8721               152.0359               170.8421
 Red. masses --      2.7275                 2.2740                 2.3911
 Frc consts  --      0.0243                 0.0310                 0.0411
 IR Inten    --      0.3024                 1.8477                 3.3135

                     10                     11                     12
                      A                      A                      A
 Frequencies --    231.4365               242.8249               247.5742
 Red. masses --      2.8150                 1.8050                 1.1293
 Frc consts  --      0.0888                 0.0627                 0.0408
 IR Inten    --      1.2269                20.0410                 0.2765

                     13                     14                     15
                      A                      A                      A
 Frequencies --    267.3374               278.6775               279.9794
 Red. masses --      1.5475                 1.2097                 1.7991
 Frc consts  --      0.0652                 0.0553                 0.0831
 IR Inten    --      9.2897                62.0654                18.5631

                     16                     17                     18
                      A                      A                      A
 Frequencies --    289.3734               297.6675               308.8604
 Red. masses --      1.2312                 1.1255                 2.7650
 Frc consts  --      0.0607                 0.0588                 0.1554
 IR Inten    --      1.5526                62.2155                 6.4483

                     19                     20                     21
                      A                      A                      A
 Frequencies --    338.6793               391.9477               429.9480
 Red. masses --      2.8766                 2.7903                 3.1428
 Frc consts  --      0.1944                 0.2526                 0.3423
 IR Inten    --     11.8185                 8.4605                21.3396

                     22                     23                     24
                      A                      A                      A
 Frequencies --    440.9307               462.0621               483.0496
 Red. masses --      2.4190                 2.1792                 2.8755
 Frc consts  --      0.2771                 0.2741                 0.3953
 IR Inten    --      3.1363                 2.3513                 5.9743

                     25                     26                     27
                      A                      A                      A
 Frequencies --    536.3283               571.8831               728.0967
 Red. masses --      2.9452                 2.7829                 1.0773
 Frc consts  --      0.4991                 0.5362                 0.3365
 IR Inten    --      0.3920                 1.8607                 5.5829

                     28                     29                     30
                      A                      A                      A
 Frequencies --    748.4726               808.7264               833.7664
 Red. masses --      1.1584                 2.0177                 1.7357
 Frc consts  --      0.3823                 0.7775                 0.7109
 IR Inten    --      0.0844                 0.9608                 3.6168

                     31                     32                     33
                      A                      A                      A
 Frequencies --    870.4789               874.9469               903.6390
 Red. masses --      1.6921                 1.6773                 1.7192
 Frc consts  --      0.7554                 0.7565                 0.8271
 IR Inten    --      6.4213                 3.2834                 1.2235

                     34                     35                     36
                      A                      A                      A
 Frequencies --    932.3598               950.5105               966.6227
 Red. masses --      1.9437                 2.0062                 1.3463
 Frc consts  --      0.9955                 1.0679                 0.7411
 IR Inten    --     11.5585                11.7205                 0.6451

                     37                     38                     39
                      A                      A                      A
 Frequencies --    993.5504              1005.3164              1029.0028
 Red. masses --      1.9126                 3.1084                 1.5546
 Frc consts  --      1.1124                 1.8509                 0.9699
 IR Inten    --      1.3730                 3.9259                 7.5551

                     40                     41                     42
                      A                      A                      A
 Frequencies --   1044.8614              1066.8517              1070.8945
 Red. masses --      2.9783                 2.2086                 2.2244
 Frc consts  --      1.9157                 1.4811                 1.5030
 IR Inten    --      6.1114                48.2885                23.2773

                     43                     44                     45
                      A                      A                      A
 Frequencies --   1075.1548              1091.6225              1107.3967
 Red. masses --      2.8797                 1.7043                 2.0746
 Frc consts  --      1.9613                 1.1966                 1.4990
 IR Inten    --     61.4949                10.5091                56.5742

                     46                     47                     48
                      A                      A                      A
 Frequencies --   1127.7961              1149.1084              1160.3465
 Red. masses --      1.8554                 2.2499                 2.4240
 Frc consts  --      1.3905                 1.7504                 1.9229
 IR Inten    --     30.4903                 2.4793                21.6726

                     49                     50                     51
                      A                      A                      A
 Frequencies --   1176.3691              1206.0953              1220.4631
 Red. masses --      1.8512                 1.3588                 1.5162
 Frc consts  --      1.5094                 1.1646                 1.3306
 IR Inten    --      7.2562                 6.4141                 0.3605

                     52                     53                     54
                      A                      A                      A
 Frequencies --   1248.7324              1270.2087              1298.7057
 Red. masses --      1.3831                 1.3030                 1.2516
 Frc consts  --      1.2707                 1.2387                 1.2438
 IR Inten    --      0.8406                11.7098                 9.9302

                     55                     56                     57
                      A                      A                      A
 Frequencies --   1307.2510              1318.8900              1323.9382
 Red. masses --      1.3709                 1.2401                 1.3248
 Frc consts  --      1.3803                 1.2710                 1.3682
 IR Inten    --      8.2753                 0.6036                 4.9495

                     58                     59                     60
                      A                      A                      A
 Frequencies --   1330.6816              1338.3376              1357.0685
 Red. masses --      1.0541                 1.1414                 1.3775
 Frc consts  --      1.0998                 1.2045                 1.4947
 IR Inten    --      0.5081                 6.2511                 4.6886

                     61                     62                     63
                      A                      A                      A
 Frequencies --   1362.7115              1381.4853              1384.5140
 Red. masses --      1.3282                 1.4320                 1.3952
 Frc consts  --      1.4532                 1.6102                 1.5757
 IR Inten    --      0.7012                 6.8360                 1.6858

                     64                     65                     66
                      A                      A                      A
 Frequencies --   1393.9136              1399.2453              1402.3725
 Red. masses --      1.4158                 1.5437                 1.2686
 Frc consts  --      1.6207                 1.7808                 1.4700
 IR Inten    --      1.3700                 0.6111                13.2434

                     67                     68                     69
                      A                      A                      A
 Frequencies --   1403.6988              1413.5602              1419.0837
 Red. masses --      1.2811                 1.2463                 1.2163
 Frc consts  --      1.4872                 1.4672                 1.4432
 IR Inten    --      1.5980                 1.0659                49.9019

                     70                     71                     72
                      A                      A                      A
 Frequencies --   1421.5911              1481.6857              1483.4393
 Red. masses --      1.2239                 1.0669                 1.0700
 Frc consts  --      1.4573                 1.3800                 1.3873
 IR Inten    --     59.8932                 0.8943                 0.3935

                     73                     74                     75
                      A                      A                      A
 Frequencies --   1487.2664              1488.3116              1493.3099
 Red. masses --      1.0709                 1.0666                 1.0602
 Frc consts  --      1.3957                 1.3920                 1.3930
 IR Inten    --      0.6087                 3.6588                 0.9268

                     76                     77                     78
                      A                      A                      A
 Frequencies --   1494.8642              1499.8950              1501.6685
 Red. masses --      1.0589                 1.0402                 1.0664
 Frc consts  --      1.3942                 1.3788                 1.4168
 IR Inten    --      4.5901                 5.0303                 9.2453

                     79                     80                     81
                      A                      A                      A
 Frequencies --   1504.1221              1508.5797              1515.3887
 Red. masses --      1.0632                 1.0726                 1.0906
 Frc consts  --      1.4172                 1.4382                 1.4756
 IR Inten    --      2.3890                 3.0403                 4.0071

                     82                     83                     84
                      A                      A                      A
 Frequencies --   2961.8415              2993.5041              2999.4918
 Red. masses --      1.0805                 1.0706                 1.0582
 Frc consts  --      5.5847                 5.6523                 5.6096
 IR Inten    --      9.4085                13.7538                 3.4937

                     85                     86                     87
                      A                      A                      A
 Frequencies --   3003.7719              3012.3870              3017.3007
 Red. masses --      1.0670                 1.0638                 1.0702
 Frc consts  --      5.6723                 5.6879                 5.7405
 IR Inten    --      0.4280                 5.7183                38.4143

                     88                     89                     90
                      A                      A                      A
 Frequencies --   3020.1222              3021.5770              3024.8721
 Red. masses --      1.0670                 1.0634                 1.0892
 Frc consts  --      5.7341                 5.7200                 5.8717
 IR Inten    --      3.5186                25.1518                 5.1678

                     91                     92                     93
                      A                      A                      A
 Frequencies --   3027.4365              3028.3280              3029.7386
 Red. masses --      1.0579                 1.0361                 1.0614
 Frc consts  --      5.7127                 5.5985                 5.7402
 IR Inten    --     19.1987                31.8712               101.9570

                     94                     95                     96
                      A                      A                      A
 Frequencies --   3045.1077              3057.0597              3075.2165
 Red. masses --      1.0962                 1.0966                 1.0971
 Frc consts  --      5.9891                 6.0380                 6.1127
 IR Inten    --      7.9885                13.2924                82.0792

                     97                     98                     99
                      A                      A                      A
 Frequencies --   3094.4843              3095.3533              3099.8081
 Red. masses --      1.1020                 1.0952                 1.0946
 Frc consts  --      6.2174                 6.1823                 6.1971
 IR Inten    --     59.3299                29.2186                31.3481

                    100                    101                    102
                      A                      A                      A
 Frequencies --   3100.2747              3103.0373              3117.0225
 Red. masses --      1.1009                 1.0912                 1.1016
 Frc consts  --      6.2347                 6.1905                 6.3061
 IR Inten    --     40.1980                 8.9773                28.5564

                    103                    104                    105
                      A                      A                      A
 Frequencies --   3122.8425              3793.0165              3797.4169
 Red. masses --      1.1014                 1.0658                 1.0658
 Frc consts  --      6.3287                 9.0342                 9.0556
 IR Inten    --     25.4893                12.4099                11.8263

 - Thermochemistry -
 -------------------
 Temperature   298.150 Kelvin.  Pressure   1.00000 Atm.
 Atom     1 has atomic number  6 and mass  12.00000

 Molecular mass:   188.17763 amu.
 Principal axes and moments of inertia in atomic units:
                           1         2         3
     Eigenvalues --  2110.157575117.056056900.98415
           X            0.99999   0.00426   0.00086
           Y           -0.00426   0.99998  -0.00400
           Z           -0.00088   0.00399   0.99999
 This molecule is an asymmetric top.
 Rotational symmetry number  1.
 Warning -- assumption of classical behavior for rotation
           may cause significant error
 Rotational temperatures (Kelvin)      0.04105     0.01693     0.01255
 Rotational constants (GHZ):           0.85526     0.35269     0.26152
 Zero-point vibrational energy     890844.0 (Joules/Mol)
                                  212.91683 (Kcal/Mol)
 Warning -- explicit consideration of  26 degrees of freedom as
           vibrations may cause significant error
 Vibrational temperatures:     47.22    61.03    82.83    99.95   112.36
          (Kelvin)            136.44   176.79   218.75   245.80   332.99
                              349.37   356.20   384.64   400.95   402.83
                              416.34   428.28   444.38   487.28   563.93
                              618.60   634.40   664.80   695.00   771.66
                              822.81  1047.57  1076.89  1163.58  1199.60
                             1252.43  1258.85  1300.14  1341.46  1367.57
                             1390.75  1429.50  1446.43  1480.51  1503.32
                             1534.96  1540.78  1546.91  1570.60  1593.30
                             1622.65  1653.31  1669.48  1692.53  1735.30
                             1755.97  1796.65  1827.55  1868.55  1880.84
                             1897.59  1904.85  1914.55  1925.57  1952.52
                             1960.64  1987.65  1992.01  2005.53  2013.20
                             2017.70  2019.61  2033.80  2041.74  2045.35
                             2131.82  2134.34  2139.84  2141.35  2148.54
                             2150.78  2158.01  2160.57  2164.10  2170.51
                             2180.31  4261.43  4306.98  4315.60  4321.76
                             4334.15  4341.22  4345.28  4347.38  4352.12
                             4355.81  4357.09  4359.12  4381.23  4398.43
                             4424.55  4452.27  4453.52  4459.93  4460.60
                             4464.58  4484.70  4493.07  5457.30  5463.64

 Zero-point correction=                           0.339305 (Hartree/Particle)
 Thermal correction to Energy=                    0.356426
 Thermal correction to Enthalpy=                  0.357370
 Thermal correction to Gibbs Free Energy=         0.293981
 Sum of electronic and zero-point Energies=           -583.780456
 Sum of electronic and thermal Energies=              -583.763334
 Sum of electronic and thermal Enthalpies=            -583.762390
 Sum of electronic and thermal Free Energies=         -583.825779

                     E (Thermal)             CV                S
                      KCal/Mol        Cal/Mol-Kelvin    Cal/Mol-Kelvin
 Total                  223.661             62.850            133.414
 Electronic               0.000              0.000              0.000
 Translational            0.889              2.981             41.603
 Rotational               0.889              2.981             32.677
 Vibrational            221.883             56.889             59.134
 Vibration     1          0.594              1.983              5.651
 Vibration     2          0.595              1.980              5.143
 Vibration     3          0.596              1.974              4.539
 Vibration     4          0.598              1.969              4.168
 Vibration     5          0.599              1.964              3.938
 Vibration     6          0.603              1.953              3.558
 Vibration     7          0.610              1.930              3.055
 Vibration     8          0.619              1.900              2.647
 Vibration     9          0.626              1.878              2.426
 Vibration    10          0.653              1.793              1.868
 Vibration    11          0.659              1.775              1.782
 Vibration    12          0.661              1.767              1.748
 Vibration    13          0.672              1.733              1.613
 Vibration    14          0.679              1.713              1.542
 Vibration    15          0.680              1.711              1.534
 Vibration    16          0.686              1.693              1.478
 Vibration    17          0.691              1.678              1.430
 Vibration    18          0.698              1.657              1.368
 Vibration    19          0.719              1.598              1.218
 Vibration    20          0.759              1.487              0.993
 Vibration    21          0.791              1.405              0.859
 Vibration    22          0.801              1.381              0.824
 Vibration    23          0.820              1.334              0.760
 Vibration    24          0.839              1.288              0.702
 Vibration    25          0.891              1.170              0.573
 Vibration    26          0.928              1.092              0.501

 Optimization completed.
    -- Stationary point found.
 Normal termination of Gaussian 16 at Mon May 22 11:38:54 2023.
