 Gaussian 16, Revision A.03,
 Gaussian 16:  ES64L-G16RevA.03 25-Dec-2016

 -----------------------------
 # opt freq b3lyp/6-31g(2df,p)
 -----------------------------

 -------------------
 Title Card Required
 -------------------
 Symbolic Z-matrix:
 Charge =  0 Multiplicity = 1

 SCF Done:  E(RB3LYP) =  -432.425091635     A.U. after   12 cycles
 SCF Done:  E(RB3LYP) =  -432.450822731     A.U. after   10 cycles
 SCF Done:  E(RB3LYP) =  -432.462046295     A.U. after   11 cycles
 SCF Done:  E(RB3LYP) =  -432.464391337     A.U. after   10 cycles
 SCF Done:  E(RB3LYP) =  -432.465716859     A.U. after   10 cycles
 SCF Done:  E(RB3LYP) =  -432.466148851     A.U. after   10 cycles
 SCF Done:  E(RB3LYP) =  -432.466598918     A.U. after   10 cycles
 SCF Done:  E(RB3LYP) =  -432.466689277     A.U. after    9 cycles
 SCF Done:  E(RB3LYP) =  -432.466877001     A.U. after    9 cycles
 SCF Done:  E(RB3LYP) =  -432.466906530     A.U. after    8 cycles
 SCF Done:  E(RB3LYP) =  -432.466999079     A.U. after    9 cycles
 SCF Done:  E(RB3LYP) =  -432.467026814     A.U. after    9 cycles
 SCF Done:  E(RB3LYP) =  -432.467041377     A.U. after    9 cycles
 SCF Done:  E(RB3LYP) =  -432.467039598     A.U. after    8 cycles
 SCF Done:  E(RB3LYP) =  -432.467043912     A.U. after    8 cycles
 SCF Done:  E(RB3LYP) =  -432.467041796     A.U. after    8 cycles
 SCF Done:  E(RB3LYP) =  -432.467044394     A.U. after    8 cycles
 SCF Done:  E(RB3LYP) =  -432.467044256     A.U. after    7 cycles
 SCF Done:  E(RB3LYP) =  -432.467044424     A.U. after    7 cycles
 Optimization completed.
    -- Stationary point found.
 Normal termination of Gaussian 16 at Sun May 28 17:43:41 2023.

 ----------------------------------------------------------------------
 #N Geom=AllCheck Guess=TCheck SCRF=Check GenChk RB3LYP/6-31G(2df,p) Fr
 eq
 ----------------------------------------------------------------------

 Structure from the checkpoint file:  "CCCCqCrCC1CCCC1.chk"
 -------------------
 Title Card Required
 -------------------
 Charge =  0 Multiplicity = 1

                         Standard orientation:
 ---------------------------------------------------------------------
 Center     Atomic      Atomic             Coordinates (Angstroms)
 Number     Number       Type             X           Y           Z
 ---------------------------------------------------------------------
      1          6           0       -4.133839   -1.263384    0.362986
      2          6           0       -3.078126   -0.714241   -0.600410
      3          6           0       -1.980814    0.094444    0.102347
      4          6           0       -0.953876    0.670589   -0.885612
      5          6           0        0.249305    1.451591   -0.295521
      6          6           0       -0.165206    2.379290    0.858206
      7          6           0        1.476493    0.590063    0.086870
      8          6           0        1.277525   -0.654377    0.973119
      9          6           0        2.651887   -1.340592    0.915563
     10          6           0        3.120769   -1.148627   -0.551434
     11          6           0        2.271046    0.025778   -1.114763
     12          1           0       -4.901370   -1.836460   -0.166902
     13          1           0       -4.637011   -0.453242    0.902763
     14          1           0       -3.681913   -1.924922    1.110682
     15          1           0       -3.564600   -0.083202   -1.356429
     16          1           0       -2.618972   -1.545009   -1.152985
     17          1           0       -1.490781   -0.541702    0.848454
     18          1           0       -2.450004    0.910560    0.665932
     19          1           0       -0.580140   -0.141264   -1.523236
     20          1           0       -1.493089    1.345210   -1.564216
     21          1           0        0.604516    2.105846   -1.104792
     22          1           0        0.665554    3.032561    1.145024
     23          1           0       -0.464971    1.817641    1.748754
     24          1           0       -1.006997    3.019494    0.572412
     25          1           0        2.159206    1.256305    0.635963
     26          1           0        0.521623   -1.314907    0.531774
     27          1           0        0.956687   -0.421399    1.993021
     28          1           0        2.618986   -2.391828    1.215750
     29          1           0        3.341587   -0.834769    1.601365
     30          1           0        2.954563   -2.059242   -1.134961
     31          1           0        4.192969   -0.939555   -0.602905
     32          1           0        1.580682   -0.341476   -1.882354
     33          1           0        2.882482    0.798170   -1.591211
 ---------------------------------------------------------------------

 SCF Done:  E(RB3LYP) =  -432.467044424     A.U. after    1 cycles

 The electronic state is 1-A.
 Alpha  occ. eigenvalues --  -10.17886 -10.17415 -10.17385 -10.17119 -10.17100
 Alpha  occ. eigenvalues --  -10.17089 -10.16977 -10.16934 -10.16863 -10.16830
 Alpha  occ. eigenvalues --  -10.16606  -0.83313  -0.79572  -0.76478  -0.70564
 Alpha  occ. eigenvalues --   -0.69902  -0.68582  -0.63733  -0.58960  -0.56804
 Alpha  occ. eigenvalues --   -0.55659  -0.52844  -0.47476  -0.46949  -0.45025
 Alpha  occ. eigenvalues --   -0.44331  -0.41975  -0.41072  -0.40528  -0.39572
 Alpha  occ. eigenvalues --   -0.38389  -0.38056  -0.36168  -0.34654  -0.33837
 Alpha  occ. eigenvalues --   -0.32960  -0.32772  -0.32583  -0.32230  -0.31865
 Alpha  occ. eigenvalues --   -0.30942  -0.29625  -0.29191  -0.29007
 Alpha virt. eigenvalues --    0.07455   0.09230   0.10085   0.10747   0.12169
 Alpha virt. eigenvalues --    0.12884   0.14145   0.14585   0.15284   0.15714
 Alpha virt. eigenvalues --    0.16095   0.16664   0.17631   0.17827   0.18717

 Mulliken charges:
               1
     1  C   -0.382042
     2  C   -0.161294
     3  C   -0.155277
     4  C   -0.206603
     5  C   -0.007854
     6  C   -0.407400
     7  C    0.068569
     8  C   -0.208957
     9  C   -0.204937
    10  C   -0.203808
    11  C   -0.225912
    12  H    0.109238
    13  H    0.112258
    14  H    0.112328
    15  H    0.092318
    16  H    0.091948
    17  H    0.096945
    18  H    0.092623
    19  H    0.091023
    20  H    0.088932
    21  H    0.067524
    22  H    0.105923
    23  H    0.117962
    24  H    0.107161
    25  H    0.060154
    26  H    0.096905
    27  H    0.088134
    28  H    0.089041
    29  H    0.095139
    30  H    0.096444
    31  H    0.095170
    32  H    0.097345
    33  H    0.090999
 Sum of Mulliken charges =  -0.00000

 Dipole moment (field-independent basis, Debye):
    X=              0.0678    Y=              0.0710    Z=             -0.0547  Tot=              0.1123
 Quadrupole moment (field-independent basis, Debye-Ang):
   XX=            -73.3777   YY=            -72.6643   ZZ=            -73.3539
   XY=              0.1763   XZ=              0.5345   YZ=              0.0028

  Exact polarizability: 132.886  -1.231 113.969  -0.884  -0.209 105.909
 Approx polarizability: 164.208  -0.195 161.965   0.695   0.411 159.530

                      1                      2                      3
                      A                      A                      A
 Frequencies --     40.4007                53.3405                61.3234
 Red. masses --      2.0868                 2.3139                 2.3276
 Frc consts  --      0.0020                 0.0039                 0.0052
 IR Inten    --      0.0003                 0.0027                 0.0003

                      4                      5                      6
                      A                      A                      A
 Frequencies --     77.8669               137.1215               158.2680
 Red. masses --      1.7699                 2.7840                 2.1309
 Frc consts  --      0.0063                 0.0308                 0.0314
 IR Inten    --      0.0040                 0.0366                 0.0585

                      7                      8                      9
                      A                      A                      A
 Frequencies --    171.3108               197.2601               240.0345
 Red. masses --      2.1545                 2.6805                 1.2930
 Frc consts  --      0.0373                 0.0615                 0.0439
 IR Inten    --      0.0093                 0.0355                 0.0073

                     10                     11                     12
                      A                      A                      A
 Frequencies --    256.7647               271.7237               293.3226
 Red. masses --      1.6722                 1.1554                 2.5216
 Frc consts  --      0.0650                 0.0503                 0.1278
 IR Inten    --      0.0903                 0.0592                 0.0214

                     13                     14                     15
                      A                      A                      A
 Frequencies --    357.5724               397.6106               473.8095
 Red. masses --      2.6916                 2.7952                 2.3937
 Frc consts  --      0.2028                 0.2604                 0.3166
 IR Inten    --      0.0690                 0.0289                 0.9888

                     16                     17                     18
                      A                      A                      A
 Frequencies --    525.0394               606.8908               622.3514
 Red. masses --      2.2576                 2.4248                 2.4884
 Frc consts  --      0.3667                 0.5262                 0.5679
 IR Inten    --      0.5340                 0.5149                 0.7763

                     19                     20                     21
                      A                      A                      A
 Frequencies --    732.9484               773.9675               789.7869
 Red. masses --      1.0916                 1.1869                 1.2228
 Frc consts  --      0.3455                 0.4189                 0.4494
 IR Inten    --      3.4549                 0.6291                 0.0489

                     22                     23                     24
                      A                      A                      A
 Frequencies --    794.6163               850.4943               881.6223
 Red. masses --      2.5876                 2.1890                 2.8467
 Frc consts  --      0.9626                 0.9329                 1.3036
 IR Inten    --      0.0299                 0.3373                 0.4974

                     25                     26                     27
                      A                      A                      A
 Frequencies --    896.5706               901.4393               926.4676
 Red. masses --      2.5104                 1.8020                 1.3031
 Frc consts  --      1.1890                 0.8627                 0.6590
 IR Inten    --      0.7809                 2.1155                 0.8928

                     28                     29                     30
                      A                      A                      A
 Frequencies --    946.5334               965.5209               972.2841
 Red. masses --      1.9568                 1.5419                 1.8703
 Frc consts  --      1.0329                 0.8469                 1.0417
 IR Inten    --      2.2058                 0.1056                 1.2184

                     31                     32                     33
                      A                      A                      A
 Frequencies --    986.0975              1010.7920              1030.4894
 Red. masses --      1.3111                 1.8178                 2.1599
 Frc consts  --      0.7511                 1.0943                 1.3514
 IR Inten    --      0.1495                 0.7064                 0.0204

                     34                     35                     36
                      A                      A                      A
 Frequencies --   1048.6627              1055.0607              1061.2017
 Red. masses --      1.9103                 2.1422                 2.0613
 Frc consts  --      1.2377                 1.4050                 1.3677
 IR Inten    --      0.4582                 0.2054                 0.7420

                     37                     38                     39
                      A                      A                      A
 Frequencies --   1093.2870              1117.5070              1153.1253
 Red. masses --      1.9811                 1.6758                 2.5115
 Frc consts  --      1.3951                 1.2330                 1.9676
 IR Inten    --      1.4021                 0.5437                 0.9290

                     40                     41                     42
                      A                      A                      A
 Frequencies --   1192.1568              1197.5804              1210.2848
 Red. masses --      1.8053                 1.4696                 1.4697
 Frc consts  --      1.5117                 1.2418                 1.2684
 IR Inten    --      2.1871                 0.8925                 0.7838

                     43                     44                     45
                      A                      A                      A
 Frequencies --   1225.2573              1251.5394              1278.4649
 Red. masses --      1.5873                 1.3613                 1.3075
 Frc consts  --      1.4039                 1.2563                 1.2591
 IR Inten    --      0.1027                 0.3243                 0.2430

                     46                     47                     48
                      A                      A                      A
 Frequencies --   1280.9446              1289.4252              1312.6379
 Red. masses --      1.3062                 1.2419                 1.2378
 Frc consts  --      1.2628                 1.2166                 1.2566
 IR Inten    --      0.1380                 0.7134                 1.0511

                     49                     50                     51
                      A                      A                      A
 Frequencies --   1319.2127              1326.3659              1332.7420
 Red. masses --      1.2251                 1.2778                 1.1192
 Frc consts  --      1.2562                 1.3245                 1.1712
 IR Inten    --      0.9498                 0.5732                 0.1960

                     52                     53                     54
                      A                      A                      A
 Frequencies --   1341.2471              1343.4435              1352.5102
 Red. masses --      1.3064                 1.2562                 1.4315
 Frc consts  --      1.3847                 1.3359                 1.5429
 IR Inten    --      4.1607                 7.0808                 1.2909

                     55                     56                     57
                      A                      A                      A
 Frequencies --   1376.6098              1384.6048              1398.3557
 Red. masses --      1.3849                 1.4248                 1.5101
 Frc consts  --      1.5463                 1.6093                 1.7398
 IR Inten    --      0.9974                 3.5673                 1.5532

                     58                     59                     60
                      A                      A                      A
 Frequencies --   1407.0135              1411.0887              1414.3580
 Red. masses --      1.4007                 1.2326                 1.2666
 Frc consts  --      1.6338                 1.4460                 1.4929
 IR Inten    --      8.0386                 1.1759                 3.0860

                     61                     62                     63
                      A                      A                      A
 Frequencies --   1480.8252              1485.5155              1488.1553
 Red. masses --      1.0804                 1.0668                 1.0775
 Frc consts  --      1.3958                 1.3870                 1.4060
 IR Inten    --      3.5618                 0.0409                 0.4275

                     64                     65                     66
                      A                      A                      A
 Frequencies --   1492.2948              1496.3486              1499.8075
 Red. masses --      1.0849                 1.0848                 1.0405
 Frc consts  --      1.4235                 1.4311                 1.3790
 IR Inten    --      0.9911                 2.0745                 5.9477

                     67                     68                     69
                      A                      A                      A
 Frequencies --   1499.9798              1500.8349              1505.2909
 Red. masses --      1.0491                 1.0721                 1.0565
 Frc consts  --      1.3907                 1.4228                 1.4105
 IR Inten    --      3.6898                 0.5865                 3.8311

                     70                     71                     72
                      A                      A                      A
 Frequencies --   1513.6865              1519.3680              2978.8818
 Red. masses --      1.0891                 1.1033                 1.0819
 Frc consts  --      1.4703                 1.5006                 5.6566
 IR Inten    --      0.9515                 2.0472                16.0041

                     73                     74                     75
                      A                      A                      A
 Frequencies --   2987.4236              3008.4998              3013.1709
 Red. masses --      1.0804                 1.0601                 1.0609
 Frc consts  --      5.6810                 5.6532                 5.6752
 IR Inten    --     25.8433                 2.5884                37.6010

                     76                     77                     78
                      A                      A                      A
 Frequencies --   3025.2579              3027.7807              3030.1297
 Red. masses --      1.0525                 1.0405                 1.0507
 Frc consts  --      5.6753                 5.6199                 5.6839
 IR Inten    --     18.5005                26.2626                20.4562

                     79                     80                     81
                      A                      A                      A
 Frequencies --   3031.3897              3034.1270              3036.3112
 Red. masses --      1.0711                 1.0644                 1.0845
 Frc consts  --      5.7990                 5.7733                 5.8909
 IR Inten    --     33.0320                19.4508                24.5423

                     82                     83                     84
                      A                      A                      A
 Frequencies --   3038.7193              3040.7867              3053.5790
 Red. masses --      1.0729                 1.0819                 1.0639
 Frc consts  --      5.8368                 5.8942                 5.8446
 IR Inten    --     56.0338                27.8215                48.8856

                     85                     86                     87
                      A                      A                      A
 Frequencies --   3069.9878              3073.7106              3082.1937
 Red. masses --      1.0998                 1.1012                 1.0969
 Frc consts  --      6.1072                 6.1297                 6.1396
 IR Inten    --     11.2949                38.3169                11.5381

                     88                     89                     90
                      A                      A                      A
 Frequencies --   3086.3801              3092.6890              3094.2570
 Red. masses --      1.1038                 1.1014                 1.1019
 Frc consts  --      6.1948                 6.2065                 6.2161
 IR Inten    --     20.8106                17.6169                87.5388

                     91                     92                     93
                      A                      A                      A
 Frequencies --   3098.5504              3100.4275              3100.8639
 Red. masses --      1.1010                 1.1042                 1.1015
 Frc consts  --      6.2278                 6.2538                 6.2404
 IR Inten    --     41.8348               106.9234                22.8090

 - Thermochemistry -
 -------------------
 Temperature   298.150 Kelvin.  Pressure   1.00000 Atm.
 Atom     1 has atomic number  6 and mass  12.00000

 Molecular mass:   154.17215 amu.
 Principal axes and moments of inertia in atomic units:
                           1         2         3
     Eigenvalues --  1159.776233354.868113806.37813
           X            0.99999   0.00473  -0.00257
           Y           -0.00470   0.99994   0.00977
           Z            0.00262  -0.00976   0.99995
 This molecule is an asymmetric top.
 Rotational symmetry number  1.
 Warning -- assumption of classical behavior for rotation
           may cause significant error
 Rotational temperatures (Kelvin)      0.07468     0.02582     0.02275
 Rotational constants (GHZ):           1.55611     0.53795     0.47414
 Zero-point vibrational energy     814438.9 (Joules/Mol)
                                  194.65557 (Kcal/Mol)
 Warning -- explicit consideration of  17 degrees of freedom as
           vibrations may cause significant error
 Vibrational temperatures:     58.13    76.75    88.23   112.03   197.29
          (Kelvin)            227.71   246.48   283.81   345.36   369.43
                              390.95   422.03   514.47   572.07   681.71
                              755.41   873.18   895.42  1054.55  1113.57
                             1136.33  1143.28  1223.67  1268.46  1289.97
                             1296.97  1332.98  1361.85  1389.17  1398.90
                             1418.77  1454.30  1482.64  1508.79  1518.00
                             1526.83  1573.00  1607.84  1659.09  1715.25
                             1723.05  1741.33  1762.87  1800.69  1839.43
                             1842.99  1855.20  1888.59  1898.05  1908.34
                             1917.52  1929.76  1932.92  1945.96  1980.63
                             1992.14  2011.92  2024.38  2030.24  2034.95
                             2130.58  2137.33  2141.12  2147.08  2152.91
                             2157.89  2158.14  2159.37  2165.78  2177.86
                             2186.03  4285.95  4298.24  4328.56  4335.28
                             4352.67  4356.30  4359.68  4361.49  4365.43
                             4368.57  4372.04  4375.01  4393.42  4417.03
                             4422.38  4434.59  4440.61  4449.69  4451.95
                             4458.12  4460.82  4461.45

 Zero-point correction=                           0.310203 (Hartree/Particle)
 Thermal correction to Energy=                    0.323362
 Thermal correction to Enthalpy=                  0.324307
 Thermal correction to Gibbs Free Energy=         0.269902
 Sum of electronic and zero-point Energies=           -432.156841
 Sum of electronic and thermal Energies=              -432.143682
 Sum of electronic and thermal Enthalpies=            -432.142738
 Sum of electronic and thermal Free Energies=         -432.197143

                     E (Thermal)             CV                S
                      KCal/Mol        Cal/Mol-Kelvin    Cal/Mol-Kelvin
 Total                  202.913             49.191            114.505
 Electronic               0.000              0.000              0.000
 Translational            0.889              2.981             41.008
 Rotational               0.889              2.981             31.072
 Vibrational            201.136             43.229             42.425
 Vibration     1          0.594              1.981              5.239
 Vibration     2          0.596              1.976              4.690
 Vibration     3          0.597              1.973              4.414
 Vibration     4          0.599              1.964              3.944
 Vibration     5          0.614              1.916              2.844
 Vibration     6          0.621              1.893              2.570
 Vibration     7          0.626              1.878              2.421
 Vibration     8          0.637              1.844              2.159
 Vibration     9          0.657              1.779              1.803
 Vibration    10          0.666              1.751              1.684
 Vibration    11          0.675              1.725              1.585
 Vibration    12          0.688              1.686              1.455
 Vibration    13          0.733              1.560              1.133
 Vibration    14          0.764              1.475              0.971
 Vibration    15          0.831              1.308              0.727
 Vibration    16          0.880              1.195              0.598
 Vibration    17          0.966              1.017              0.438

 Optimization completed.
    -- Stationary point found.
 Normal termination of Gaussian 16 at Sun May 28 19:04:27 2023.
