 Gaussian 16, Revision A.03,
 Gaussian 16:  ES64L-G16RevA.03 25-Dec-2016

 -----------------------------
 # opt freq b3lyp/6-31g(2df,p)
 -----------------------------

 -------------------
 Title Card Required
 -------------------
 Symbolic Z-matrix:
 Charge =  0 Multiplicity = 1

 SCF Done:  E(RB3LYP) =  -352.460417437     A.U. after   12 cycles
 SCF Done:  E(RB3LYP) =  -352.496411472     A.U. after   11 cycles
 SCF Done:  E(RB3LYP) =  -352.531109191     A.U. after   11 cycles
 SCF Done:  E(RB3LYP) =  -352.540141269     A.U. after   10 cycles
 SCF Done:  E(RB3LYP) =  -352.543603068     A.U. after   10 cycles
 SCF Done:  E(RB3LYP) =  -352.543939890     A.U. after    9 cycles
 SCF Done:  E(RB3LYP) =  -352.544853404     A.U. after   10 cycles
 SCF Done:  E(RB3LYP) =  -352.544019843     A.U. after   11 cycles
 SCF Done:  E(RB3LYP) =  -352.546568068     A.U. after   10 cycles
 SCF Done:  E(RB3LYP) =  -352.547816950     A.U. after   10 cycles
 SCF Done:  E(RB3LYP) =  -352.549074496     A.U. after   10 cycles
 SCF Done:  E(RB3LYP) =  -352.549141263     A.U. after    9 cycles
 SCF Done:  E(RB3LYP) =  -352.549175198     A.U. after    8 cycles
 SCF Done:  E(RB3LYP) =  -352.549177440     A.U. after    7 cycles
 SCF Done:  E(RB3LYP) =  -352.549177655     A.U. after    6 cycles
 SCF Done:  E(RB3LYP) =  -352.549177713     A.U. after    5 cycles
 Optimization completed.
    -- Stationary point found.
 Normal termination of Gaussian 16 at Sun May 28 13:41:10 2023.

 ----------------------------------------------------------------------
 #N Geom=AllCheck Guess=TCheck SCRF=Check GenChk RB3LYP/6-31G(2df,p) Fr
 eq
 ----------------------------------------------------------------------

 Structure from the checkpoint file:  "CCCC1C2CC1qCrC2.chk"
 -------------------
 Title Card Required
 -------------------
 Charge =  0 Multiplicity = 1

                         Standard orientation:
 ---------------------------------------------------------------------
 Center     Atomic      Atomic             Coordinates (Angstroms)
 Number     Number       Type             X           Y           Z
 ---------------------------------------------------------------------
      1          6           0        3.613783    0.040855    0.184092
      2          6           0        2.216719    0.288542   -0.390957
      3          6           0        1.172798   -0.721828    0.107808
      4          6           0       -0.203255   -0.512801   -0.514509
      5          6           0       -1.450200   -1.334206   -0.060893
      6          6           0       -2.317830   -0.256090   -0.766298
      7          6           0       -1.240061    0.540300    0.034480
      8          6           0       -1.094296    2.038199    0.112840
      9          6           0       -1.530472   -0.445855    1.211976
     10          1           0        4.337564    0.770879   -0.191969
     11          1           0        3.979037   -0.957671   -0.081456
     12          1           0        3.610412    0.108962    1.277823
     13          1           0        2.260209    0.250096   -1.487535
     14          1           0        1.891920    1.305748   -0.138398
     15          1           0        1.131557   -0.682798    1.202245
     16          1           0        1.516846   -1.735844   -0.142446
     17          1           0       -0.098557   -0.469327   -1.607439
     18          1           0       -1.575591   -2.416780   -0.116744
     19          1           0       -3.350612   -0.156596   -0.419268
     20          1           0       -2.254667   -0.206679   -1.857843
     21          1           0       -2.008065    2.500347    0.503504
     22          1           0       -0.898142    2.468845   -0.875507
     23          1           0       -0.269201    2.325844    0.773722
     24          1           0       -2.517232   -0.356655    1.676773
     25          1           0       -0.758591   -0.571072    1.973306
 ---------------------------------------------------------------------

 SCF Done:  E(RB3LYP) =  -352.549177713     A.U. after    1 cycles

 The electronic state is 1-A.
 Alpha  occ. eigenvalues --  -10.19813 -10.19044 -10.18174 -10.17671 -10.17600
 Alpha  occ. eigenvalues --  -10.17558 -10.17157 -10.17149 -10.16956  -0.90319
 Alpha  occ. eigenvalues --   -0.78200  -0.72107  -0.70313  -0.65817  -0.62200
 Alpha  occ. eigenvalues --   -0.58329  -0.57613  -0.51618  -0.46786  -0.45450
 Alpha  occ. eigenvalues --   -0.44227  -0.43406  -0.41052  -0.40598  -0.39385
 Alpha  occ. eigenvalues --   -0.37671  -0.36632  -0.34009  -0.33509  -0.32455
 Alpha  occ. eigenvalues --   -0.30706  -0.29855  -0.29392  -0.29038  -0.28099
 Alpha virt. eigenvalues --    0.08586   0.11050   0.11708   0.12159   0.13521
 Alpha virt. eigenvalues --    0.14433   0.15191   0.15322   0.15880   0.16134
 Alpha virt. eigenvalues --    0.16757   0.17172   0.17800   0.18138   0.18546

 Mulliken charges:
               1
     1  C   -0.380184
     2  C   -0.160552
     3  C   -0.235357
     4  C    0.033271
     5  C   -0.072589
     6  C   -0.254209
     7  C    0.335998
     8  C   -0.513473
     9  C   -0.263077
    10  H    0.109467
    11  H    0.112843
    12  H    0.112485
    13  H    0.093383
    14  H    0.099111
    15  H    0.092424
    16  H    0.091625
    17  H    0.051250
    18  H    0.062971
    19  H    0.082246
    20  H    0.082036
    21  H    0.114892
    22  H    0.115958
    23  H    0.118178
    24  H    0.083052
    25  H    0.088251
 Sum of Mulliken charges =  -0.00000

 Dipole moment (field-independent basis, Debye):
    X=              0.1246    Y=              0.1937    Z=             -0.0081  Tot=              0.2304
 Quadrupole moment (field-independent basis, Debye-Ang):
   XX=            -58.7559   YY=            -58.2690   ZZ=            -57.9135
   XY=             -0.4088   XZ=             -0.3185   YZ=              0.2176

  Exact polarizability: 108.450   0.077  89.040  -0.161  -0.250  85.088
 Approx polarizability: 135.671  -0.858 129.562  -1.040   0.176 132.664

                      1                      2                      3
                      A                      A                      A
 Frequencies --     68.2125                80.3203               118.8371
 Red. masses --      1.6208                 2.8096                 2.7146
 Frc consts  --      0.0044                 0.0107                 0.0226
 IR Inten    --      0.0024                 0.0053                 0.0171

                      4                      5                      6
                      A                      A                      A
 Frequencies --    211.1211               229.7767               245.9448
 Red. masses --      1.0474                 2.2959                 1.1475
 Frc consts  --      0.0275                 0.0714                 0.0409
 IR Inten    --      0.0031                 0.0239                 0.0043

                      7                      8                      9
                      A                      A                      A
 Frequencies --    295.5569               324.4799               353.1008
 Red. masses --      2.2974                 3.1403                 2.5077
 Frc consts  --      0.1182                 0.1948                 0.1842
 IR Inten    --      0.0272                 0.0512                 0.1359

                     10                     11                     12
                      A                      A                      A
 Frequencies --    390.3243               565.9049               590.8251
 Red. masses --      2.5733                 1.8194                 2.4684
 Frc consts  --      0.2310                 0.3433                 0.5077
 IR Inten    --      0.1243                 0.6615                 1.3637

                     13                     14                     15
                      A                      A                      A
 Frequencies --    628.3907               727.1006               760.7509
 Red. masses --      3.0478                 1.5036                 1.7743
 Frc consts  --      0.7091                 0.4683                 0.6050
 IR Inten    --      0.2087                 1.3629                 0.7858

                     16                     17                     18
                      A                      A                      A
 Frequencies --    785.9086               840.1007               895.4173
 Red. masses --      2.3114                 2.4468                 2.2617
 Frc consts  --      0.8411                 1.0175                 1.0684
 IR Inten    --      0.4005                 0.1415                 1.4835

                     19                     20                     21
                      A                      A                      A
 Frequencies --    905.2055               907.8132               912.7855
 Red. masses --      1.8645                 1.6349                 1.6580
 Frc consts  --      0.9001                 0.7938                 0.8139
 IR Inten    --      0.1352                 0.1321                 0.5657

                     22                     23                     24
                      A                      A                      A
 Frequencies --    957.4833              1003.7625              1018.2921
 Red. masses --      2.2455                 1.0892                 1.3022
 Frc consts  --      1.2129                 0.6466                 0.7955
 IR Inten    --      0.3644                 0.4887                 0.8658

                     25                     26                     27
                      A                      A                      A
 Frequencies --   1024.8312              1046.5680              1066.5021
 Red. masses --      1.1807                 2.5238                 1.3502
 Frc consts  --      0.7306                 1.6287                 0.9049
 IR Inten    --      1.4390                 0.3298                 1.4942

                     28                     29                     30
                      A                      A                      A
 Frequencies --   1069.4969              1124.2438              1130.6080
 Red. masses --      1.6640                 2.0403                 1.5103
 Frc consts  --      1.1214                 1.5194                 1.1375
 IR Inten    --      2.7090                 0.8923                 0.2661

                     31                     32                     33
                      A                      A                      A
 Frequencies --   1152.8930              1157.6735              1179.8712
 Red. masses --      1.7465                 1.9469                 1.6287
 Frc consts  --      1.3677                 1.5374                 1.3359
 IR Inten    --      1.1283                 1.6669                 0.1546

                     34                     35                     36
                      A                      A                      A
 Frequencies --   1201.5597              1228.3850              1229.1120
 Red. masses --      1.6762                 1.9137                 1.7369
 Frc consts  --      1.4258                 1.7013                 1.5460
 IR Inten    --      0.8296                 2.7074                 3.8881

                     37                     38                     39
                      A                      A                      A
 Frequencies --   1248.6522              1267.5807              1300.7415
 Red. masses --      1.8176                 1.4303                 1.5637
 Frc consts  --      1.6697                 1.3541                 1.5588
 IR Inten    --      0.0320                 0.4514                 6.8582

                     40                     41                     42
                      A                      A                      A
 Frequencies --   1323.3269              1333.3208              1385.0509
 Red. masses --      1.7394                 1.2983                 1.4737
 Frc consts  --      1.7947                 1.3598                 1.6657
 IR Inten    --     12.9340                 7.5515                 0.5330

                     43                     44                     45
                      A                      A                      A
 Frequencies --   1408.0966              1411.5499              1431.1994
 Red. masses --      1.3425                 1.2430                 1.3894
 Frc consts  --      1.5683                 1.4592                 1.6767
 IR Inten    --      3.0469                 0.9208                 5.6783

                     46                     47                     48
                      A                      A                      A
 Frequencies --   1480.0870              1488.5606              1490.2939
 Red. masses --      1.0740                 1.0540                 1.0570
 Frc consts  --      1.3862                 1.3760                 1.3831
 IR Inten    --      0.0992                 6.0471                 3.1903

                     49                     50                     51
                      A                      A                      A
 Frequencies --   1493.5607              1499.4473              1502.7227
 Red. masses --      1.0528                 1.0411                 1.0921
 Frc consts  --      1.3837                 1.3792                 1.4531
 IR Inten    --      1.7353                 5.8469                 0.3999

                     52                     53                     54
                      A                      A                      A
 Frequencies --   1510.7042              1544.4104              3001.5964
 Red. masses --      1.0854                 1.1778                 1.0776
 Frc consts  --      1.4595                 1.6551                 5.7203
 IR Inten    --      2.3575                 2.3487                21.3252

                     55                     56                     57
                      A                      A                      A
 Frequencies --   3005.8435              3017.8955              3022.4334
 Red. masses --      1.0703                 1.0621                 1.0365
 Frc consts  --      5.6976                 5.6991                 5.5789
 IR Inten    --     27.6126                24.6010                32.3030

                     58                     59                     60
                      A                      A                      A
 Frequencies --   3027.2124              3038.0471              3043.3364
 Red. masses --      1.0360                 1.0548                 1.0887
 Frc consts  --      5.5939                 5.7358                 5.9410
 IR Inten    --     38.3503                52.6201                20.2616

                     61                     62                     63
                      A                      A                      A
 Frequencies --   3052.0959              3065.4001              3088.0949
 Red. masses --      1.0627                 1.0968                 1.1007
 Frc consts  --      5.8324                 6.0722                 6.1847
 IR Inten    --     19.0278                44.6111                22.5393

                     64                     65                     66
                      A                      A                      A
 Frequencies --   3090.6762              3094.2721              3096.7846
 Red. masses --      1.1008                 1.1021                 1.0920
 Frc consts  --      6.1955                 6.2170                 6.1702
 IR Inten    --     15.0777                51.0662                78.6265

                     67                     68                     69
                      A                      A                      A
 Frequencies --   3099.1237              3102.6774              3117.9025
 Red. masses --      1.1009                 1.1099                 1.1045
 Frc consts  --      6.2297                 6.2949                 6.3263
 IR Inten    --     35.1668                59.2769                49.1699

 - Thermochemistry -
 -------------------
 Temperature   298.150 Kelvin.  Pressure   1.00000 Atm.
 Atom     1 has atomic number  6 and mass  12.00000

 Molecular mass:   124.12520 amu.
 Principal axes and moments of inertia in atomic units:
                           1         2         3
     Eigenvalues --   607.562071874.567422121.34461
           X            0.99998  -0.00571   0.00186
           Y            0.00572   0.99997  -0.00566
           Z           -0.00182   0.00567   0.99998
 This molecule is an asymmetric top.
 Rotational symmetry number  1.
 Warning -- assumption of classical behavior for rotation
           may cause significant error
 Rotational temperatures (Kelvin)      0.14256     0.04620     0.04083
 Rotational constants (GHZ):           2.97046     0.96275     0.85075
 Zero-point vibrational energy     601194.4 (Joules/Mol)
                                  143.68891 (Kcal/Mol)
 Warning -- explicit consideration of  12 degrees of freedom as
           vibrations may cause significant error
 Vibrational temperatures:     98.14   115.56   170.98   303.76   330.60
          (Kelvin)            353.86   425.24   466.85   508.03   561.59
                              814.21   850.07   904.11  1046.14  1094.55
                             1130.75  1208.72  1288.31  1302.39  1306.14
                             1313.29  1377.60  1444.19  1465.10  1474.50
                             1505.78  1534.46  1538.77  1617.54  1626.69
                             1658.76  1665.63  1697.57  1728.78  1767.37
                             1768.42  1796.53  1823.77  1871.48  1903.97
                             1918.35  1992.78  2025.94  2030.91  2059.18
                             2129.52  2141.71  2144.20  2148.90  2157.37
                             2162.08  2173.57  2222.06  4318.63  4324.74
                             4342.08  4348.61  4355.48  4371.07  4378.68
                             4391.29  4410.43  4443.08  4446.79  4451.97
                             4455.58  4458.95  4464.06  4485.97

 Zero-point correction=                           0.228983 (Hartree/Particle)
 Thermal correction to Energy=                    0.238683
 Thermal correction to Enthalpy=                  0.239628
 Thermal correction to Gibbs Free Energy=         0.194251
 Sum of electronic and zero-point Energies=           -352.320195
 Sum of electronic and thermal Energies=              -352.310494
 Sum of electronic and thermal Enthalpies=            -352.309550
 Sum of electronic and thermal Free Energies=         -352.354927

                     E (Thermal)             CV                S
                      KCal/Mol        Cal/Mol-Kelvin    Cal/Mol-Kelvin
 Total                  149.776             37.446             95.504
 Electronic               0.000              0.000              0.000
 Translational            0.889              2.981             40.362
 Rotational               0.889              2.981             29.270
 Vibrational            147.999             31.485             25.872
 Vibration     1          0.598              1.969              4.204
 Vibration     2          0.600              1.963              3.883
 Vibration     3          0.609              1.934              3.119
 Vibration     4          0.643              1.824              2.034
 Vibration     5          0.652              1.796              1.881
 Vibration     6          0.660              1.769              1.759
 Vibration     7          0.690              1.682              1.442
 Vibration     8          0.709              1.626              1.287
 Vibration     9          0.729              1.569              1.152
 Vibration    10          0.758              1.491              0.999
 Vibration    11          0.922              1.105              0.512
 Vibration    12          0.948              1.051              0.466

                           ! Non-Optimized Parameters !
 Normal termination of Gaussian 16 at Sun May 28 14:21:54 2023.
