 Gaussian 16, Revision A.03,
 Gaussian 16:  ES64L-G16RevA.03 25-Dec-2016

 -----------------------------
 # opt freq b3lyp/6-31g(2df,p)
 -----------------------------

 -------------------
 Title Card Required
 -------------------
 Symbolic Z-matrix:
 Charge =  0 Multiplicity = 1

 SCF Done:  E(RB3LYP) =  -355.050939934     A.U. after   11 cycles
 SCF Done:  E(RB3LYP) =  -355.054086131     A.U. after   10 cycles
 SCF Done:  E(RB3LYP) =  -355.054579335     A.U. after    8 cycles
 SCF Done:  E(RB3LYP) =  -355.054631509     A.U. after    8 cycles
 SCF Done:  E(RB3LYP) =  -355.054635283     A.U. after    8 cycles
 SCF Done:  E(RB3LYP) =  -355.054637088     A.U. after    6 cycles
 SCF Done:  E(RB3LYP) =  -355.054637156     A.U. after    5 cycles
 SCF Done:  E(RB3LYP) =  -355.054637175     A.U. after    5 cycles
 Optimization completed.
    -- Stationary point found.
 Normal termination of Gaussian 16 at Sun May 28 06:04:44 2023.

 ----------------------------------------------------------------------
 #N Geom=AllCheck Guess=TCheck SCRF=Check GenChk RB3LYP/6-31G(2df,p) Fr
 eq
 ----------------------------------------------------------------------

 Structure from the checkpoint file:  "CCCCCqCrCCC.chk"
 -------------------
 Title Card Required
 -------------------
 Charge =  0 Multiplicity = 1

                         Standard orientation:
 ---------------------------------------------------------------------
 Center     Atomic      Atomic             Coordinates (Angstroms)
 Number     Number       Type             X           Y           Z
 ---------------------------------------------------------------------
      1          6           0       -4.561626   -0.163287   -0.274678
      2          6           0       -3.222783   -0.691788    0.247150
      3          6           0       -2.022772    0.147680   -0.207048
      4          6           0       -0.684043   -0.384218    0.318626
      5          6           0        0.569709    0.352858   -0.192040
      6          6           0        0.605266    1.815194    0.277439
      7          6           0        1.838724   -0.415517    0.225654
      8          6           0        3.148430    0.082496   -0.397991
      9          6           0        4.351232   -0.788309   -0.021902
     10          1           0       -5.397477   -0.783085    0.065092
     11          1           0       -4.581793   -0.149222   -1.370262
     12          1           0       -4.745026    0.860524    0.070378
     13          1           0       -3.084185   -1.729792   -0.083563
     14          1           0       -3.244950   -0.725906    1.344632
     15          1           0       -2.174058    1.184740    0.118038
     16          1           0       -1.996601    0.175010   -1.305903
     17          1           0       -0.599820   -1.444359    0.042702
     18          1           0       -0.690162   -0.360401    1.418397
     19          1           0        0.529146    0.351089   -1.292433
     20          1           0        0.646354    1.869461    1.372578
     21          1           0       -0.280454    2.367159   -0.049298
     22          1           0        1.477874    2.345469   -0.114112
     23          1           0        1.708880   -1.473364   -0.041658
     24          1           0        1.927498   -0.392618    1.321986
     25          1           0        3.344924    1.116009   -0.089658
     26          1           0        3.041577    0.105908   -1.491013
     27          1           0        4.501384   -0.807880    1.063453
     28          1           0        5.273927   -0.415872   -0.478136
     29          1           0        4.210134   -1.823522   -0.352474
 ---------------------------------------------------------------------

 SCF Done:  E(RB3LYP) =  -355.054637175     A.U. after    1 cycles

 The electronic state is 1-A.
 Alpha  occ. eigenvalues --  -10.17904 -10.17433 -10.17390 -10.17147 -10.17015
 Alpha  occ. eigenvalues --  -10.17014 -10.16870 -10.16861 -10.16603  -0.81314
 Alpha  occ. eigenvalues --   -0.78199  -0.75191  -0.70250  -0.67179  -0.63297
 Alpha  occ. eigenvalues --   -0.58656  -0.56709  -0.55039  -0.47098  -0.45799
 Alpha  occ. eigenvalues --   -0.43689  -0.43368  -0.41672  -0.40913  -0.39506
 Alpha  occ. eigenvalues --   -0.38188  -0.37519  -0.36152  -0.35035  -0.34478
 Alpha  occ. eigenvalues --   -0.34102  -0.32707  -0.32448  -0.31601  -0.31205
 Alpha  occ. eigenvalues --   -0.30613  -0.29085
 Alpha virt. eigenvalues --    0.08620   0.09977   0.11186   0.11368   0.11971
 Alpha virt. eigenvalues --    0.13685   0.14403   0.14733   0.15799   0.16627
 Alpha virt. eigenvalues --    0.17252   0.17706   0.18209   0.18997   0.19501

 Mulliken charges:
               1
     1  C   -0.380010
     2  C   -0.160699
     3  C   -0.172385
     4  C   -0.178941
     5  C    0.024879
     6  C   -0.389612
     7  C   -0.158455
     8  C   -0.176592
     9  C   -0.377860
    10  H    0.109385
    11  H    0.112191
    12  H    0.112223
    13  H    0.092559
    14  H    0.093066
    15  H    0.094541
    16  H    0.088556
    17  H    0.085860
    18  H    0.087241
    19  H    0.064707
    20  H    0.108022
    21  H    0.113288
    22  H    0.112916
    23  H    0.085381
    24  H    0.086706
    25  H    0.097684
    26  H    0.091772
    27  H    0.112608
    28  H    0.108905
    29  H    0.112063
 Sum of Mulliken charges =  -0.00000

 Dipole moment (field-independent basis, Debye):
    X=              0.0004    Y=             -0.0050    Z=             -0.0423  Tot=              0.0426
 Quadrupole moment (field-independent basis, Debye-Ang):
   XX=            -62.5611   YY=            -61.5325   ZZ=            -60.7473
   XY=              0.4056   XZ=             -0.2864   YZ=              0.4365

  Exact polarizability: 124.929  -0.648  92.297  -0.015  -0.337  86.603
 Approx polarizability: 137.007   0.275 134.525  -0.249   0.592 135.081

                      1                      2                      3
                      A                      A                      A
 Frequencies --     44.6767                57.7886                74.9420
 Red. masses --      2.0183                 1.7993                 2.0460
 Frc consts  --      0.0024                 0.0035                 0.0068
 IR Inten    --      0.0037                 0.0028                 0.0055

                      4                      5                      6
                      A                      A                      A
 Frequencies --     93.9562               110.1534               137.2624
 Red. masses --      2.7098                 2.3303                 1.7875
 Frc consts  --      0.0141                 0.0167                 0.0198
 IR Inten    --      0.0030                 0.0218                 0.0163

                      7                      8                      9
                      A                      A                      A
 Frequencies --    191.8493               230.3222               245.8294
 Red. masses --      2.7503                 1.1273                 1.1104
 Frc consts  --      0.0596                 0.0352                 0.0395
 IR Inten    --      0.0009                 0.0046                 0.0040

                     10                     11                     12
                      A                      A                      A
 Frequencies --    252.3794               278.9641               312.2443
 Red. masses --      1.1439                 3.8022                 2.4188
 Frc consts  --      0.0429                 0.1743                 0.1389
 IR Inten    --      0.0022                 0.0380                 0.0325

                     13                     14                     15
                      A                      A                      A
 Frequencies --    335.8793               409.2773               482.5563
 Red. masses --      2.5873                 2.0907                 2.4923
 Frc consts  --      0.1720                 0.2063                 0.3419
 IR Inten    --      0.1168                 0.0464                 0.2506

                     16                     17                     18
                      A                      A                      A
 Frequencies --    512.9186               733.7300               743.6767
 Red. masses --      2.5624                 1.0828                 1.1146
 Frc consts  --      0.3972                 0.3435                 0.3632
 IR Inten    --      0.0508                 1.3758                 3.8994

                     19                     20                     21
                      A                      A                      A
 Frequencies --    785.8708               836.3742               869.0332
 Red. masses --      1.2440                 1.9664                 1.3639
 Frc consts  --      0.4527                 0.8104                 0.6069
 IR Inten    --      0.1791                 0.4774                 0.8528

                     22                     23                     24
                      A                      A                      A
 Frequencies --    897.6111               905.2723               915.3822
 Red. masses --      1.9881                 1.8185                 1.2210
 Frc consts  --      0.9438                 0.8781                 0.6028
 IR Inten    --      0.5655                 1.4529                 1.4216

                     25                     26                     27
                      A                      A                      A
 Frequencies --    956.3896              1000.2850              1023.2842
 Red. masses --      1.8459                 1.2293                 2.6723
 Frc consts  --      0.9948                 0.7247                 1.6486
 IR Inten    --      3.7785                 0.0726                 0.2269

                     28                     29                     30
                      A                      A                      A
 Frequencies --   1041.3953              1056.5507              1065.2395
 Red. masses --      2.5296                 1.3522                 2.3144
 Frc consts  --      1.6163                 0.8893                 1.5473
 IR Inten    --      0.3001                 0.2761                 0.0703

                     31                     32                     33
                      A                      A                      A
 Frequencies --   1082.7495              1100.1358              1162.5881
 Red. masses --      2.4584                 1.8269                 2.6914
 Frc consts  --      1.6981                 1.3027                 2.1433
 IR Inten    --      0.1694                 1.9013                 0.0374

                     34                     35                     36
                      A                      A                      A
 Frequencies --   1178.5188              1202.5761              1241.8749
 Red. masses --      1.8393                 2.0061                 1.4581
 Frc consts  --      1.5051                 1.7093                 1.3249
 IR Inten    --      8.0595                 0.0073                 3.6375

                     37                     38                     39
                      A                      A                      A
 Frequencies --   1264.6322              1279.5552              1305.3417
 Red. masses --      1.3173                 1.2785                 1.2786
 Frc consts  --      1.2413                 1.2333                 1.2836
 IR Inten    --      1.5406                 0.7890                 0.1366

                     40                     41                     42
                      A                      A                      A
 Frequencies --   1317.7773              1329.0455              1333.5414
 Red. masses --      1.1953                 1.1031                 1.0891
 Frc consts  --      1.2230                 1.1480                 1.1411
 IR Inten    --      0.1272                 0.3543                 0.6708

                     43                     44                     45
                      A                      A                      A
 Frequencies --   1348.1130              1379.0279              1381.2213
 Red. masses --      1.3229                 1.4100                 1.3467
 Frc consts  --      1.4166                 1.5799                 1.5137
 IR Inten    --      1.6567                 2.1462                 2.3327

                     46                     47                     48
                      A                      A                      A
 Frequencies --   1393.4334              1400.7567              1410.3551
 Red. masses --      1.5785                 1.4824                 1.2468
 Frc consts  --      1.8058                 1.7137                 1.4611
 IR Inten    --      0.2735                 2.0731                 1.5700

                     49                     50                     51
                      A                      A                      A
 Frequencies --   1412.8796              1415.8986              1474.3809
 Red. masses --      1.2431                 1.2844                 1.0776
 Frc consts  --      1.4621                 1.5171                 1.3802
 IR Inten    --      0.1596                 6.0144                 0.1191

                     52                     53                     54
                      A                      A                      A
 Frequencies --   1484.2721              1486.3173              1493.6032
 Red. masses --      1.0720                 1.0687                 1.0626
 Frc consts  --      1.3915                 1.3910                 1.3966
 IR Inten    --      0.0596                 0.6816                 0.4759

                     55                     56                     57
                      A                      A                      A
 Frequencies --   1498.2467              1499.1937              1499.8000
 Red. masses --      1.0598                 1.0593                 1.0407
 Frc consts  --      1.4016                 1.4028                 1.3792
 IR Inten    --      0.6200                 1.0811                 8.0363

                     58                     59                     60
                      A                      A                      A
 Frequencies --   1499.9355              1506.7865              1511.4372
 Red. masses --      1.0515                 1.0539                 1.0800
 Frc consts  --      1.3939                 1.4098                 1.4536
 IR Inten    --      1.9317                 1.8271                 1.0722

                     61                     62                     63
                      A                      A                      A
 Frequencies --   1513.8041              2980.5313              2992.7802
 Red. masses --      1.0817                 1.0801                 1.0589
 Frc consts  --      1.4604                 5.6532                 5.5879
 IR Inten    --      8.5635                 6.4207                 0.5067

                     64                     65                     66
                      A                      A                      A
 Frequencies --   2999.0773              3004.7415              3014.7661
 Red. masses --      1.0603                 1.0612                 1.0628
 Frc consts  --      5.6192                 5.6448                 5.6913
 IR Inten    --     15.3716                10.6335                28.3053

                     67                     68                     69
                      A                      A                      A
 Frequencies --   3016.7049              3024.2199              3027.1915
 Red. masses --      1.0654                 1.0926                 1.0372
 Frc consts  --      5.7124                 5.8877                 5.5999
 IR Inten    --     74.0549                 1.4427                55.9504

                     70                     71                     72
                      A                      A                      A
 Frequencies --   3027.4436              3028.1247              3030.9764
 Red. masses --      1.0383                 1.0445                 1.0890
 Frc consts  --      5.6069                 5.6430                 5.8942
 IR Inten    --     15.0921                22.7437                16.0066

                     73                     74                     75
                      A                      A                      A
 Frequencies --   3037.2317              3057.7812              3062.0945
 Red. masses --      1.1003                 1.1010                 1.1021
 Frc consts  --      5.9804                 6.0654                 6.0887
 IR Inten    --      4.9834                 2.8930                95.8830

                     76                     77                     78
                      A                      A                      A
 Frequencies --   3093.5947              3094.1903              3096.7848
 Red. masses --      1.1020                 1.1019                 1.0961
 Frc consts  --      6.2141                 6.2156                 6.1934
 IR Inten    --     40.7416                85.9237                14.7650

                     79                     80                     81
                      A                      A                      A
 Frequencies --   3098.8504              3099.1896              3110.9262
 Red. masses --      1.1009                 1.1003                 1.1003
 Frc consts  --      6.2289                 6.2266                 6.2740
 IR Inten    --     32.1969                59.8567                40.0276

 - Thermochemistry -
 -------------------
 Temperature   298.150 Kelvin.  Pressure   1.00000 Atm.
 Atom     1 has atomic number  6 and mass  12.00000

 Molecular mass:   128.15650 amu.
 Principal axes and moments of inertia in atomic units:
                           1         2         3
     Eigenvalues --   406.494283740.823523976.98092
           X            1.00000  -0.00193   0.00130
           Y            0.00194   0.99999  -0.00430
           Z           -0.00129   0.00430   0.99999
 This molecule is an asymmetric top.
 Rotational symmetry number  1.
 Rotational temperatures (Kelvin)      0.21308     0.02315     0.02178
 Rotational constants (GHZ):           4.43977     0.48244     0.45380
 Zero-point vibrational energy     717197.7 (Joules/Mol)
                                  171.41437 (Kcal/Mol)
 Warning -- explicit consideration of  16 degrees of freedom as
           vibrations may cause significant error
 Vibrational temperatures:     64.28    83.14   107.82   135.18   158.49
          (Kelvin)            197.49   276.03   331.38   353.69   363.12
                              401.37   449.25   483.26   588.86   694.29
                              737.98  1055.67  1069.98  1130.69  1203.36
                             1250.34  1291.46  1302.48  1317.03  1376.03
                             1439.19  1472.28  1498.34  1520.14  1532.64
                             1557.83  1582.85  1672.70  1695.63  1730.24
                             1786.78  1819.52  1840.99  1878.10  1895.99
                             1912.20  1918.67  1939.63  1984.11  1987.27
                             2004.84  2015.38  2029.19  2032.82  2037.16
                             2121.31  2135.54  2138.48  2148.96  2155.64
                             2157.01  2157.88  2158.07  2167.93  2174.62
                             2178.03  4288.32  4305.94  4315.00  4323.15
                             4337.58  4340.37  4351.18  4355.45  4355.82
                             4356.80  4360.90  4369.90  4399.47  4405.67
                             4450.99  4451.85  4455.58  4458.55  4459.04
                             4475.93

 Zero-point correction=                           0.273166 (Hartree/Particle)
 Thermal correction to Energy=                    0.285693
 Thermal correction to Enthalpy=                  0.286637
 Thermal correction to Gibbs Free Energy=         0.234086
 Sum of electronic and zero-point Energies=           -354.781471
 Sum of electronic and thermal Energies=              -354.768945
 Sum of electronic and thermal Enthalpies=            -354.768000
 Sum of electronic and thermal Free Energies=         -354.820551

                     E (Thermal)             CV                S
                      KCal/Mol        Cal/Mol-Kelvin    Cal/Mol-Kelvin
 Total                  179.275             44.705            110.603
 Electronic               0.000              0.000              0.000
 Translational            0.889              2.981             40.457
 Rotational               0.889              2.981             30.182
 Vibrational            177.497             38.743             39.964
 Vibration     1          0.595              1.980              5.040
 Vibration     2          0.596              1.974              4.531
 Vibration     3          0.599              1.966              4.019
 Vibration     4          0.603              1.954              3.576
 Vibration     5          0.606              1.941              3.266
 Vibration     6          0.614              1.916              2.842
 Vibration     7          0.634              1.851              2.210
 Vibration     8          0.652              1.795              1.876
 Vibration     9          0.660              1.770              1.760
 Vibration    10          0.664              1.759              1.714
 Vibration    11          0.679              1.712              1.540
 Vibration    12          0.701              1.650              1.350
 Vibration    13          0.717              1.604              1.232
 Vibration    14          0.774              1.450              0.929
 Vibration    15          0.839              1.289              0.703
 Vibration    16          0.868              1.221              0.627

                           ! Non-Optimized Parameters !
 Normal termination of Gaussian 16 at Sun May 28 06:44:24 2023.
