 Gaussian 16, Revision A.03,
 Gaussian 16:  ES64L-G16RevA.03 25-Dec-2016

 -----------------------------
 # opt freq b3lyp/6-31g(2df,p)
 -----------------------------

 -------------------
 Title Card Required
 -------------------
 Symbolic Z-matrix:
 Charge =  0 Multiplicity = 1

 SCF Done:  E(RB3LYP) =  -355.047016062     A.U. after   12 cycles
 SCF Done:  E(RB3LYP) =  -355.048487914     A.U. after    9 cycles
 SCF Done:  E(RB3LYP) =  -355.048630909     A.U. after    9 cycles
 SCF Done:  E(RB3LYP) =  -355.048815805     A.U. after    8 cycles
 SCF Done:  E(RB3LYP) =  -355.048821603     A.U. after    8 cycles
 SCF Done:  E(RB3LYP) =  -355.048825611     A.U. after    8 cycles
 SCF Done:  E(RB3LYP) =  -355.048827464     A.U. after    7 cycles
 SCF Done:  E(RB3LYP) =  -355.048829026     A.U. after    7 cycles
 SCF Done:  E(RB3LYP) =  -355.048838808     A.U. after    9 cycles
 SCF Done:  E(RB3LYP) =  -355.004432830     A.U. after   11 cycles
 SCF Done:  E(RB3LYP) =  -355.048978199     A.U. after    9 cycles
 SCF Done:  E(RB3LYP) =  -355.049117565     A.U. after    9 cycles
 SCF Done:  E(RB3LYP) =  -355.049144397     A.U. after    9 cycles
 SCF Done:  E(RB3LYP) =  -355.049183241     A.U. after    9 cycles
 SCF Done:  E(RB3LYP) =  -355.049198528     A.U. after    8 cycles
 SCF Done:  E(RB3LYP) =  -355.049199897     A.U. after    8 cycles
 SCF Done:  E(RB3LYP) =  -355.049200475     A.U. after    7 cycles
 SCF Done:  E(RB3LYP) =  -355.049200515     A.U. after    6 cycles
 SCF Done:  E(RB3LYP) =  -355.049200530     A.U. after    5 cycles
 Optimization completed.
    -- Stationary point found.
 Normal termination of Gaussian 16 at Sun May 28 10:27:16 2023.

 ----------------------------------------------------------------------
 #N Geom=AllCheck Guess=TCheck SCRF=Check GenChk RB3LYP/6-31G(2df,p) Fr
 eq
 ----------------------------------------------------------------------

 Structure from the checkpoint file:  "CCCCqCrCqCrCC.chk"
 -------------------
 Title Card Required
 -------------------
 Charge =  0 Multiplicity = 1

                         Standard orientation:
 ---------------------------------------------------------------------
 Center     Atomic      Atomic             Coordinates (Angstroms)
 Number     Number       Type             X           Y           Z
 ---------------------------------------------------------------------
      1          6           0       -3.946838   -0.565434    0.018324
      2          6           0       -2.732881    0.321779   -0.274543
      3          6           0       -1.414105   -0.314713    0.186536
      4          6           0       -0.138573    0.452352   -0.219066
      5          6           0       -0.185030    1.894907    0.315284
      6          6           0        1.173927   -0.256990    0.230247
      7          6           0        1.129074   -1.786471    0.078307
      8          6           0        2.395944    0.306374   -0.531074
      9          6           0        3.748901    0.025582    0.132380
     10          1           0       -4.877192   -0.093507   -0.313351
     11          1           0       -4.040333   -0.765777    1.091719
     12          1           0       -3.863914   -1.532665   -0.490036
     13          1           0       -2.876318    1.294160    0.209618
     14          1           0       -2.679248    0.523038   -1.353358
     15          1           0       -1.373112   -1.328975   -0.224806
     16          1           0       -1.434148   -0.431002    1.280707
     17          1           0       -0.121908    0.494974   -1.319827
     18          1           0       -0.334250    1.895756    1.402242
     19          1           0       -1.002650    2.466549   -0.131440
     20          1           0        0.737931    2.443441    0.110876
     21          1           0        1.311216   -0.032902    1.299668
     22          1           0        0.883564   -2.072479   -0.951947
     23          1           0        0.392516   -2.249455    0.739213
     24          1           0        2.099476   -2.230782    0.317937
     25          1           0        2.294157    1.389682   -0.652099
     26          1           0        2.392323   -0.108777   -1.548621
     27          1           0        3.791379    0.461353    1.137031
     28          1           0        4.567800    0.458861   -0.450928
     29          1           0        3.950202   -1.045801    0.229027
 ---------------------------------------------------------------------

 SCF Done:  E(RB3LYP) =  -355.049200530     A.U. after    1 cycles

 The electronic state is 1-A.
 Alpha  occ. eigenvalues --  -10.17903 -10.17869 -10.17372 -10.17228 -10.16955
 Alpha  occ. eigenvalues --  -10.16866 -10.16855 -10.16566 -10.16565  -0.81875
 Alpha  occ. eigenvalues --   -0.77787  -0.73960  -0.70984  -0.66956  -0.63540
 Alpha  occ. eigenvalues --   -0.60040  -0.56522  -0.54399  -0.46199  -0.45637
 Alpha  occ. eigenvalues --   -0.43925  -0.43446  -0.41536  -0.40538  -0.39834
 Alpha  occ. eigenvalues --   -0.37875  -0.37327  -0.36189  -0.35911  -0.35190
 Alpha  occ. eigenvalues --   -0.33973  -0.33406  -0.32626  -0.31849  -0.30675
 Alpha  occ. eigenvalues --   -0.29724  -0.29034
 Alpha virt. eigenvalues --    0.08547   0.10136   0.11083   0.11542   0.12633
 Alpha virt. eigenvalues --    0.13760   0.14539   0.15601   0.16106   0.16536
 Alpha virt. eigenvalues --    0.17007   0.17380   0.17566   0.18660   0.18983

 Mulliken charges:
               1
     1  C   -0.379834
     2  C   -0.175645
     3  C   -0.175630
     4  C    0.026527
     5  C   -0.399095
     6  C    0.058004
     7  C   -0.410628
     8  C   -0.171024
     9  C   -0.388571
    10  H    0.108771
    11  H    0.112350
    12  H    0.111992
    13  H    0.098336
    14  H    0.091575
    15  H    0.093290
    16  H    0.086015
    17  H    0.062023
    18  H    0.109046
    19  H    0.114655
    20  H    0.111534
    21  H    0.060798
    22  H    0.109975
    23  H    0.114834
    24  H    0.108698
    25  H    0.092843
    26  H    0.089756
    27  H    0.112853
    28  H    0.109902
    29  H    0.116652
 Sum of Mulliken charges =  -0.00000

 Dipole moment (field-independent basis, Debye):
    X=              0.0070    Y=              0.0516    Z=             -0.0451  Tot=              0.0688
 Quadrupole moment (field-independent basis, Debye-Ang):
   XX=            -62.2910   YY=            -61.8250   ZZ=            -60.8096
   XY=             -0.1420   XZ=             -0.0797   YZ=              0.1019

  Exact polarizability: 120.335   0.608  95.360  -0.120  -0.027  85.297
 Approx polarizability: 138.727  -0.149 135.027  -0.326   0.384 135.659

                      1                      2                      3
                      A                      A                      A
 Frequencies --     46.1488                68.7935                86.4708
 Red. masses --      3.0263                 1.8914                 1.6254
 Frc consts  --      0.0038                 0.0053                 0.0072
 IR Inten    --      0.0011                 0.0026                 0.0207

                      4                      5                      6
                      A                      A                      A
 Frequencies --    105.1970               138.3907               205.7752
 Red. masses --      2.0794                 2.5727                 1.1738
 Frc consts  --      0.0136                 0.0290                 0.0293
 IR Inten    --      0.0147                 0.0267                 0.0220

                      7                      8                      9
                      A                      A                      A
 Frequencies --    223.2513               244.6555               255.4885
 Red. masses --      1.1707                 1.1619                 1.4063
 Frc consts  --      0.0344                 0.0410                 0.0541
 IR Inten    --      0.0251                 0.0107                 0.0647

                     10                     11                     12
                      A                      A                      A
 Frequencies --    268.8274               305.8104               328.9544
 Red. masses --      1.8293                 2.9032                 1.9763
 Frc consts  --      0.0779                 0.1600                 0.1260
 IR Inten    --      0.0199                 0.0135                 0.0207

                     13                     14                     15
                      A                      A                      A
 Frequencies --    352.1207               375.1278               448.6186
 Red. masses --      2.4609                 2.1580                 2.6020
 Frc consts  --      0.1798                 0.1789                 0.3085
 IR Inten    --      0.0472                 0.0995                 0.1486

                     16                     17                     18
                      A                      A                      A
 Frequencies --    477.9759               525.3381               749.7788
 Red. masses --      2.1570                 2.4178                 1.1304
 Frc consts  --      0.2904                 0.3931                 0.3744
 IR Inten    --      0.2476                 0.2019                 1.8498

                     19                     20                     21
                      A                      A                      A
 Frequencies --    768.9427               808.3875               845.4626
 Red. masses --      1.3244                 1.6937                 2.2303
 Frc consts  --      0.4614                 0.6521                 0.9393
 IR Inten    --      2.5403                 0.1244                 0.0077

                     22                     23                     24
                      A                      A                      A
 Frequencies --    871.4397               901.2421               931.7330
 Red. masses --      1.2551                 1.8488                 1.7606
 Frc consts  --      0.5616                 0.8848                 0.9005
 IR Inten    --      0.7883                 1.2624                 2.7974

                     25                     26                     27
                      A                      A                      A
 Frequencies --    972.7752               991.7596               994.3697
 Red. masses --      1.2000                 1.5805                 1.4577
 Frc consts  --      0.6690                 0.9159                 0.8492
 IR Inten    --      1.2927                 3.0212                 2.6658

                     28                     29                     30
                      A                      A                      A
 Frequencies --   1022.0792              1034.5745              1052.7888
 Red. masses --      1.5368                 2.4933                 2.1921
 Frc consts  --      0.9459                 1.5723                 1.4315
 IR Inten    --      3.7775                 0.0435                 0.7649

                     31                     32                     33
                      A                      A                      A
 Frequencies --   1076.6094              1100.0199              1163.5357
 Red. masses --      2.1221                 1.9702                 2.2239
 Frc consts  --      1.4492                 1.4047                 1.7739
 IR Inten    --      0.5246                 0.2504                 4.3911

                     34                     35                     36
                      A                      A                      A
 Frequencies --   1175.6457              1184.5450              1196.7708
 Red. masses --      2.0025                 1.9473                 2.0431
 Frc consts  --      1.6307                 1.6099                 1.7241
 IR Inten    --      5.6049                 0.1462                 0.1491

                     37                     38                     39
                      A                      A                      A
 Frequencies --   1255.5821              1283.8645              1305.4561
 Red. masses --      1.3724                 1.3064                 1.2267
 Frc consts  --      1.2748                 1.2687                 1.2317
 IR Inten    --      6.3430                 0.6744                 0.2434

                     40                     41                     42
                      A                      A                      A
 Frequencies --   1317.7090              1329.8548              1350.0318
 Red. masses --      1.2807                 1.1405                 1.2578
 Frc consts  --      1.3102                 1.1883                 1.3507
 IR Inten    --      0.5665                 0.9820                 4.3360

                     43                     44                     45
                      A                      A                      A
 Frequencies --   1363.9823              1371.5795              1383.6366
 Red. masses --      1.2827                 1.4291                 1.4044
 Frc consts  --      1.4060                 1.5840                 1.5841
 IR Inten    --      1.5070                 1.5255                 0.5663

                     46                     47                     48
                      A                      A                      A
 Frequencies --   1394.9709              1406.6937              1411.2841
 Red. masses --      1.4945                 1.2525                 1.2370
 Frc consts  --      1.7135                 1.4602                 1.4516
 IR Inten    --      1.7540                 5.8996                 0.2942

                     49                     50                     51
                      A                      A                      A
 Frequencies --   1415.3503              1416.8007              1479.6152
 Red. masses --      1.2337                 1.2243                 1.0711
 Frc consts  --      1.4561                 1.4479                 1.3816
 IR Inten    --      5.1076                 0.3960                 0.2226

                     52                     53                     54
                      A                      A                      A
 Frequencies --   1483.2620              1493.5291              1495.1615
 Red. masses --      1.0665                 1.0557                 1.0447
 Frc consts  --      1.3824                 1.3874                 1.3759
 IR Inten    --      0.5468                 1.0827                 2.2688

                     55                     56                     57
                      A                      A                      A
 Frequencies --   1498.1791              1499.6967              1501.1356
 Red. masses --      1.0556                 1.0410                 1.0535
 Frc consts  --      1.3960                 1.3794                 1.3987
 IR Inten    --      0.2980                 5.9774                 2.7559

                     58                     59                     60
                      A                      A                      A
 Frequencies --   1506.3373              1510.1341              1513.3289
 Red. masses --      1.0488                 1.0742                 1.0625
 Frc consts  --      1.4021                 1.4433                 1.4337
 IR Inten    --      3.3786                 2.6841                 7.4286

                     61                     62                     63
                      A                      A                      A
 Frequencies --   1517.5893              2971.7096              2983.3659
 Red. masses --      1.0553                 1.0793                 1.0815
 Frc consts  --      1.4319                 5.6157                 5.6712
 IR Inten    --      5.9698                 1.0528                16.3691

                     64                     65                     66
                      A                      A                      A
 Frequencies --   2998.5565              3014.7507              3016.8458
 Red. masses --      1.0682                 1.0671                 1.0651
 Frc consts  --      5.6589                 5.7140                 5.7114
 IR Inten    --     14.9647                13.9816                55.7217

                     67                     68                     69
                      A                      A                      A
 Frequencies --   3026.9028              3029.6232              3030.5582
 Red. masses --      1.0357                 1.0402                 1.0424
 Frc consts  --      5.5910                 5.6251                 5.6405
 IR Inten    --     38.2278                32.7238                19.5686

                     70                     71                     72
                      A                      A                      A
 Frequencies --   3032.0555              3051.0283              3064.1453
 Red. masses --      1.0383                 1.0907                 1.0930
 Frc consts  --      5.6241                 5.9823                 6.0466
 IR Inten    --     21.6553                 0.4940                11.1937

                     73                     74                     75
                      A                      A                      A
 Frequencies --   3070.6885              3094.5651              3095.6066
 Red. masses --      1.0972                 1.1017                 1.0977
 Frc consts  --      6.0954                 6.2158                 6.1975
 IR Inten    --     30.7574                30.5326                44.2689

                     76                     77                     78
                      A                      A                      A
 Frequencies --   3095.8188              3098.6091              3100.3389
 Red. masses --      1.1010                 1.0997                 1.0947
 Frc consts  --      6.2174                 6.2210                 6.1997
 IR Inten    --     67.6360                27.4843                21.2159

                     79                     80                     81
                      A                      A                      A
 Frequencies --   3105.3873              3115.8053              3116.3163
 Red. masses --      1.0983                 1.0997                 1.0997
 Frc consts  --      6.2404                 6.2902                 6.2922
 IR Inten    --     76.5289                47.8534                21.8683

 - Thermochemistry -
 -------------------
 Temperature   298.150 Kelvin.  Pressure   1.00000 Atm.
 Atom     1 has atomic number  6 and mass  12.00000

 Molecular mass:   128.15650 amu.
 Principal axes and moments of inertia in atomic units:
                           1         2         3
     Eigenvalues --   560.146842645.010073033.91760
           X            1.00000   0.00107   0.00027
           Y           -0.00107   1.00000   0.00094
           Z           -0.00027  -0.00094   1.00000
 This molecule is an asymmetric top.
 Rotational symmetry number  1.
 Warning -- assumption of classical behavior for rotation
           may cause significant error
 Rotational temperatures (Kelvin)      0.15463     0.03275     0.02855
 Rotational constants (GHZ):           3.22191     0.68232     0.59486
 Zero-point vibrational energy     717262.0 (Joules/Mol)
                                  171.42974 (Kcal/Mol)
 Warning -- explicit consideration of  17 degrees of freedom as
           vibrations may cause significant error
 Vibrational temperatures:     66.40    98.98   124.41   151.35   199.11
          (Kelvin)            296.06   321.21   352.00   367.59   386.78
                              439.99   473.29   506.62   539.73   645.46
                              687.70   755.84  1078.76  1106.34  1163.09
                             1216.43  1253.81  1296.69  1340.56  1399.61
                             1426.92  1430.68  1470.54  1488.52  1514.73
                             1549.00  1582.68  1674.07  1691.49  1704.30
                             1721.89  1806.50  1847.19  1878.26  1895.89
                             1913.36  1942.39  1962.47  1973.40  1990.74
                             2007.05  2023.92  2030.52  2036.37  2038.46
                             2128.84  2134.08  2148.86  2151.20  2155.55
                             2157.73  2159.80  2167.28  2172.75  2177.34
                             2183.47  4275.63  4292.40  4314.25  4337.55
                             4340.57  4355.04  4358.95  4360.30  4362.45
                             4389.75  4408.62  4418.04  4452.39  4453.89
                             4454.19  4458.21  4460.70  4467.96  4482.95
                             4483.68

 Zero-point correction=                           0.273191 (Hartree/Particle)
 Thermal correction to Energy=                    0.285530
 Thermal correction to Enthalpy=                  0.286474
 Thermal correction to Gibbs Free Energy=         0.235135
 Sum of electronic and zero-point Energies=           -354.776010
 Sum of electronic and thermal Energies=              -354.763671
 Sum of electronic and thermal Enthalpies=            -354.762727
 Sum of electronic and thermal Free Energies=         -354.814065

                     E (Thermal)             CV                S
                      KCal/Mol        Cal/Mol-Kelvin    Cal/Mol-Kelvin
 Total                  179.173             45.216            108.051
 Electronic               0.000              0.000              0.000
 Translational            0.889              2.981             40.457
 Rotational               0.889              2.981             29.887
 Vibrational            177.395             39.254             37.706
 Vibration     1          0.595              1.979              4.976
 Vibration     2          0.598              1.969              4.188
 Vibration     3          0.601              1.959              3.738
 Vibration     4          0.605              1.945              3.356
 Vibration     5          0.614              1.915              2.826
 Vibration     6          0.640              1.832              2.081
 Vibration     7          0.649              1.806              1.933
 Vibration     8          0.660              1.772              1.769
 Vibration     9          0.666              1.754              1.692
 Vibration    10          0.673              1.730              1.604
 Vibration    11          0.696              1.663              1.385
 Vibration    12          0.712              1.618              1.265
 Vibration    13          0.729              1.571              1.157
 Vibration    14          0.746              1.523              1.059
 Vibration    15          0.808              1.364              0.800
 Vibration    16          0.834              1.299              0.716
 Vibration    17          0.880              1.194              0.598

 Optimization completed.
    -- Stationary point found.
 Normal termination of Gaussian 16 at Sun May 28 11:10:57 2023.
