 Gaussian 16, Revision A.03,
 Gaussian 16:  ES64L-G16RevA.03 25-Dec-2016

 -----------------------------
 # opt freq b3lyp/6-31g(2df,p)
 -----------------------------

 -------------------
 Title Card Required
 -------------------
 Symbolic Z-matrix:
 Charge =  0 Multiplicity = 1

 SCF Done:  E(RB3LYP) =  -586.305369906     A.U. after   12 cycles
 SCF Done:  E(RB3LYP) =  -586.311190294     A.U. after   10 cycles
 SCF Done:  E(RB3LYP) =  -586.312894952     A.U. after   10 cycles
 SCF Done:  E(RB3LYP) =  -586.313577002     A.U. after   10 cycles
 SCF Done:  E(RB3LYP) =  -586.313787223     A.U. after   10 cycles
 SCF Done:  E(RB3LYP) =  -586.313960942     A.U. after   10 cycles
 SCF Done:  E(RB3LYP) =  -586.314315059     A.U. after   11 cycles
 SCF Done:  E(RB3LYP) =  -586.314553759     A.U. after   10 cycles
 SCF Done:  E(RB3LYP) =  -586.314083322     A.U. after   11 cycles
 SCF Done:  E(RB3LYP) =  -586.315118617     A.U. after   11 cycles
 SCF Done:  E(RB3LYP) =  -586.315748980     A.U. after    9 cycles
 SCF Done:  E(RB3LYP) =  -586.315808521     A.U. after    9 cycles
 SCF Done:  E(RB3LYP) =  -586.315829623     A.U. after    9 cycles
 SCF Done:  E(RB3LYP) =  -586.315839248     A.U. after    8 cycles
 SCF Done:  E(RB3LYP) =  -586.315844053     A.U. after    8 cycles
 SCF Done:  E(RB3LYP) =  -586.315844354     A.U. after    8 cycles
 SCF Done:  E(RB3LYP) =  -586.315844769     A.U. after    7 cycles
 SCF Done:  E(RB3LYP) =  -586.315844857     A.U. after    6 cycles
 SCF Done:  E(RB3LYP) =  -586.315844880     A.U. after    6 cycles
 Optimization completed.
    -- Stationary point found.
 Normal termination of Gaussian 16 at Mon May 22 14:11:31 2023.

 ----------------------------------------------------------------------
 #N Geom=AllCheck Guess=TCheck SCRF=Check GenChk RB3LYP/6-31G(2df,p) Fr
 eq
 ----------------------------------------------------------------------

 Structure from the checkpoint file:  "CCCC1CCCC1CCCqCrOC.chk"
 -------------------
 Title Card Required
 -------------------
 Charge =  0 Multiplicity = 1

                         Standard orientation:
 ---------------------------------------------------------------------
 Center     Atomic      Atomic             Coordinates (Angstroms)
 Number     Number       Type             X           Y           Z
 ---------------------------------------------------------------------
      1          6           0        3.046462    3.430408    0.456057
      2          6           0        2.755978    2.143869   -0.322114
      3          6           0        2.019082    1.091513    0.515233
      4          6           0        1.679109   -0.198213   -0.243369
      5          6           0        2.918171   -0.981955   -0.738314
      6          6           0        2.440369   -2.436325   -0.821221
      7          6           0        1.585003   -2.583752    0.446618
      8          6           0        0.846131   -1.224038    0.600249
      9          6           0       -0.628026   -1.323924    0.165866
     10          6           0       -1.430452   -0.031184    0.347986
     11          6           0       -2.883037   -0.106864   -0.133302
     12          6           0       -3.747097   -1.066596    0.689954
     13          8           0       -3.380357    1.227173   -0.069283
     14          6           0       -4.535289    1.469956   -0.834331
     15          1           0        3.569525    4.165062   -0.164396
     16          1           0        3.672558    3.229753    1.332823
     17          1           0        2.120315    3.894673    0.813027
     18          1           0        3.698102    1.724614   -0.696455
     19          1           0        2.155524    2.381280   -1.210822
     20          1           0        1.095769    1.536062    0.909320
     21          1           0        2.628561    0.835323    1.394600
     22          1           0        1.083867    0.076309   -1.126068
     23          1           0        3.726075   -0.902606    0.002435
     24          1           0        3.312253   -0.600700   -1.684847
     25          1           0        3.258530   -3.160706   -0.876441
     26          1           0        1.821824   -2.577462   -1.716760
     27          1           0        2.241406   -2.753494    1.307994
     28          1           0        0.893032   -3.430803    0.402909
     29          1           0        0.859142   -0.917767    1.653721
     30          1           0       -1.098114   -2.131572    0.740313
     31          1           0       -0.670413   -1.635667   -0.888334
     32          1           0       -0.958118    0.788957   -0.202842
     33          1           0       -1.429067    0.264457    1.405644
     34          1           0       -2.889113   -0.436044   -1.188051
     35          1           0       -3.746618   -0.765639    1.742780
     36          1           0       -3.370476   -2.091154    0.621067
     37          1           0       -4.782361   -1.077106    0.337458
     38          1           0       -4.736012    2.543453   -0.782143
     39          1           0       -5.420676    0.936235   -0.458102
     40          1           0       -4.391080    1.189793   -1.890446
 ---------------------------------------------------------------------

 SCF Done:  E(RB3LYP) =  -586.315844880     A.U. after    1 cycles

 The electronic state is 1-A.
 Alpha  occ. eigenvalues --  -19.12981 -10.22612 -10.21827 -10.17566 -10.17455
 Alpha  occ. eigenvalues --  -10.17425 -10.17253 -10.17143 -10.17049 -10.17017
 Alpha  occ. eigenvalues --  -10.16967 -10.16940 -10.16934 -10.16708  -1.02238
 Alpha  occ. eigenvalues --   -0.83731  -0.78974  -0.77674  -0.73790  -0.71512
 Alpha  occ. eigenvalues --   -0.68882  -0.67642  -0.64663  -0.61260  -0.58159
 Alpha  occ. eigenvalues --   -0.56431  -0.55706  -0.53890  -0.48603  -0.47052
 Alpha  occ. eigenvalues --   -0.46504  -0.45898  -0.45104  -0.44638  -0.43407
 Alpha  occ. eigenvalues --   -0.41515  -0.40461  -0.39892  -0.39298  -0.38723
 Alpha  occ. eigenvalues --   -0.37960  -0.36701  -0.36297  -0.35932  -0.34135
 Alpha  occ. eigenvalues --   -0.33811  -0.32936  -0.32686  -0.32144  -0.31345
 Alpha  occ. eigenvalues --   -0.30984  -0.30450  -0.30251  -0.29396  -0.28797
 Alpha  occ. eigenvalues --   -0.24679
 Alpha virt. eigenvalues --    0.08271   0.09045   0.09547   0.09815   0.11206
 Alpha virt. eigenvalues --    0.12136   0.13000   0.13166   0.14032   0.14295
 Alpha virt. eigenvalues --    0.14881   0.15174   0.15884   0.16498   0.16861

 Mulliken charges:
               1
     1  C   -0.380184
     2  C   -0.170214
     3  C   -0.191985
     4  C    0.043436
     5  C   -0.212655
     6  C   -0.208426
     7  C   -0.228977
     8  C    0.006662
     9  C   -0.206799
    10  C   -0.199221
    11  C    0.138408
    12  C   -0.399795
    13  O   -0.247429
    14  C   -0.234941
    15  H    0.108554
    16  H    0.111658
    17  H    0.114367
    18  H    0.097083
    19  H    0.092538
    20  H    0.096783
    21  H    0.086035
    22  H    0.061948
    23  H    0.089451
    24  H    0.091361
    25  H    0.089211
    26  H    0.093863
    27  H    0.091120
    28  H    0.086085
    29  H    0.061015
    30  H    0.092620
    31  H    0.088580
    32  H    0.105778
    33  H    0.096814
    34  H    0.057394
    35  H    0.120277
    36  H    0.118885
    37  H    0.113734
    38  H    0.124186
    39  H    0.103518
    40  H    0.099263
 Sum of Mulliken charges =  -0.00000

 Dipole moment (field-independent basis, Debye):
    X=             -0.3631    Y=             -0.7906    Z=             -0.5504  Tot=              1.0295
 Quadrupole moment (field-independent basis, Debye-Ang):
   XX=            -87.0166   YY=            -92.7204   ZZ=            -90.2011
   XY=              0.9412   XZ=              2.7154   YZ=             -1.3215

  Exact polarizability: 161.206  -2.433 151.513  -0.580  -1.553 122.709
 Approx polarizability: 199.859  -2.337 198.887   2.158  -0.515 194.933

                      1                      2                      3
                      A                      A                      A
 Frequencies --     27.0973                31.3623                44.2181
 Red. masses --      2.7833                 3.2601                 2.8706
 Frc consts  --      0.0012                 0.0019                 0.0033
 IR Inten    --      0.5814                 0.0460                 0.1249

                      4                      5                      6
                      A                      A                      A
 Frequencies --     74.5057                90.3019               100.1816
 Red. masses --      2.0079                 1.7996                 2.6053
 Frc consts  --      0.0066                 0.0086                 0.0154
 IR Inten    --      1.6038                 0.1435                 0.0866

                      7                      8                      9
                      A                      A                      A
 Frequencies --    102.8571               131.6415               139.7165
 Red. masses --      2.3432                 2.1224                 2.8485
 Frc consts  --      0.0146                 0.0217                 0.0328
 IR Inten    --      0.1350                 0.0266                 0.0676

                     10                     11                     12
                      A                      A                      A
 Frequencies --    193.8264               205.9219               213.6270
 Red. masses --      1.1584                 2.5514                 2.1741
 Frc consts  --      0.0256                 0.0637                 0.0585
 IR Inten    --      0.7738                 0.3268                 0.2127

                     13                     14                     15
                      A                      A                      A
 Frequencies --    240.3823               248.6297               276.1144
 Red. masses --      1.3190                 1.1494                 2.4828
 Frc consts  --      0.0449                 0.0419                 0.1115
 IR Inten    --      1.3758                 0.0171                 0.7230

                     16                     17                     18
                      A                      A                      A
 Frequencies --    312.6315               330.0734               357.2554
 Red. masses --      2.9290                 2.6173                 2.3253
 Frc consts  --      0.1687                 0.1680                 0.1749
 IR Inten    --      0.8841                 0.2881                 0.2868

                     19                     20                     21
                      A                      A                      A
 Frequencies --    358.7856               448.5401               462.3192
 Red. masses --      2.9505                 2.4573                 2.5212
 Frc consts  --      0.2238                 0.2913                 0.3175
 IR Inten    --      0.7599                 3.2048                 2.7494

                     22                     23                     24
                      A                      A                      A
 Frequencies --    513.3558               529.9666               562.1629
 Red. masses --      2.4980                 2.3735                 2.0923
 Frc consts  --      0.3879                 0.3928                 0.3896
 IR Inten    --      1.1875                 0.6549                 1.6250

                     25                     26                     27
                      A                      A                      A
 Frequencies --    644.4803               744.3371               759.5076
 Red. masses --      2.9341                 1.1250                 1.3658
 Frc consts  --      0.7180                 0.3672                 0.4642
 IR Inten    --      0.2923                 2.5042                 1.1072

                     28                     29                     30
                      A                      A                      A
 Frequencies --    824.8038               830.2038               842.7599
 Red. masses --      1.7837                 1.9283                 1.8466
 Frc consts  --      0.7150                 0.7830                 0.7727
 IR Inten    --      1.5827                 1.2123                 1.7906

                     31                     32                     33
                      A                      A                      A
 Frequencies --    864.2393               894.1077               903.2696
 Red. masses --      1.9910                 1.8751                 1.4458
 Frc consts  --      0.8762                 0.8832                 0.6950
 IR Inten    --      0.5663                 1.8300                 0.1713

                     34                     35                     36
                      A                      A                      A
 Frequencies --    914.1045               926.7245               945.4520
 Red. masses --      2.3999                 2.1813                 1.7968
 Frc consts  --      1.1815                 1.1038                 0.9463
 IR Inten    --      6.4853                 5.0357                 2.8049

                     37                     38                     39
                      A                      A                      A
 Frequencies --    968.6478               988.8243              1022.1367
 Red. masses --      1.4897                 2.2640                 1.5934
 Frc consts  --      0.8235                 1.3043                 0.9809
 IR Inten    --      2.1677                 0.6118                 1.6476

                     40                     41                     42
                      A                      A                      A
 Frequencies --   1033.6521              1038.3379              1056.2128
 Red. masses --      2.1066                 2.2414                 2.2590
 Frc consts  --      1.3261                 1.4238                 1.4848
 IR Inten    --      0.1688                 1.7577                 3.3401

                     43                     44                     45
                      A                      A                      A
 Frequencies --   1067.8140              1072.0994              1092.2569
 Red. masses --      1.8944                 1.8114                 1.5364
 Frc consts  --      1.2727                 1.2267                 1.0799
 IR Inten    --      2.5766                 3.7597                 0.3753

                     46                     47                     48
                      A                      A                      A
 Frequencies --   1096.0976              1122.5998              1137.4165
 Red. masses --      1.8154                 2.5598                 2.4432
 Frc consts  --      1.2851                 1.9007                 1.8623
 IR Inten    --      0.8118                27.2641                18.7840

                     49                     50                     51
                      A                      A                      A
 Frequencies --   1152.2099              1160.4372              1181.6262
 Red. masses --      2.6238                 2.5243                 1.2919
 Frc consts  --      2.0523                 2.0028                 1.0628
 IR Inten    --     45.2048                72.0606                 2.5204

                     52                     53                     54
                      A                      A                      A
 Frequencies --   1197.6039              1203.0884              1221.1169
 Red. masses --      1.6144                 1.7413                 1.6710
 Frc consts  --      1.3643                 1.4850                 1.4680
 IR Inten    --      8.6357                34.3135                19.0309

                     55                     56                     57
                      A                      A                      A
 Frequencies --   1238.4463              1257.9987              1268.2777
 Red. masses --      1.5492                 1.3054                 1.3996
 Frc consts  --      1.3999                 1.2172                 1.3264
 IR Inten    --      5.1328                 2.6038                 1.5517

                     58                     59                     60
                      A                      A                      A
 Frequencies --   1276.0638              1285.9507              1306.3340
 Red. masses --      1.2593                 1.3215                 1.2989
 Frc consts  --      1.2081                 1.2875                 1.3059
 IR Inten    --      2.9622                 2.4838                 1.1844

                     61                     62                     63
                      A                      A                      A
 Frequencies --   1315.1036              1325.6874              1330.4730
 Red. masses --      1.2681                 1.2430                 1.1777
 Frc consts  --      1.2922                 1.2870                 1.2282
 IR Inten    --      1.9356                 0.4917                 0.1037

                     64                     65                     66
                      A                      A                      A
 Frequencies --   1341.2924              1342.1006              1351.1958
 Red. masses --      1.2730                 1.2152                 1.3165
 Frc consts  --      1.3494                 1.2896                 1.4161
 IR Inten    --      1.8283                 1.5272                 0.8366

                     67                     68                     69
                      A                      A                      A
 Frequencies --   1362.4086              1376.7619              1381.5536
 Red. masses --      1.3274                 1.2572                 1.4545
 Frc consts  --      1.4517                 1.4040                 1.6357
 IR Inten    --      2.1009                10.7870                 4.4118

                     70                     71                     72
                      A                      A                      A
 Frequencies --   1385.9692              1394.4389              1397.5933
 Red. masses --      1.3912                 1.5558                 1.5455
 Frc consts  --      1.5745                 1.7824                 1.7786
 IR Inten    --      9.4776                 5.2587                 8.7029

                     73                     74                     75
                      A                      A                      A
 Frequencies --   1406.8627              1412.3211              1476.9755
 Red. masses --      1.3140                 1.2353                 1.1051
 Frc consts  --      1.5324                 1.4518                 1.4203
 IR Inten    --     21.0727                 0.6097                 1.5565

                     76                     77                     78
                      A                      A                      A
 Frequencies --   1478.5958              1482.7671              1484.0621
 Red. masses --      1.0845                 1.0738                 1.0646
 Frc consts  --      1.3969                 1.3910                 1.3815
 IR Inten    --      0.6836                 0.1293                 3.1212

                     79                     80                     81
                      A                      A                      A
 Frequencies --   1488.5017              1491.3012              1493.3590
 Red. masses --      1.0874                 1.0796                 1.0657
 Frc consts  --      1.4195                 1.4146                 1.4002
 IR Inten    --      0.9247                 2.8191                 0.2767

                     82                     83                     84
                      A                      A                      A
 Frequencies --   1494.5975              1499.8141              1500.1396
 Red. masses --      1.0717                 1.0415                 1.0833
 Frc consts  --      1.4105                 1.3803                 1.4363
 IR Inten    --      2.6563                 3.8886                 3.9559

                     85                     86                     87
                      A                      A                      A
 Frequencies --   1506.8936              1508.2248              1511.1619
 Red. masses --      1.0608                 1.1011                 1.0871
 Frc consts  --      1.4193                 1.4757                 1.4626
 IR Inten    --      6.0506                 1.3144                 1.5921

                     88                     89                     90
                      A                      A                      A
 Frequencies --   1513.4782              2938.2863              2970.2243
 Red. masses --      1.0708                 1.0809                 1.0399
 Frc consts  --      1.4451                 5.4982                 5.4052
 IR Inten    --      7.3862                32.8804                69.0598

                     91                     92                     93
                      A                      A                      A
 Frequencies --   2989.2813              2997.5213              2998.3175
 Red. masses --      1.0779                 1.0667                 1.0647
 Frc consts  --      5.6747                 5.6470                 5.6394
 IR Inten    --      6.6087                 9.8506                 8.1882

                     94                     95                     96
                      A                      A                      A
 Frequencies --   3011.8905              3014.8707              3017.1841
 Red. masses --      1.0710                 1.0679                 1.0961
 Frc consts  --      5.7243                 5.7189                 5.8790
 IR Inten    --     18.4562                11.8847                39.9490

                     97                     98                     99
                      A                      A                      A
 Frequencies --   3017.7398              3024.5546              3026.2401
 Red. masses --      1.0717                 1.0658                 1.0639
 Frc consts  --      5.7502                 5.7442                 5.7405
 IR Inten    --     45.1438                50.7081                36.1019

                    100                    101                    102
                      A                      A                      A
 Frequencies --   3027.5031              3033.6916              3034.2938
 Red. masses --      1.0373                 1.0940                 1.0688
 Frc consts  --      5.6018                 5.9321                 5.7977
 IR Inten    --     25.6014                 7.1090                25.2313

                    103                    104                    105
                      A                      A                      A
 Frequencies --   3040.1084              3047.0889              3056.9599
 Red. masses --      1.0419                 1.0860                 1.1014
 Frc consts  --      5.6735                 5.9407                 6.0644
 IR Inten    --      9.0281                53.8181                39.3082

                    106                    107                    108
                      A                      A                      A
 Frequencies --   3075.1333              3079.8299              3081.1784
 Red. masses --      1.0977                 1.0985                 1.0944
 Frc consts  --      6.1158                 6.1390                 6.1213
 IR Inten    --     32.0976                36.4362                53.4944

                    109                    110                    111
                      A                      A                      A
 Frequencies --   3087.2986              3094.3015              3098.9527
 Red. masses --      1.1035                 1.1020                 1.1010
 Frc consts  --      6.1970                 6.2168                 6.2295
 IR Inten    --     64.0314                54.6916                41.6585

                    112                    113                    114
                      A                      A                      A
 Frequencies --   3104.3948              3111.7654              3114.8870
 Red. masses --      1.0956                 1.1010                 1.1005
 Frc consts  --      6.2210                 6.2814                 6.2912
 IR Inten    --     34.5392                31.2019                25.4645

 - Thermochemistry -
 -------------------
 Temperature   298.150 Kelvin.  Pressure   1.00000 Atm.
 Atom     1 has atomic number  6 and mass  12.00000

 Molecular mass:   198.19837 amu.
 Principal axes and moments of inertia in atomic units:
                           1         2         3
     Eigenvalues --  2395.463605501.573777342.17365
           X            0.99982   0.01867   0.00221
           Y           -0.01867   0.99983  -0.00028
           Z           -0.00222   0.00023   1.00000
 This molecule is an asymmetric top.
 Rotational symmetry number  1.
 Warning -- assumption of classical behavior for rotation
           may cause significant error
 Rotational temperatures (Kelvin)      0.03616     0.01574     0.01180
 Rotational constants (GHZ):           0.75340     0.32804     0.24580
 Zero-point vibrational energy     973053.5 (Joules/Mol)
                                  232.56537 (Kcal/Mol)
 Warning -- explicit consideration of  24 degrees of freedom as
           vibrations may cause significant error
 Vibrational temperatures:     38.99    45.12    63.62   107.20   129.92
          (Kelvin)            144.14   147.99   189.40   201.02   278.87
                              296.28   307.36   345.86   357.72   397.27
                              449.81   474.90   514.01   516.21   645.35
                              665.17   738.60   762.50   808.83   927.26
                             1070.94  1092.76  1186.71  1194.48  1212.54
                             1243.45  1286.42  1299.60  1315.19  1333.35
                             1360.29  1393.67  1422.70  1470.63  1487.19
                             1493.94  1519.65  1536.35  1542.51  1571.51
                             1577.04  1615.17  1636.49  1657.77  1669.61
                             1700.10  1723.08  1730.98  1756.91  1781.85
                             1809.98  1824.77  1835.97  1850.20  1879.52
                             1892.14  1907.37  1914.25  1929.82  1930.98
                             1944.07  1960.20  1980.85  1987.75  1994.10
                             2006.29  2010.83  2024.16  2032.02  2125.04
                             2127.37  2133.37  2135.23  2141.62  2145.65
                             2148.61  2150.39  2157.90  2158.37  2168.08
                             2170.00  2174.22  2177.56  4227.54  4273.49
                             4300.91  4312.76  4313.91  4333.44  4337.73
                             4341.05  4341.85  4351.66  4354.08  4355.90
                             4364.81  4365.67  4374.04  4384.08  4398.28
                             4424.43  4431.19  4433.13  4441.93  4452.01
                             4458.70  4466.53  4477.14  4481.63

 Zero-point correction=                           0.370617 (Hartree/Particle)
 Thermal correction to Energy=                    0.387686
 Thermal correction to Enthalpy=                  0.388630
 Thermal correction to Gibbs Free Energy=         0.324302
 Sum of electronic and zero-point Energies=           -585.945228
 Sum of electronic and thermal Energies=              -585.928159
 Sum of electronic and thermal Enthalpies=            -585.927215
 Sum of electronic and thermal Free Energies=         -585.991543

                     E (Thermal)             CV                S
                      KCal/Mol        Cal/Mol-Kelvin    Cal/Mol-Kelvin
 Total                  243.277             62.920            135.391
 Electronic               0.000              0.000              0.000
 Translational            0.889              2.981             41.757
 Rotational               0.889              2.981             32.937
 Vibrational            241.499             56.958             60.697
 Vibration     1          0.593              1.984              6.031
 Vibration     2          0.594              1.983              5.741
 Vibration     3          0.595              1.980              5.061
 Vibration     4          0.599              1.966              4.031
 Vibration     5          0.602              1.956              3.654
 Vibration     6          0.604              1.949              3.451
 Vibration     7          0.605              1.947              3.399
 Vibration     8          0.612              1.922              2.922
 Vibration     9          0.615              1.914              2.808
 Vibration    10          0.635              1.848              2.191
 Vibration    11          0.640              1.831              2.080
 Vibration    12          0.644              1.820              2.012
 Vibration    13          0.657              1.779              1.800
 Vibration    14          0.662              1.765              1.740
 Vibration    15          0.678              1.718              1.558
 Vibration    16          0.701              1.650              1.348
 Vibration    17          0.713              1.615              1.260
 Vibration    18          0.732              1.560              1.134
 Vibration    19          0.734              1.557              1.127
 Vibration    20          0.808              1.364              0.800
 Vibration    21          0.820              1.334              0.759
 Vibration    22          0.868              1.220              0.626
 Vibration    23          0.885              1.184              0.587
 Vibration    24          0.918              1.113              0.520

 Optimization completed.
    -- Stationary point found.
 Normal termination of Gaussian 16 at Mon May 22 17:08:06 2023.
