 Gaussian 16, Revision A.03,
 Gaussian 16:  ES64L-G16RevA.03 25-Dec-2016

 -----------------------------
 # opt freq b3lyp/6-31g(2df,p)
 -----------------------------

 -------------------
 Title Card Required
 -------------------
 Symbolic Z-matrix:
 Charge =  0 Multiplicity = 1

 SCF Done:  E(RB3LYP) =  -702.060379544     A.U. after   12 cycles
 SCF Done:  E(RB3LYP) =  -702.068722996     A.U. after   10 cycles
 SCF Done:  E(RB3LYP) =  -702.069835748     A.U. after   10 cycles
 SCF Done:  E(RB3LYP) =  -702.069988247     A.U. after    9 cycles
 SCF Done:  E(RB3LYP) =  -702.070011293     A.U. after    9 cycles
 SCF Done:  E(RB3LYP) =  -702.070019189     A.U. after    8 cycles
 SCF Done:  E(RB3LYP) =  -702.070025953     A.U. after    9 cycles
 SCF Done:  E(RB3LYP) =  -702.070026796     A.U. after    7 cycles
 SCF Done:  E(RB3LYP) =  -702.070027217     A.U. after    6 cycles
 Optimization completed.
    -- Stationary point found.
 Normal termination of Gaussian 16 at Mon May 22 17:18:58 2023.

 ----------------------------------------------------------------------
 #N Geom=AllCheck Guess=TCheck SCRF=Check GenChk RB3LYP/6-31G(2df,p) Fr
 eq
 ----------------------------------------------------------------------

 Structure from the checkpoint file:  "CCCCqCrCCCCCCCCOCO.chk"
 -------------------
 Title Card Required
 -------------------
 Charge =  0 Multiplicity = 1

                         Standard orientation:
 ---------------------------------------------------------------------
 Center     Atomic      Atomic             Coordinates (Angstroms)
 Number     Number       Type             X           Y           Z
 ---------------------------------------------------------------------
      1          6           0       -8.413424   -1.173356   -0.173440
      2          6           0       -7.311574   -0.138864   -0.422888
      3          6           0       -5.957488   -0.564313    0.158309
      4          6           0       -4.778385    0.381088   -0.143736
      5          6           0       -4.975254    1.764160    0.495360
      6          6           0       -3.453735   -0.272228    0.297289
      7          6           0       -2.178955    0.460568   -0.138881
      8          6           0       -0.896716   -0.292867    0.234166
      9          6           0        0.384674    0.430351   -0.194301
     10          6           0        1.665596   -0.323934    0.177795
     11          6           0        2.946691    0.399990   -0.250947
     12          6           0        4.222970   -0.359789    0.123780
     13          6           0        5.490058    0.366619   -0.305869
     14          8           0        6.610611   -0.407171    0.077220
     15          6           0        7.840385    0.193596   -0.248815
     16          8           0        8.877558   -0.595399    0.229118
     17          1           0       -9.369792   -0.850116   -0.596610
     18          1           0       -8.563860   -1.340106    0.899161
     19          1           0       -8.159373   -2.139691   -0.623422
     20          1           0       -7.620590    0.822644    0.003529
     21          1           0       -7.204201    0.027552   -1.503365
     22          1           0       -5.712174   -1.562024   -0.231184
     23          1           0       -6.051966   -0.683286    1.247925
     24          1           0       -4.733481    0.515491   -1.235735
     25          1           0       -5.026228    1.682022    1.588346
     26          1           0       -5.899087    2.240042    0.154840
     27          1           0       -4.154034    2.443892    0.251379
     28          1           0       -3.420443   -1.294520   -0.103724
     29          1           0       -3.454574   -0.379563    1.392047
     30          1           0       -2.144448    1.461505    0.309116
     31          1           0       -2.204123    0.615387   -1.226986
     32          1           0       -0.917837   -1.293575   -0.219688
     33          1           0       -0.874987   -0.456219    1.320832
     34          1           0        0.407020    1.430462    0.261026
     35          1           0        0.362811    0.594817   -1.280805
     36          1           0        1.644825   -1.323579   -0.277860
     37          1           0        1.688608   -0.488366    1.264034
     38          1           0        2.967201    1.399762    0.205042
     39          1           0        2.923207    0.563899   -1.337365
     40          1           0        4.218943   -1.355037   -0.336852
     41          1           0        4.262719   -0.518785    1.208425
     42          1           0        5.537204    1.366508    0.160600
     43          1           0        5.488766    0.523968   -1.398340
     44          1           0        7.866227    1.220696    0.167067
     45          1           0        7.974496    0.255457   -1.339959
     46          1           0        8.754750   -0.684808    1.180876
 ---------------------------------------------------------------------

 SCF Done:  E(RB3LYP) =  -702.070027217     A.U. after    1 cycles

 The electronic state is 1-A.
 Alpha  occ. eigenvalues --  -19.14133 -19.13835 -10.27096 -10.22754 -10.18025
 Alpha  occ. eigenvalues --  -10.18015 -10.17853 -10.17681 -10.17526 -10.17470
 Alpha  occ. eigenvalues --  -10.17431 -10.17328 -10.17152 -10.17108 -10.16938
 Alpha  occ. eigenvalues --  -10.16714  -1.06170  -1.00066  -0.81623  -0.80557
 Alpha  occ. eigenvalues --   -0.78237  -0.75912  -0.73368  -0.69509  -0.67294
 Alpha  occ. eigenvalues --   -0.65977  -0.63320  -0.60349  -0.58295  -0.57559
 Alpha  occ. eigenvalues --   -0.56842  -0.55093  -0.52350  -0.49594  -0.48674
 Alpha  occ. eigenvalues --   -0.47610  -0.46561  -0.45552  -0.44077  -0.43676
 Alpha  occ. eigenvalues --   -0.42682  -0.41857  -0.41162  -0.40123  -0.39476
 Alpha  occ. eigenvalues --   -0.38382  -0.37788  -0.36912  -0.36487  -0.35995
 Alpha  occ. eigenvalues --   -0.34843  -0.34829  -0.33812  -0.33322  -0.33069
 Alpha  occ. eigenvalues --   -0.32687  -0.32267  -0.32135  -0.31943  -0.31532
 Alpha  occ. eigenvalues --   -0.31287  -0.30732  -0.29133  -0.28495  -0.25446
 Alpha virt. eigenvalues --    0.08383   0.08600   0.08911   0.09731   0.10464
 Alpha virt. eigenvalues --    0.10749   0.11193   0.11504   0.12064   0.12951
 Alpha virt. eigenvalues --    0.13578   0.13895   0.14917   0.15537   0.15905

 Mulliken charges:
               1
     1  C   -0.377915
     2  C   -0.176836
     3  C   -0.158866
     4  C    0.025430
     5  C   -0.389772
     6  C   -0.181041
     7  C   -0.194579
     8  C   -0.177876
     9  C   -0.182606
    10  C   -0.179912
    11  C   -0.184125
    12  C   -0.195238
    13  C   -0.054524
    14  O   -0.247589
    15  C    0.046598
    16  O   -0.397401
    17  H    0.109091
    18  H    0.112707
    19  H    0.112219
    20  H    0.097752
    21  H    0.091845
    22  H    0.085600
    23  H    0.086863
    24  H    0.064760
    25  H    0.108103
    26  H    0.113194
    27  H    0.113234
    28  H    0.086427
    29  H    0.087574
    30  H    0.095077
    31  H    0.089484
    32  H    0.091093
    33  H    0.091137
    34  H    0.090479
    35  H    0.090913
    36  H    0.093842
    37  H    0.092786
    38  H    0.092846
    39  H    0.094053
    40  H    0.107312
    41  H    0.102306
    42  H    0.084074
    43  H    0.087337
    44  H    0.068564
    45  H    0.098609
    46  H    0.286973
 Sum of Mulliken charges =  -0.00000

 Dipole moment (field-independent basis, Debye):
    X=             -1.3079    Y=              1.3141    Z=              0.4874  Tot=              1.9171
 Quadrupole moment (field-independent basis, Debye-Ang):
   XX=           -123.1637   YY=           -105.7303   ZZ=           -100.4659
   XY=              9.4523   XZ=              6.2693   YZ=             -0.2222

  Exact polarizability: 221.667   1.952 143.417   1.415  -1.181 138.388
 Approx polarizability: 225.815  -2.096 216.830   0.899  -0.856 219.896

                      1                      2                      3
                      A                      A                      A
 Frequencies --     15.7454                23.1161                26.5193
 Red. masses --      4.2557                 2.9799                 2.5682
 Frc consts  --      0.0006                 0.0009                 0.0011
 IR Inten    --      0.1343                 0.4560                 1.2146

                      4                      5                      6
                      A                      A                      A
 Frequencies --     41.2666                59.0755                63.4512
 Red. masses --      3.2071                 1.8665                 2.4107
 Frc consts  --      0.0032                 0.0038                 0.0057
 IR Inten    --      0.4135                 1.3444                 0.1898

                      7                      8                      9
                      A                      A                      A
 Frequencies --     70.5530                82.1763                97.8830
 Red. masses --      3.2392                 2.3041                 2.5629
 Frc consts  --      0.0095                 0.0092                 0.0145
 IR Inten    --      0.2598                 1.1001                 0.6636

                     10                     11                     12
                      A                      A                      A
 Frequencies --    106.9378               125.8668               130.0350
 Red. masses --      1.9693                 3.4209                 2.2489
 Frc consts  --      0.0133                 0.0319                 0.0224
 IR Inten    --      0.9186                 0.1022                 0.4696

                     13                     14                     15
                      A                      A                      A
 Frequencies --    138.9663               149.2989               161.9403
 Red. masses --      2.2251                 4.3608                 2.0013
 Frc consts  --      0.0253                 0.0573                 0.0309
 IR Inten    --      0.7021                 0.0650                 0.1784

                     16                     17                     18
                      A                      A                      A
 Frequencies --    167.5347               194.2203               232.3805
 Red. masses --      2.1525                 3.4780                 1.1547
 Frc consts  --      0.0356                 0.0773                 0.0367
 IR Inten    --      0.5250                 0.5095                 0.0050

                     19                     20                     21
                      A                      A                      A
 Frequencies --    250.7854               266.5917               298.2177
 Red. masses --      1.1401                 2.9090                 3.6858
 Frc consts  --      0.0422                 0.1218                 0.1931
 IR Inten    --      0.1277                 5.9873                 4.7520

                     22                     23                     24
                      A                      A                      A
 Frequencies --    318.0412               336.8604               361.1112
 Red. masses --      2.1833                 1.7271                 2.1601
 Frc consts  --      0.1301                 0.1155                 0.1660
 IR Inten    --     19.8403                62.0059                37.9558

                     25                     26                     27
                      A                      A                      A
 Frequencies --    409.7677               437.7957               463.1508
 Red. masses --      2.3485                 3.3801                 2.5910
 Frc consts  --      0.2323                 0.3817                 0.3275
 IR Inten    --      1.9527                 6.0384                 0.3162

                     28                     29                     30
                      A                      A                      A
 Frequencies --    515.5732               527.7681               575.4622
 Red. masses --      2.9642                 2.6839                 4.4091
 Frc consts  --      0.4642                 0.4405                 0.8603
 IR Inten    --      0.8349                 0.8117                 8.2221

                     31                     32                     33
                      A                      A                      A
 Frequencies --    731.3511               735.6937               743.1199
 Red. masses --      1.0638                 1.0848                 1.1111
 Frc consts  --      0.3352                 0.3459                 0.3615
 IR Inten    --      3.6517                 0.9223                 1.6841

                     34                     35                     36
                      A                      A                      A
 Frequencies --    756.3332               794.7699               835.3492
 Red. masses --      1.1364                 1.2220                 1.9673
 Frc consts  --      0.3830                 0.4548                 0.8088
 IR Inten    --      1.5382                 0.2062                 0.0722

                     37                     38                     39
                      A                      A                      A
 Frequencies --    855.8354               875.7850               897.8076
 Red. masses --      1.2268                 1.3756                 2.0143
 Frc consts  --      0.5294                 0.6216                 0.9566
 IR Inten    --      0.7384                 0.6539                 0.2073

                     40                     41                     42
                      A                      A                      A
 Frequencies --    929.7716               954.9908               988.7278
 Red. masses --      1.2470                 1.8622                 1.4788
 Frc consts  --      0.6351                 1.0006                 0.8518
 IR Inten    --      1.0680                 4.4110                 5.0703

                     43                     44                     45
                      A                      A                      A
 Frequencies --    992.8273               996.4342              1021.1007
 Red. masses --      2.9287                 4.0759                 2.5851
 Frc consts  --      1.7009                 2.3844                 1.5880
 IR Inten    --     13.7561                 4.8041                21.6184

                     46                     47                     48
                      A                      A                      A
 Frequencies --   1023.4080              1039.3158              1050.4385
 Red. masses --      1.3755                 2.9420                 2.4597
 Frc consts  --      0.8488                 1.8724                 1.5991
 IR Inten    --      2.7971                 0.3479                 7.7654

                     49                     50                     51
                      A                      A                      A
 Frequencies --   1053.8228              1065.6616              1069.5273
 Red. masses --      2.6772                 1.2537                 2.3738
 Frc consts  --      1.7517                 0.8389                 1.5999
 IR Inten    --      0.3807                 0.6077                 0.3935

                     52                     53                     54
                      A                      A                      A
 Frequencies --   1070.5802              1082.0982              1085.9104
 Red. masses --      2.1230                 1.6562                 2.2646
 Frc consts  --      1.4336                 1.1426                 1.5734
 IR Inten    --      0.6886                54.8183                 2.2987

                     55                     56                     57
                      A                      A                      A
 Frequencies --   1111.2863              1132.9086              1149.8140
 Red. masses --      3.7476                 8.5872                 2.8965
 Frc consts  --      2.7268                 6.4937                 2.2562
 IR Inten    --      7.6208               421.5159                 7.5062

                     58                     59                     60
                      A                      A                      A
 Frequencies --   1158.7384              1178.2942              1197.4005
 Red. masses --      3.4213                 1.8367                 1.7596
 Frc consts  --      2.7065                 1.5025                 1.4864
 IR Inten    --     26.2228                 8.4726                 1.8589

                     61                     62                     63
                      A                      A                      A
 Frequencies --   1207.4532              1228.6725              1240.3300
 Red. masses --      1.7277                 1.3074                 1.3931
 Frc consts  --      1.4841                 1.1629                 1.2627
 IR Inten    --      0.4910                 5.5337                 1.8784

                     64                     65                     66
                      A                      A                      A
 Frequencies --   1256.2142              1260.8179              1275.4763
 Red. masses --      1.2141                 1.3098                 1.3062
 Frc consts  --      1.1288                 1.2268                 1.2520
 IR Inten    --      5.8156                 2.6264                 1.5007

                     67                     68                     69
                      A                      A                      A
 Frequencies --   1282.6551              1296.3253              1310.2168
 Red. masses --      1.3012                 1.2530                 1.1486
 Frc consts  --      1.2612                 1.2406                 1.1617
 IR Inten    --      2.0312                 1.1517                 0.0685

                     70                     71                     72
                      A                      A                      A
 Frequencies --   1318.2515              1320.6970              1326.1512
 Red. masses --      1.1190                 1.3114                 1.0552
 Frc consts  --      1.1457                 1.3477                 1.0933
 IR Inten    --      0.1623                 0.3440                 0.1102

                     73                     74                     75
                      A                      A                      A
 Frequencies --   1330.2660              1335.7344              1338.0265
 Red. masses --      1.1098                 1.1364                 1.0939
 Frc consts  --      1.1571                 1.1946                 1.1539
 IR Inten    --      0.5718                 0.2654                 0.0378

                     76                     77                     78
                      A                      A                      A
 Frequencies --   1348.7124              1370.3787              1380.5304
 Red. masses --      1.3267                 1.3898                 1.3305
 Frc consts  --      1.4218                 1.5378                 1.4940
 IR Inten    --      1.6498                 2.1113                 2.6194

                     79                     80                     81
                      A                      A                      A
 Frequencies --   1391.7539              1394.2418              1398.8182
 Red. masses --      1.4759                 1.4754                 1.3123
 Frc consts  --      1.6843                 1.6898                 1.5128
 IR Inten    --      0.2880                 2.2858                 7.6630

                     82                     83                     84
                      A                      A                      A
 Frequencies --   1401.8679              1403.8316              1410.8781
 Red. masses --      1.5985                 1.5488                 1.2588
 Frc consts  --      1.8509                 1.7984                 1.4763
 IR Inten    --      0.2040                 2.0004                 1.4704

                     85                     86                     87
                      A                      A                      A
 Frequencies --   1415.4625              1416.5994              1472.1912
 Red. masses --      1.2834                 1.3446                 1.3122
 Frc consts  --      1.5150                 1.5898                 1.6756
 IR Inten    --     12.5788                83.8069                38.0637

                     88                     89                     90
                      A                      A                      A
 Frequencies --   1474.3170              1482.3618              1482.6462
 Red. masses --      1.0776                 1.0745                 1.0750
 Frc consts  --      1.3800                 1.3911                 1.3923
 IR Inten    --      0.1663                 0.0276                 0.0277

                     91                     92                     93
                      A                      A                      A
 Frequencies --   1485.4231              1488.6842              1493.5673
 Red. masses --      1.0735                 1.0834                 1.0648
 Frc consts  --      1.3956                 1.4147                 1.3995
 IR Inten    --      0.2719                 0.2758                 0.4924

                     94                     95                     96
                      A                      A                      A
 Frequencies --   1496.7079              1498.4826              1499.7111
 Red. masses --      1.0910                 1.0598                 1.0419
 Frc consts  --      1.4400                 1.4020                 1.3806
 IR Inten    --      0.1137                 0.6771                 5.3420

                     97                     98                     99
                      A                      A                      A
 Frequencies --   1505.5619              1507.6712              1512.1522
 Red. masses --      1.0784                 1.0737                 1.0762
 Frc consts  --      1.4403                 1.4380                 1.4498
 IR Inten    --      1.1885                 0.8849                 4.6771

                    100                    101                    102
                      A                      A                      A
 Frequencies --   1514.9385              1525.7873              1545.5954
 Red. masses --      1.0957                 1.1014                 1.0993
 Frc consts  --      1.4816                 1.5108                 1.5472
 IR Inten    --      4.2604                 4.2703                 1.3238

                    103                    104                    105
                      A                      A                      A
 Frequencies --   2899.7458              2945.6644              2970.2821
 Red. masses --      1.0689                 1.0558                 1.1039
 Frc consts  --      5.2957                 5.3974                 5.7383
 IR Inten    --     77.3570                54.6321                45.4691

                    106                    107                    108
                      A                      A                      A
 Frequencies --   2980.5504              2992.9692              2998.0442
 Red. masses --      1.0801                 1.0589                 1.0584
 Frc consts  --      5.6533                 5.5885                 5.6050
 IR Inten    --      6.4729                 0.5575                 4.7765

                    109                    110                    111
                      A                      A                      A
 Frequencies --   2999.5308              2999.8007              3000.6471
 Red. masses --      1.0716                 1.0762                 1.0592
 Frc consts  --      5.6804                 5.7058                 5.6187
 IR Inten    --     23.2934                51.4867                 4.4986

                    112                    113                    114
                      A                      A                      A
 Frequencies --   3002.2698              3008.8862              3014.8865
 Red. masses --      1.0591                 1.0619                 1.0632
 Frc consts  --      5.6245                 5.6643                 5.6937
 IR Inten    --      5.3209                 0.5967                77.5862

                    115                    116                    117
                      A                      A                      A
 Frequencies --   3016.8096              3019.8616              3024.3518
 Red. masses --      1.0657                 1.0969                 1.0934
 Frc consts  --      5.7144                 5.8937                 5.8925
 IR Inten    --     89.6925                 2.7244                 3.0376

                    118                    119                    120
                      A                      A                      A
 Frequencies --   3025.7647              3027.3401              3028.4409
 Red. masses --      1.0981                 1.0364                 1.0432
 Frc consts  --      5.9232                 5.5963                 5.6370
 IR Inten    --      3.6849                40.3221                15.3177

                    121                    122                    123
                      A                      A                      A
 Frequencies --   3031.1470              3031.9883              3038.6056
 Red. masses --      1.0598                 1.0948                 1.1029
 Frc consts  --      5.7370                 5.9298                 5.9997
 IR Inten    --     57.0345                10.1422                 6.1229

                    124                    125                    126
                      A                      A                      A
 Frequencies --   3053.9694              3058.7490              3066.0068
 Red. masses --      1.1043                 1.1005                 1.1039
 Frc consts  --      6.0682                 6.0666                 6.1140
 IR Inten    --      4.2325                11.7174               127.1019

                    127                    128                    129
                      A                      A                      A
 Frequencies --   3076.5877              3094.3023              3096.8711
 Red. masses --      1.1049                 1.1019                 1.0960
 Frc consts  --      6.1621                 6.2164                 6.1929
 IR Inten    --    101.3881                65.9342                17.1974

                    130                    131                    132
                      A                      A                      A
 Frequencies --   3099.3228              3111.0238              3806.1175
 Red. masses --      1.1003                 1.1003                 1.0653
 Frc consts  --      6.2275                 6.2742                 9.0924
 IR Inten    --     48.8108                43.7770                24.4947

 - Thermochemistry -
 -------------------
 Temperature   298.150 Kelvin.  Pressure   1.00000 Atm.
 Atom     1 has atomic number  6 and mass  12.00000

 Molecular mass:   230.22458 amu.
 Principal axes and moments of inertia in atomic units:
                           1         2         3
     Eigenvalues --   590.09034********************
           X            0.99999   0.00339  -0.00059
           Y           -0.00339   0.99996  -0.00767
           Z            0.00057   0.00767   0.99997
 This molecule is an asymmetric top.
 Rotational symmetry number  1.
 Warning -- assumption of classical behavior for rotation
           may cause significant error
 Rotational temperatures (Kelvin)      0.14678     0.00346     0.00342
 Rotational constants (GHZ):           3.05842     0.07204     0.07117
 Zero-point vibrational energy    1114883.1 (Joules/Mol)
                                  266.46345 (Kcal/Mol)
 Warning -- explicit consideration of  30 degrees of freedom as
           vibrations may cause significant error
 Vibrational temperatures:     22.65    33.26    38.16    59.37    85.00
          (Kelvin)             91.29   101.51   118.23   140.83   153.86
                              181.09   187.09   199.94   214.81   233.00
                              241.05   279.44   334.34   360.82   383.57
                              429.07   457.59   484.67   519.56   589.56
                              629.89   666.37   741.79   759.34   827.96
                             1052.25  1058.50  1069.18  1088.19  1143.50
                             1201.88  1231.36  1260.06  1291.74  1337.73
                             1374.02  1422.56  1428.46  1433.65  1469.14
                             1472.46  1495.34  1511.35  1516.22  1533.25
                             1538.81  1540.33  1556.90  1562.38  1598.89
                             1630.00  1654.33  1667.17  1695.30  1722.79
                             1737.26  1767.79  1784.56  1807.41  1814.04
                             1835.13  1845.45  1865.12  1885.11  1896.67
                             1900.19  1908.04  1913.96  1921.82  1925.12
                             1940.50  1971.67  1986.28  2002.42  2006.00
                             2012.59  2016.98  2019.80  2029.94  2036.53
                             2038.17  2118.15  2121.21  2132.79  2133.20
                             2137.19  2141.88  2148.91  2153.43  2155.98
                             2157.75  2166.17  2169.20  2175.65  2179.66
                             2195.27  2223.77  4172.09  4238.15  4273.57
                             4288.35  4306.22  4313.52  4315.66  4316.04
                             4317.26  4319.60  4329.12  4337.75  4340.52
                             4344.91  4351.37  4353.40  4355.67  4357.25
                             4361.14  4362.35  4371.88  4393.98  4400.86
                             4411.30  4426.52  4452.01  4455.71  4459.23
                             4476.07  5476.15

 Zero-point correction=                           0.424637 (Hartree/Particle)
 Thermal correction to Energy=                    0.446237
 Thermal correction to Enthalpy=                  0.447181
 Thermal correction to Gibbs Free Energy=         0.370071
 Sum of electronic and zero-point Energies=           -701.645391
 Sum of electronic and thermal Energies=              -701.623790
 Sum of electronic and thermal Enthalpies=            -701.622846
 Sum of electronic and thermal Free Energies=         -701.699956

                     E (Thermal)             CV                S
                      KCal/Mol        Cal/Mol-Kelvin    Cal/Mol-Kelvin
 Total                  280.018             75.628            162.292
 Electronic               0.000              0.000              0.000
 Translational            0.889              2.981             42.204
 Rotational               0.889              2.981             34.282
 Vibrational            278.240             69.666             85.806
 Vibration     1          0.593              1.986              7.109
 Vibration     2          0.593              1.985              6.347
 Vibration     3          0.593              1.984              6.074
 Vibration     4          0.594              1.981              5.197
 Vibration     5          0.596              1.974              4.488
 Vibration     6          0.597              1.972              4.347
 Vibration     7          0.598              1.968              4.138
 Vibration     8          0.600              1.961              3.838
 Vibration     9          0.603              1.951              3.496
 Vibration    10          0.606              1.944              3.324
 Vibration    11          0.611              1.927              3.008
 Vibration    12          0.612              1.923              2.946
 Vibration    13          0.615              1.914              2.818
 Vibration    14          0.618              1.903              2.681
 Vibration    15          0.622              1.889              2.527
 Vibration    16          0.624              1.882              2.463
 Vibration    17          0.635              1.848              2.187
 Vibration    18          0.653              1.791              1.860
 Vibration    19          0.663              1.761              1.725
 Vibration    20          0.672              1.734              1.618
 Vibration    21          0.691              1.677              1.427
 Vibration    22          0.704              1.639              1.320
 Vibration    23          0.718              1.602              1.227
 Vibration    24          0.735              1.552              1.117
 Vibration    25          0.774              1.449              0.927
 Vibration    26          0.798              1.388              0.834
 Vibration    27          0.821              1.332              0.757
 Vibration    28          0.871              1.215              0.620
 Vibration    29          0.883              1.189              0.592
 Vibration    30          0.932              1.084              0.494

                           ! Non-Optimized Parameters !
 Normal termination of Gaussian 16 at Mon May 22 20:30:08 2023.
