 Gaussian 16, Revision A.03,
 Gaussian 16:  ES64L-G16RevA.03 25-Dec-2016

 -----------------------------
 # opt freq b3lyp/6-31g(2df,p)
 -----------------------------

 -------------------
 Title Card Required
 -------------------
 Symbolic Z-matrix:
 Charge =  0 Multiplicity = 1

 SCF Done:  E(RB3LYP) =  -676.251135923     A.U. after   13 cycles
 SCF Done:  E(RB3LYP) =  -676.264233699     A.U. after   12 cycles
 SCF Done:  E(RB3LYP) =  -676.269236155     A.U. after   11 cycles
 SCF Done:  E(RB3LYP) =  -676.273955657     A.U. after   12 cycles
 SCF Done:  E(RB3LYP) =  -676.275436960     A.U. after   11 cycles
 SCF Done:  E(RB3LYP) =  -676.275973309     A.U. after   10 cycles
 SCF Done:  E(RB3LYP) =  -676.276267458     A.U. after   10 cycles
 SCF Done:  E(RB3LYP) =  -676.276660929     A.U. after   10 cycles
 SCF Done:  E(RB3LYP) =  -676.276770614     A.U. after   10 cycles
 SCF Done:  E(RB3LYP) =  -676.276802522     A.U. after   10 cycles
 SCF Done:  E(RB3LYP) =  -676.278682777     A.U. after    9 cycles
 SCF Done:  E(RB3LYP) =  -676.279010546     A.U. after   10 cycles
 SCF Done:  E(RB3LYP) =  -676.280446376     A.U. after   12 cycles
 SCF Done:  E(RB3LYP) =  -676.280992708     A.U. after   11 cycles
 SCF Done:  E(RB3LYP) =  -676.281094159     A.U. after   10 cycles
 SCF Done:  E(RB3LYP) =  -676.281110481     A.U. after    9 cycles
 SCF Done:  E(RB3LYP) =  -676.281111551     A.U. after    9 cycles
 SCF Done:  E(RB3LYP) =  -676.281114499     A.U. after    9 cycles
 SCF Done:  E(RB3LYP) =  -676.281114649     A.U. after    6 cycles
 Optimization completed.
    -- Stationary point found.
 Normal termination of Gaussian 16 at Sun May 28 07:47:19 2023.

 ----------------------------------------------------------------------
 #N Geom=AllCheck Guess=TCheck SCRF=Check GenChk RB3LYP/6-31G(2df,p) Fr
 eq
 ----------------------------------------------------------------------

 Structure from the checkpoint file:  "CCCC1CdCqCOCrCCCCNO1.chk"
 -------------------
 Title Card Required
 -------------------
 Charge =  0 Multiplicity = 1

                         Standard orientation:
 ---------------------------------------------------------------------
 Center     Atomic      Atomic             Coordinates (Angstroms)
 Number     Number       Type             X           Y           Z
 ---------------------------------------------------------------------
      1          6           0        4.686404   -2.116505    0.418255
      2          6           0        3.646074   -0.994649    0.470231
      3          6           0        2.274799   -1.433152   -0.056582
      4          6           0        1.209067   -0.336068   -0.010701
      5          6           0       -0.134479   -0.813279   -0.471940
      6          6           0       -1.309611   -0.412787    0.018503
      7          6           0       -2.585965   -0.883156   -0.630295
      8          8           0       -3.412590   -1.509184    0.336840
      9          6           0       -4.673654   -1.865275   -0.173606
     10          6           0       -1.495524    0.553279    1.172132
     11          6           0       -1.414152    2.066899    0.827940
     12          6           0       -0.000281    2.695388    0.819740
     13          6           0        0.669983    2.849319   -0.550556
     14          7           0        0.698728    1.612089   -1.325014
     15          8           0        1.727249    0.741737   -0.832456
     16          1           0        5.654973   -1.780883    0.802190
     17          1           0        4.839672   -2.467048   -0.608663
     18          1           0        4.372031   -2.979485    1.016424
     19          1           0        3.993292   -0.134720   -0.111246
     20          1           0        3.537921   -0.642348    1.504977
     21          1           0        1.906184   -2.283838    0.531226
     22          1           0        2.367683   -1.781430   -1.093815
     23          1           0        1.131143    0.030886    1.022017
     24          1           0       -0.124644   -1.498273   -1.318919
     25          1           0       -2.367981   -1.576622   -1.457516
     26          1           0       -3.123195   -0.018613   -1.064841
     27          1           0       -5.239636   -2.324585    0.640720
     28          1           0       -4.592718   -2.588857   -1.000666
     29          1           0       -5.229201   -0.987940   -0.543223
     30          1           0       -0.775510    0.340264    1.969846
     31          1           0       -2.481855    0.351120    1.599749
     32          1           0       -2.008641    2.592124    1.583978
     33          1           0       -1.909603    2.255349   -0.132019
     34          1           0        0.661219    2.132226    1.487660
     35          1           0       -0.055799    3.702565    1.250451
     36          1           0        1.675910    3.278501   -0.417211
     37          1           0        0.086937    3.554122   -1.159806
     38          1           0        1.037474    1.822358   -2.260007
 ---------------------------------------------------------------------

 SCF Done:  E(RB3LYP) =  -676.281114649     A.U. after    1 cycles

 The electronic state is 1-A.
 Alpha  occ. eigenvalues --  -19.15012 -19.13573 -14.35359 -10.22282 -10.22109
 Alpha  occ. eigenvalues --  -10.22045 -10.20193 -10.18007 -10.17786 -10.17662
 Alpha  occ. eigenvalues --  -10.17367 -10.17182 -10.17035 -10.16710 -10.16641
 Alpha  occ. eigenvalues --   -1.04479  -1.02799  -0.84995  -0.81334  -0.77804
 Alpha  occ. eigenvalues --   -0.75859  -0.72833  -0.70434  -0.67847  -0.64104
 Alpha  occ. eigenvalues --   -0.62862  -0.60003  -0.57204  -0.55879  -0.51690
 Alpha  occ. eigenvalues --   -0.50624  -0.48329  -0.47856  -0.47474  -0.46531
 Alpha  occ. eigenvalues --   -0.45109  -0.44226  -0.43029  -0.42021  -0.41767
 Alpha  occ. eigenvalues --   -0.40581  -0.39426  -0.38138  -0.37622  -0.37187
 Alpha  occ. eigenvalues --   -0.36155  -0.35741  -0.35340  -0.33441  -0.32744
 Alpha  occ. eigenvalues --   -0.32401  -0.32208  -0.31916  -0.31171  -0.29936
 Alpha  occ. eigenvalues --   -0.25855  -0.25194  -0.23656  -0.21989
 Alpha virt. eigenvalues --    0.01481   0.08382   0.09147   0.09489   0.10510
 Alpha virt. eigenvalues --    0.11335   0.12599   0.12665   0.13222   0.14122
 Alpha virt. eigenvalues --    0.15089   0.15182   0.15563   0.16215   0.16361

 Mulliken charges:
               1
     1  C   -0.381676
     2  C   -0.171250
     3  C   -0.183843
     4  C    0.092221
     5  C   -0.168239
     6  C    0.330520
     7  C   -0.159685
     8  O   -0.227903
     9  C   -0.221597
    10  C   -0.316113
    11  C   -0.177776
    12  C   -0.182427
    13  C   -0.121761
    14  N   -0.195075
    15  O   -0.304940
    16  H    0.109114
    17  H    0.112575
    18  H    0.110629
    19  H    0.113697
    20  H    0.089172
    21  H    0.097584
    22  H    0.096019
    23  H    0.061562
    24  H    0.070813
    25  H    0.089138
    26  H    0.087004
    27  H    0.125647
    28  H    0.102584
    29  H    0.100714
    30  H    0.103292
    31  H    0.114506
    32  H    0.092678
    33  H    0.096289
    34  H    0.105652
    35  H    0.092697
    36  H    0.088932
    37  H    0.094128
    38  H    0.235117
 Sum of Mulliken charges =  -0.00000

 Dipole moment (field-independent basis, Debye):
    X=             -0.8227    Y=              0.9792    Z=             -0.8171  Tot=              1.5177
 Quadrupole moment (field-independent basis, Debye-Ang):
   XX=            -90.5152   YY=            -89.9580   ZZ=            -90.8494
   XY=              0.5353   XZ=              2.5043   YZ=              0.4726

  Exact polarizability: 177.305  -3.211 146.777  -3.508   3.949 121.638
 Approx polarizability: 223.378  -8.758 198.377  -8.173   4.806 193.534

                      1                      2                      3
                      A                      A                      A
 Frequencies --     39.6372                55.2256                73.7708
 Red. masses --      3.7168                 3.6213                 2.3590
 Frc consts  --      0.0034                 0.0065                 0.0076
 IR Inten    --      0.0991                 0.5665                 0.4493

                      4                      5                      6
                      A                      A                      A
 Frequencies --     78.7284                86.3444                95.4276
 Red. masses --      2.3121                 2.3778                 2.1293
 Frc consts  --      0.0084                 0.0104                 0.0114
 IR Inten    --      0.0386                 0.4734                 3.3276

                      7                      8                      9
                      A                      A                      A
 Frequencies --    135.4850               148.9732               173.1855
 Red. masses --      3.6862                 2.9418                 3.4610
 Frc consts  --      0.0399                 0.0385                 0.0612
 IR Inten    --      2.1631                 0.3942                 1.2085

                     10                     11                     12
                      A                      A                      A
 Frequencies --    175.9112               218.8131               229.8285
 Red. masses --      2.6188                 3.1522                 1.5681
 Frc consts  --      0.0477                 0.0889                 0.0488
 IR Inten    --      0.5109                 0.7979                 3.3438

                     13                     14                     15
                      A                      A                      A
 Frequencies --    243.1209               247.6074               271.2379
 Red. masses --      1.8862                 1.1517                 3.3854
 Frc consts  --      0.0657                 0.0416                 0.1467
 IR Inten    --      0.1072                 0.0215                 0.4896

                     16                     17                     18
                      A                      A                      A
 Frequencies --    301.6251               343.5433               367.4012
 Red. masses --      2.4661                 2.9044                 3.5562
 Frc consts  --      0.1322                 0.2020                 0.2828
 IR Inten    --      0.0551                 0.3719                 2.9117

                     19                     20                     21
                      A                      A                      A
 Frequencies --    393.8979               413.0917               454.7823
 Red. masses --      2.3726                 1.8726                 2.7261
 Frc consts  --      0.2169                 0.1883                 0.3322
 IR Inten    --      2.5622                 1.7640                 1.1348

                     22                     23                     24
                      A                      A                      A
 Frequencies --    470.4757               521.3412               573.8651
 Red. masses --      2.5852                 2.6092                 2.8997
 Frc consts  --      0.3371                 0.4178                 0.5626
 IR Inten    --      0.9245                 4.5514                 2.8734

                     25                     26                     27
                      A                      A                      A
 Frequencies --    592.0813               665.3270               717.3552
 Red. masses --      3.3777                 3.1146                 2.1150
 Frc consts  --      0.6976                 0.8123                 0.6412
 IR Inten    --     17.1154                 1.5579                 1.0756

                     28                     29                     30
                      A                      A                      A
 Frequencies --    740.9558               798.4748               820.8529
 Red. masses --      1.2240                 1.9933                 1.7020
 Frc consts  --      0.3959                 0.7488                 0.6757
 IR Inten    --      0.6628                10.8181                17.8646

                     31                     32                     33
                      A                      A                      A
 Frequencies --    824.3452               877.1695               882.7806
 Red. masses --      2.7311                 1.8791                 1.8670
 Frc consts  --      1.0935                 0.8519                 0.8572
 IR Inten    --      0.6031                19.6597                25.7822

                     34                     35                     36
                      A                      A                      A
 Frequencies --    911.1117               920.4203               930.5204
 Red. masses --      1.9693                 1.8018                 1.7737
 Frc consts  --      0.9632                 0.8993                 0.9049
 IR Inten    --      8.0614                 4.0844                 2.8408

                     37                     38                     39
                      A                      A                      A
 Frequencies --    953.4243               983.1485              1001.6890
 Red. masses --      1.9799                 3.1063                 2.7885
 Frc consts  --      1.0604                 1.7690                 1.6485
 IR Inten    --     17.3161                 6.9632                24.9599

                     40                     41                     42
                      A                      A                      A
 Frequencies --   1019.6076              1028.4237              1040.1833
 Red. masses --      2.3084                 1.9503                 2.3690
 Frc consts  --      1.4139                 1.2153                 1.5102
 IR Inten    --     15.6738                 0.8614                 8.3313

                     43                     44                     45
                      A                      A                      A
 Frequencies --   1062.2453              1083.5684              1095.4573
 Red. masses --      2.4473                 2.1024                 2.9311
 Frc consts  --      1.6270                 1.4544                 2.0724
 IR Inten    --      6.4436                 6.0340                26.8267

                     46                     47                     48
                      A                      A                      A
 Frequencies --   1109.2953              1119.6946              1135.8606
 Red. masses --      2.4300                 2.1161                 2.0296
 Frc consts  --      1.7618                 1.5631                 1.5428
 IR Inten    --     10.0119                 4.9020                19.2199

                     49                     50                     51
                      A                      A                      A
 Frequencies --   1151.3734              1165.4515              1182.0981
 Red. masses --      5.1186                 2.1174                 1.3858
 Frc consts  --      3.9979                 1.6945                 1.1409
 IR Inten    --    174.7312                24.9932                 2.6663

                     52                     53                     54
                      A                      A                      A
 Frequencies --   1192.4065              1218.4790              1226.7215
 Red. masses --      1.7006                 1.5494                 1.5157
 Frc consts  --      1.4246                 1.3553                 1.3439
 IR Inten    --      3.3888                31.7172                 8.7825

                     55                     56                     57
                      A                      A                      A
 Frequencies --   1256.4893              1258.4977              1264.1073
 Red. masses --      1.1306                 1.2217                 1.2167
 Frc consts  --      1.0517                 1.1400                 1.1455
 IR Inten    --      7.7690                 2.6336                 2.2451

                     58                     59                     60
                      A                      A                      A
 Frequencies --   1280.4639              1291.4833              1309.3308
 Red. masses --      1.2201                 1.3274                 1.1383
 Frc consts  --      1.1787                 1.3044                 1.1497
 IR Inten    --      4.5576                 2.8679                 2.4712

                     61                     62                     63
                      A                      A                      A
 Frequencies --   1326.8727              1333.5887              1356.0269
 Red. masses --      1.1056                 1.2955                 1.3131
 Frc consts  --      1.1468                 1.3575                 1.4226
 IR Inten    --      0.2797                 1.8367                 0.0088

                     64                     65                     66
                      A                      A                      A
 Frequencies --   1361.7960              1375.5400              1381.3888
 Red. masses --      1.2207                 1.3192                 1.3994
 Frc consts  --      1.3338                 1.4707                 1.5733
 IR Inten    --     13.1984                 1.8370                 1.4169

                     67                     68                     69
                      A                      A                      A
 Frequencies --   1393.8562              1402.0649              1409.4194
 Red. masses --      1.5565                 1.4991                 1.3649
 Frc consts  --      1.7817                 1.7363                 1.5975
 IR Inten    --     12.1429                13.8046                 2.3345

                     70                     71                     72
                      A                      A                      A
 Frequencies --   1412.8831              1419.0332              1469.7651
 Red. masses --      1.2824                 1.4504                 1.0860
 Frc consts  --      1.5082                 1.7208                 1.3822
 IR Inten    --     12.9105                29.2501                 2.1131

                     73                     74                     75
                      A                      A                      A
 Frequencies --   1471.6540              1477.8480              1479.8147
 Red. masses --      1.0851                 1.1433                 1.0900
 Frc consts  --      1.3847                 1.4713                 1.4064
 IR Inten    --      0.8960                 2.6291                 2.4330

                     76                     77                     78
                      A                      A                      A
 Frequencies --   1485.0827              1488.7942              1493.1601
 Red. masses --      1.0569                 1.1070                 1.0547
 Frc consts  --      1.3734                 1.4457                 1.3855
 IR Inten    --      4.3623                 1.4761                 0.7846

                     79                     80                     81
                      A                      A                      A
 Frequencies --   1495.1088              1498.5311              1499.7138
 Red. masses --      1.1585                 1.0726                 1.0405
 Frc consts  --      1.5258                 1.4192                 1.3788
 IR Inten    --      1.0334                 8.0165                 5.5085

                     82                     83                     84
                      A                      A                      A
 Frequencies --   1505.3087              1510.1268              1517.9522
 Red. masses --      1.0902                 1.0824                 1.0782
 Frc consts  --      1.4554                 1.4544                 1.4637
 IR Inten    --     10.5036                 2.3791                 3.0539

                     85                     86                     87
                      A                      A                      A
 Frequencies --   1737.9642              2921.9735              2964.4713
 Red. masses --      7.5661                 1.0661                 1.0390
 Frc consts  --     13.4650                 5.3629                 5.3798
 IR Inten    --      5.3646                38.0627                81.7217

                     88                     89                     90
                      A                      A                      A
 Frequencies --   2972.8879              2990.9994              3000.0676
 Red. masses --      1.0641                 1.0897                 1.0803
 Frc consts  --      5.5413                 5.7434                 5.7287
 IR Inten    --     63.8347                52.4834                15.0514

                     91                     92                     93
                      A                      A                      A
 Frequencies --   3006.9309              3013.5194              3021.0071
 Red. masses --      1.1028                 1.0611                 1.0649
 Frc consts  --      5.8748                 5.6775                 5.7263
 IR Inten    --     50.9442                 2.2363                29.9577

                     94                     95                     96
                      A                      A                      A
 Frequencies --   3023.3057              3026.7504              3029.5736
 Red. masses --      1.0631                 1.0381                 1.0880
 Frc consts  --      5.7254                 5.6031                 5.8836
 IR Inten    --     22.0651                49.1465                19.9629

                     97                     98                     99
                      A                      A                      A
 Frequencies --   3034.9979              3041.1784              3054.3295
 Red. masses --      1.0699                 1.0662                 1.0968
 Frc consts  --      5.8066                 5.8099                 6.0283
 IR Inten    --     30.9318                 5.2333                19.6242

                    100                    101                    102
                      A                      A                      A
 Frequencies --   3066.9367              3070.6355              3074.8966
 Red. masses --      1.1012                 1.0958                 1.0976
 Frc consts  --      6.1027                 6.0875                 6.1147
 IR Inten    --     42.3283                54.9036                 3.6504

                    103                    104                    105
                      A                      A                      A
 Frequencies --   3087.2903              3097.2324              3099.6773
 Red. masses --      1.0981                 1.1020                 1.0999
 Frc consts  --      6.1668                 6.2286                 6.2266
 IR Inten    --     27.3304                54.7050                46.8892

                    106                    107                    108
                      A                      A                      A
 Frequencies --   3110.7712              3128.0686              3495.4741
 Red. masses --      1.0955                 1.0880                 1.0756
 Frc consts  --      6.2459                 6.2722                 7.7428
 IR Inten    --     31.9464                21.3297                 0.6789

 - Thermochemistry -
 -------------------
 Temperature   298.150 Kelvin.  Pressure   1.00000 Atm.
 Atom     1 has atomic number  6 and mass  12.00000

 Molecular mass:   213.17288 amu.
 Principal axes and moments of inertia in atomic units:
                           1         2         3
     Eigenvalues --  2484.525125385.216967016.36441
           X            0.99980  -0.01838   0.00836
           Y            0.01827   0.99975   0.01279
           Z           -0.00859  -0.01263   0.99988
 This molecule is an asymmetric top.
 Rotational symmetry number  1.
 Warning -- assumption of classical behavior for rotation
           may cause significant error
 Rotational temperatures (Kelvin)      0.03486     0.01608     0.01234
 Rotational constants (GHZ):           0.72639     0.33513     0.25722
 Zero-point vibrational energy     896364.8 (Joules/Mol)
                                  214.23632 (Kcal/Mol)
 Warning -- explicit consideration of  25 degrees of freedom as
           vibrations may cause significant error
 Vibrational temperatures:     57.03    79.46   106.14   113.27   124.23
          (Kelvin)            137.30   194.93   214.34   249.18   253.10
                              314.82   330.67   349.80   356.25   390.25
                              433.97   494.28   528.61   566.73   594.35
                              654.33   676.91   750.09   825.66   851.87
                              957.26  1032.11  1066.07  1148.83  1181.02
                             1186.05  1262.05  1270.12  1310.89  1324.28
                             1338.81  1371.76  1414.53  1441.21  1466.99
                             1479.67  1496.59  1528.33  1559.01  1576.12
                             1596.03  1610.99  1634.25  1656.57  1676.82
                             1700.78  1715.61  1753.12  1764.98  1807.81
                             1810.70  1818.77  1842.30  1858.16  1883.84
                             1909.07  1918.74  1951.02  1959.32  1979.10
                             1987.51  2005.45  2017.26  2027.84  2032.82
                             2041.67  2114.66  2117.38  2126.29  2129.12
                             2136.70  2142.04  2148.32  2151.13  2156.05
                             2157.75  2165.80  2172.74  2183.99  2500.54
                             4204.07  4265.21  4277.32  4303.38  4316.43
                             4326.30  4335.78  4346.56  4349.86  4354.82
                             4358.88  4366.69  4375.58  4394.50  4412.64
                             4417.96  4424.09  4441.92  4456.23  4459.74
                             4475.71  4500.59  5029.21

 Zero-point correction=                           0.341407 (Hartree/Particle)
 Thermal correction to Energy=                    0.358317
 Thermal correction to Enthalpy=                  0.359261
 Thermal correction to Gibbs Free Energy=         0.296576
 Sum of electronic and zero-point Energies=           -675.939707
 Sum of electronic and thermal Energies=              -675.922798
 Sum of electronic and thermal Enthalpies=            -675.921853
 Sum of electronic and thermal Free Energies=         -675.984539

                     E (Thermal)             CV                S
                      KCal/Mol        Cal/Mol-Kelvin    Cal/Mol-Kelvin
 Total                  224.847             63.183            131.932
 Electronic               0.000              0.000              0.000
 Translational            0.889              2.981             41.974
 Rotational               0.889              2.981             32.906
 Vibrational            223.070             57.221             57.052
 Vibration     1          0.594              1.981              5.277
 Vibration     2          0.596              1.975              4.621
 Vibration     3          0.599              1.966              4.050
 Vibration     4          0.600              1.963              3.922
 Vibration     5          0.601              1.959              3.741
 Vibration     6          0.603              1.952              3.546
 Vibration     7          0.613              1.918              2.867
 Vibration     8          0.618              1.904              2.685
 Vibration     9          0.627              1.875              2.401
 Vibration    10          0.628              1.872              2.371
 Vibration    11          0.647              1.812              1.969
 Vibration    12          0.652              1.795              1.880
 Vibration    13          0.659              1.774              1.780
 Vibration    14          0.661              1.767              1.748
 Vibration    15          0.675              1.726              1.588
 Vibration    16          0.694              1.671              1.408
 Vibration    17          0.722              1.588              1.196
 Vibration    18          0.740              1.539              1.091
 Vibration    19          0.761              1.483              0.985
 Vibration    20          0.777              1.442              0.916
 Vibration    21          0.813              1.350              0.781
 Vibration    22          0.827              1.316              0.736
 Vibration    23          0.876              1.203              0.607
 Vibration    24          0.930              1.088              0.497
 Vibration    25          0.950              1.049              0.463

 Optimization completed.
    -- Stationary point found.
 Normal termination of Gaussian 16 at Sun May 28 10:52:38 2023.
