 Gaussian 16, Revision A.03,
 Gaussian 16:  ES64L-G16RevA.03 25-Dec-2016

 -----------------------------
 # opt freq b3lyp/6-31g(2df,p)
 -----------------------------

 -------------------
 Title Card Required
 -------------------
 Symbolic Z-matrix:
 Charge =  0 Multiplicity = 1

 SCF Done:  E(RB3LYP) =  -584.081125052     A.U. after   12 cycles
 SCF Done:  E(RB3LYP) =  -584.091219495     A.U. after   11 cycles
 SCF Done:  E(RB3LYP) =  -584.098024023     A.U. after   10 cycles
 SCF Done:  E(RB3LYP) =  -584.101754946     A.U. after   10 cycles
 SCF Done:  E(RB3LYP) =  -584.104211912     A.U. after   11 cycles
 SCF Done:  E(RB3LYP) =  -584.105090648     A.U. after   10 cycles
 SCF Done:  E(RB3LYP) =  -584.105705822     A.U. after   10 cycles
 SCF Done:  E(RB3LYP) =  -584.106048673     A.U. after   10 cycles
 SCF Done:  E(RB3LYP) =  -584.106129930     A.U. after    9 cycles
 SCF Done:  E(RB3LYP) =  -584.106140450     A.U. after    8 cycles
 SCF Done:  E(RB3LYP) =  -584.106146291     A.U. after    8 cycles
 SCF Done:  E(RB3LYP) =  -584.106148192     A.U. after    8 cycles
 SCF Done:  E(RB3LYP) =  -584.106148550     A.U. after    7 cycles
 SCF Done:  E(RB3LYP) =  -584.106148636     A.U. after    6 cycles
 SCF Done:  E(RB3LYP) =  -584.106148648     A.U. after    5 cycles
 Optimization completed.
    -- Stationary point found.
 Normal termination of Gaussian 16 at Tue May 23 13:47:37 2023.

 ----------------------------------------------------------------------
 #N Geom=AllCheck Guess=TCheck SCRF=Check GenChk RB3LYP/6-31G(2df,p) Fr
 eq
 ----------------------------------------------------------------------

 Structure from the checkpoint file:  "CCCCCqCOrCqCCCrOC.chk"
 -------------------
 Title Card Required
 -------------------
 Charge =  0 Multiplicity = 1

                         Standard orientation:
 ---------------------------------------------------------------------
 Center     Atomic      Atomic             Coordinates (Angstroms)
 Number     Number       Type             X           Y           Z
 ---------------------------------------------------------------------
      1          6           0        4.838994    0.951858   -0.254446
      2          6           0        3.392179    1.178548    0.192613
      3          6           0        2.455406    0.031228   -0.201155
      4          6           0        1.003461    0.280045    0.234381
      5          6           0       -0.004203   -0.813492   -0.166674
      6          6           0        0.264978   -2.156063    0.544408
      7          8           0        1.420922   -2.846800    0.084469
      8          6           0       -1.477984   -0.407069    0.074256
      9          6           0       -1.879204    0.977437   -0.484539
     10          6           0       -1.912163    2.110978    0.549674
     11          6           0       -2.315921    3.456864   -0.058478
     12          8           0       -2.261647   -1.434867   -0.539228
     13          6           0       -3.551336   -1.589388    0.002440
     14          1           0        5.486537    1.782835    0.043183
     15          1           0        4.905287    0.852059   -1.343775
     16          1           0        5.248623    0.035463    0.184609
     17          1           0        3.019767    2.119814   -0.234764
     18          1           0        3.363660    1.311252    1.282699
     19          1           0        2.818173   -0.910557    0.219363
     20          1           0        2.483387   -0.098326   -1.292917
     21          1           0        0.689776    1.239498   -0.191910
     22          1           0        0.971511    0.409462    1.326410
     23          1           0        0.078177   -0.988365   -1.250996
     24          1           0       -0.623466   -2.791041    0.452521
     25          1           0        0.440685   -1.975879    1.612043
     26          1           0        1.265209   -3.091846   -0.833152
     27          1           0       -1.674954   -0.419707    1.161528
     28          1           0       -2.878957    0.880211   -0.923020
     29          1           0       -1.218701    1.245267   -1.318746
     30          1           0       -0.934974    2.209418    1.035955
     31          1           0       -2.617818    1.842276    1.347188
     32          1           0       -1.605125    3.771555   -0.830700
     33          1           0       -2.351539    4.243972    0.701114
     34          1           0       -3.305179    3.399444   -0.526375
     35          1           0       -4.032884   -2.409174   -0.537093
     36          1           0       -4.171702   -0.687660   -0.113862
     37          1           0       -3.514942   -1.842313    1.073889
 ---------------------------------------------------------------------

 SCF Done:  E(RB3LYP) =  -584.106148648     A.U. after    1 cycles

 The electronic state is 1-A.
 Alpha  occ. eigenvalues --  -19.13744 -19.12846 -10.23023 -10.22408 -10.21421
 Alpha  occ. eigenvalues --  -10.18154 -10.18147 -10.17707 -10.17418 -10.17373
 Alpha  occ. eigenvalues --  -10.17093 -10.16537 -10.16480  -1.02937  -1.00773
 Alpha  occ. eigenvalues --   -0.81285  -0.78636  -0.76568  -0.71977  -0.69372
 Alpha  occ. eigenvalues --   -0.67656  -0.63552  -0.61077  -0.58546  -0.56889
 Alpha  occ. eigenvalues --   -0.56487  -0.49215  -0.48744  -0.48144  -0.46264
 Alpha  occ. eigenvalues --   -0.45358  -0.44279  -0.43666  -0.41769  -0.41569
 Alpha  occ. eigenvalues --   -0.40985  -0.38761  -0.38633  -0.38049  -0.37540
 Alpha  occ. eigenvalues --   -0.36211  -0.35154  -0.34577  -0.33569  -0.33502
 Alpha  occ. eigenvalues --   -0.32877  -0.32244  -0.31682  -0.31258  -0.31101
 Alpha  occ. eigenvalues --   -0.29508  -0.26176  -0.24312
 Alpha virt. eigenvalues --    0.07938   0.08076   0.09718   0.09976   0.10845
 Alpha virt. eigenvalues --    0.11623   0.12211   0.13923   0.14111   0.14711
 Alpha virt. eigenvalues --    0.15065   0.15577   0.15819   0.16541   0.17080

 Mulliken charges:
               1
     1  C   -0.379585
     2  C   -0.163415
     3  C   -0.172701
     4  C   -0.204938
     5  C   -0.031010
     6  C   -0.074699
     7  O   -0.418362
     8  C    0.107905
     9  C   -0.205038
    10  C   -0.169572
    11  C   -0.380554
    12  O   -0.249202
    13  C   -0.241868
    14  H    0.107173
    15  H    0.110627
    16  H    0.115652
    17  H    0.087119
    18  H    0.090973
    19  H    0.124065
    20  H    0.079726
    21  H    0.095270
    22  H    0.088566
    23  H    0.068731
    24  H    0.104744
    25  H    0.100094
    26  H    0.280243
    27  H    0.058884
    28  H    0.100151
    29  H    0.098000
    30  H    0.104530
    31  H    0.093625
    32  H    0.115507
    33  H    0.111999
    34  H    0.113728
    35  H    0.126058
    36  H    0.103610
    37  H    0.103962
 Sum of Mulliken charges =  -0.00000

 Dipole moment (field-independent basis, Debye):
    X=             -1.6735    Y=              0.8483    Z=             -0.1483  Tot=              1.8821
 Quadrupole moment (field-independent basis, Debye-Ang):
   XX=            -83.7347   YY=            -86.6644   ZZ=            -82.8741
   XY=              2.8947   XZ=             -2.9643   YZ=              2.3354

  Exact polarizability: 149.707   3.108 134.035  -1.190   1.082 108.412
 Approx polarizability: 179.768   1.254 174.927  -0.907   2.483 175.872

                      1                      2                      3
                      A                      A                      A
 Frequencies --     29.4997                42.5905                54.1575
 Red. masses --      4.3151                 1.9169                 2.8193
 Frc consts  --      0.0022                 0.0020                 0.0049
 IR Inten    --      0.1972                 0.3365                 0.0368

                      4                      5                      6
                      A                      A                      A
 Frequencies --     73.3623                81.9165                89.9587
 Red. masses --      2.1663                 2.8689                 1.8967
 Frc consts  --      0.0069                 0.0113                 0.0090
 IR Inten    --      1.0775                 1.1298                 0.1693

                      7                      8                      9
                      A                      A                      A
 Frequencies --    106.9799               120.1900               140.5186
 Red. masses --      2.2395                 2.3774                 2.2924
 Frc consts  --      0.0151                 0.0202                 0.0267
 IR Inten    --      0.7244                 0.5218                 0.1470

                     10                     11                     12
                      A                      A                      A
 Frequencies --    180.0643               192.8022               229.2326
 Red. masses --      1.3264                 2.6910                 1.7804
 Frc consts  --      0.0253                 0.0589                 0.0551
 IR Inten    --      0.0175                 0.1926                 1.0433

                     13                     14                     15
                      A                      A                      A
 Frequencies --    240.4500               246.1566               253.6332
 Red. masses --      2.8326                 1.1224                 1.5741
 Frc consts  --      0.0965                 0.0401                 0.0597
 IR Inten    --      0.5337                 0.5561                 2.8458

                     16                     17                     18
                      A                      A                      A
 Frequencies --    280.8885               295.5541               307.3439
 Red. masses --      2.5944                 1.4359                 3.6216
 Frc consts  --      0.1206                 0.0739                 0.2016
 IR Inten    --      8.9452                77.6453                 5.7989

                     19                     20                     21
                      A                      A                      A
 Frequencies --    329.3299               388.3256               404.2612
 Red. masses --      2.1862                 3.4356                 2.1806
 Frc consts  --      0.1397                 0.3052                 0.2100
 IR Inten    --     15.5735                 4.4080                16.3896

                     22                     23                     24
                      A                      A                      A
 Frequencies --    437.7682               495.7333               523.8281
 Red. masses --      3.7710                 3.0077                 2.9859
 Frc consts  --      0.4258                 0.4355                 0.4827
 IR Inten    --      2.9201                 2.1032                 4.5769

                     25                     26                     27
                      A                      A                      A
 Frequencies --    590.4212               733.9063               740.0801
 Red. masses --      2.6002                 1.1062                 1.0905
 Frc consts  --      0.5340                 0.3510                 0.3519
 IR Inten    --      3.5510                 3.6738                 3.7991

                     28                     29                     30
                      A                      A                      A
 Frequencies --    793.0908               854.6184               882.7677
 Red. masses --      1.2097                 1.4018                 2.3421
 Frc consts  --      0.4483                 0.6032                 1.0754
 IR Inten    --      0.7951                 4.0998                 4.4203

                     31                     32                     33
                      A                      A                      A
 Frequencies --    901.0154               904.9152               908.7123
 Red. masses --      1.8834                 1.4509                 1.6668
 Frc consts  --      0.9008                 0.7000                 0.8109
 IR Inten    --      3.5892                13.9516                 6.7071

                     34                     35                     36
                      A                      A                      A
 Frequencies --    952.2046               986.0753               999.3027
 Red. masses --      2.7199                 2.8634                 1.5091
 Frc consts  --      1.4530                 1.6404                 0.8879
 IR Inten    --     10.9962                19.0037                14.7519

                     37                     38                     39
                      A                      A                      A
 Frequencies --   1020.4305              1051.7711              1064.6312
 Red. masses --      3.5519                 2.7441                 2.3987
 Frc consts  --      2.1791                 1.7885                 1.6019
 IR Inten    --      0.4185                 1.1226                17.6302

                     40                     41                     42
                      A                      A                      A
 Frequencies --   1070.9577              1081.6277              1085.5290
 Red. masses --      1.7750                 2.6010                 2.7435
 Frc consts  --      1.1995                 1.7929                 1.9048
 IR Inten    --     14.7894                47.4792                 6.2491

                     43                     44                     45
                      A                      A                      A
 Frequencies --   1120.0705              1125.9572              1136.7327
 Red. masses --      1.6490                 2.4830                 2.3962
 Frc consts  --      1.2189                 1.8547                 1.8243
 IR Inten    --     22.5196                29.4333                79.4958

                     46                     47                     48
                      A                      A                      A
 Frequencies --   1148.2163              1160.9985              1185.1944
 Red. masses --      2.6363                 2.0800                 1.3029
 Frc consts  --      2.0479                 1.6519                 1.0783
 IR Inten    --     21.1742                26.7098                 4.5583

                     49                     50                     51
                      A                      A                      A
 Frequencies --   1207.8334              1221.7532              1243.5442
 Red. masses --      1.5561                 1.6051                 1.4936
 Frc consts  --      1.3375                 1.4116                 1.3609
 IR Inten    --     21.4748                 5.2504                 5.0956

                     52                     53                     54
                      A                      A                      A
 Frequencies --   1267.2980              1273.7563              1293.6428
 Red. masses --      1.3515                 1.2497                 1.2827
 Frc consts  --      1.2788                 1.1946                 1.2647
 IR Inten    --      4.2898                 3.2266                 1.2546

                     55                     56                     57
                      A                      A                      A
 Frequencies --   1309.9300              1321.0040              1327.7986
 Red. masses --      1.3037                 1.1803                 1.0979
 Frc consts  --      1.3180                 1.2135                 1.1405
 IR Inten    --      2.4889                 1.8472                 0.0192

                     58                     59                     60
                      A                      A                      A
 Frequencies --   1334.1274              1353.9920              1372.4048
 Red. masses --      1.1081                 1.2419                 1.2852
 Frc consts  --      1.1620                 1.3414                 1.4262
 IR Inten    --      0.6123                 5.5659                 3.4838

                     61                     62                     63
                      A                      A                      A
 Frequencies --   1377.2523              1382.2764              1394.6386
 Red. masses --      1.4281                 1.3412                 1.4464
 Frc consts  --      1.5960                 1.5098                 1.6575
 IR Inten    --      2.8471                28.9265                 8.2215

                     64                     65                     66
                      A                      A                      A
 Frequencies --   1398.1413              1408.4067              1411.9109
 Red. masses --      1.5252                 1.2651                 1.2333
 Frc consts  --      1.7566                 1.4785                 1.4486
 IR Inten    --      5.8339                13.9776                 9.3755

                     67                     68                     69
                      A                      A                      A
 Frequencies --   1413.0586              1420.9007              1478.5662
 Red. masses --      1.2328                 1.3088                 1.0701
 Frc consts  --      1.4503                 1.5569                 1.3784
 IR Inten    --      1.2801                10.1638                 0.5075

                     70                     71                     72
                      A                      A                      A
 Frequencies --   1479.6573              1483.2645              1486.8794
 Red. masses --      1.1337                 1.0725                 1.0643
 Frc consts  --      1.4624                 1.3902                 1.3863
 IR Inten    --      1.7236                 1.2551                 0.8491

                     73                     74                     75
                      A                      A                      A
 Frequencies --   1492.8166              1498.3233              1499.4837
 Red. masses --      1.0528                 1.0640                 1.0405
 Frc consts  --      1.3824                 1.4073                 1.3784
 IR Inten    --      0.8764                 6.2748                 5.8124

                     76                     77                     78
                      A                      A                      A
 Frequencies --   1499.5074              1502.1132              1508.1328
 Red. masses --      1.0412                 1.0698                 1.0747
 Frc consts  --      1.3793                 1.4221                 1.4402
 IR Inten    --      3.5858                 1.2174                 4.7153

                     79                     80                     81
                      A                      A                      A
 Frequencies --   1512.3014              1512.9254              1516.9091
 Red. masses --      1.0797                 1.0811                 1.0918
 Frc consts  --      1.4549                 1.4580                 1.4802
 IR Inten    --      4.4727                 2.9142                 5.0459

                     82                     83                     84
                      A                      A                      A
 Frequencies --   2935.7113              2972.3164              2986.2190
 Red. masses --      1.0804                 1.0377                 1.0796
 Frc consts  --      5.4863                 5.4015                 5.6721
 IR Inten    --     18.6152                60.1257                 8.4269

                     85                     86                     87
                      A                      A                      A
 Frequencies --   2997.6701              3004.1788              3011.8330
 Red. masses --      1.0691                 1.0615                 1.0689
 Frc consts  --      5.6600                 5.6442                 5.7130
 IR Inten    --      4.3677                 3.3207                66.6272

                     88                     89                     90
                      A                      A                      A
 Frequencies --   3016.9118              3017.9844              3026.0196
 Red. masses --      1.0963                 1.0702                 1.0572
 Frc consts  --      5.8792                 5.7433                 5.7035
 IR Inten    --     50.2822                 5.9435                48.9979

                     91                     92                     93
                      A                      A                      A
 Frequencies --   3027.1438              3027.6756              3031.8225
 Red. masses --      1.0422                 1.0363                 1.0558
 Frc consts  --      5.6267                 5.5972                 5.7182
 IR Inten    --     18.9781                30.2678                53.6605

                     94                     95                     96
                      A                      A                      A
 Frequencies --   3036.8023              3052.2404              3055.9788
 Red. masses --      1.0968                 1.0936                 1.0919
 Frc consts  --      5.9595                 6.0027                 6.0079
 IR Inten    --     28.6924                 7.0116                29.4470

                     97                     98                     99
                      A                      A                      A
 Frequencies --   3070.7869              3071.4580              3092.1967
 Red. masses --      1.1064                 1.1009                 1.0999
 Frc consts  --      6.1469                 6.1193                 6.1962
 IR Inten    --     22.6071                38.3795                19.0656

                    100                    101                    102
                      A                      A                      A
 Frequencies --   3096.3803              3098.1980              3101.5207
 Red. masses --      1.1021                 1.1009                 1.1008
 Frc consts  --      6.2253                 6.2260                 6.2390
 IR Inten    --     67.3682                33.8453                37.7205

                    103                    104                    105
                      A                      A                      A
 Frequencies --   3102.9663              3107.7646              3816.1981
 Red. masses --      1.0949                 1.0959                 1.0661
 Frc consts  --      6.2115                 6.2360                 9.1478
 IR Inten    --     51.2821                31.1993                18.0392

 - Thermochemistry -
 -------------------
 Temperature   298.150 Kelvin.  Pressure   1.00000 Atm.
 Atom     1 has atomic number  6 and mass  12.00000

 Molecular mass:   188.17763 amu.
 Principal axes and moments of inertia in atomic units:
                           1         2         3
     Eigenvalues --  2265.316784260.436086243.15070
           X            0.99998   0.00341  -0.00518
           Y           -0.00342   0.99999  -0.00171
           Z            0.00517   0.00173   0.99999
 This molecule is an asymmetric top.
 Rotational symmetry number  1.
 Warning -- assumption of classical behavior for rotation
           may cause significant error
 Rotational temperatures (Kelvin)      0.03823     0.02033     0.01387
 Rotational constants (GHZ):           0.79668     0.42360     0.28908
 Zero-point vibrational energy     891255.6 (Joules/Mol)
                                  213.01520 (Kcal/Mol)
 Warning -- explicit consideration of  25 degrees of freedom as
           vibrations may cause significant error
 Vibrational temperatures:     42.44    61.28    77.92   105.55   117.86
          (Kelvin)            129.43   153.92   172.93   202.17   259.07
                              277.40   329.81   345.95   354.16   364.92
                              404.14   425.24   442.20   473.83   558.71
                              581.64   629.85   713.25   753.67   849.48
                             1055.93  1064.81  1141.08  1229.61  1270.11
                             1296.36  1301.97  1307.43  1370.01  1418.74
                             1437.77  1468.17  1513.26  1531.77  1540.87
                             1556.22  1561.83  1611.53  1620.00  1635.50
                             1652.03  1670.42  1705.23  1737.80  1757.83
                             1789.18  1823.36  1832.65  1861.26  1884.70
                             1900.63  1910.41  1919.51  1948.09  1974.58
                             1981.56  1988.79  2006.57  2011.61  2026.38
                             2031.42  2033.08  2044.36  2127.33  2128.90
                             2134.09  2139.29  2147.83  2155.75  2157.42
                             2157.46  2161.21  2169.87  2175.86  2176.76
                             2182.49  4223.83  4276.50  4296.50  4312.98
                             4322.34  4333.36  4340.66  4342.21  4353.77
                             4355.38  4356.15  4362.12  4369.28  4391.49
                             4396.87  4418.18  4419.14  4448.98  4455.00
                             4457.62  4462.40  4464.48  4471.38  5490.66

 Zero-point correction=                           0.339461 (Hartree/Particle)
 Thermal correction to Energy=                    0.356801
 Thermal correction to Enthalpy=                  0.357745
 Thermal correction to Gibbs Free Energy=         0.293371
 Sum of electronic and zero-point Energies=           -583.766687
 Sum of electronic and thermal Energies=              -583.749348
 Sum of electronic and thermal Enthalpies=            -583.748404
 Sum of electronic and thermal Free Energies=         -583.812778

                     E (Thermal)             CV                S
                      KCal/Mol        Cal/Mol-Kelvin    Cal/Mol-Kelvin
 Total                  223.896             61.879            135.486
 Electronic               0.000              0.000              0.000
 Translational            0.889              2.981             41.603
 Rotational               0.889              2.981             32.466
 Vibrational            222.118             55.917             61.418
 Vibration     1          0.593              1.984              5.863
 Vibration     2          0.595              1.980              5.135
 Vibration     3          0.596              1.976              4.659
 Vibration     4          0.599              1.967              4.061
 Vibration     5          0.600              1.962              3.844
 Vibration     6          0.602              1.956              3.661
 Vibration     7          0.606              1.944              3.323
 Vibration     8          0.609              1.932              3.097
 Vibration     9          0.615              1.913              2.797
 Vibration    10          0.629              1.867              2.328
 Vibration    11          0.635              1.850              2.201
 Vibration    12          0.652              1.796              1.885
 Vibration    13          0.658              1.778              1.800
 Vibration    14          0.661              1.769              1.758
 Vibration    15          0.665              1.757              1.705
 Vibration    16          0.681              1.709              1.528
 Vibration    17          0.690              1.682              1.442
 Vibration    18          0.697              1.660              1.377
 Vibration    19          0.712              1.617              1.263
 Vibration    20          0.756              1.495              1.007
 Vibration    21          0.769              1.461              0.947
 Vibration    22          0.798              1.388              0.834
 Vibration    23          0.851              1.259              0.669
 Vibration    24          0.879              1.197              0.601
 Vibration    25          0.948              1.052              0.466

 Optimization completed.
    -- Stationary point found.
 Normal termination of Gaussian 16 at Tue May 23 16:05:36 2023.
