 Gaussian 16, Revision A.03,
 Gaussian 16:  ES64L-G16RevA.03 25-Dec-2016

 -----------------------------
 # opt freq b3lyp/6-31g(2df,p)
 -----------------------------

 -------------------
 Title Card Required
 -------------------
 Symbolic Z-matrix:
 Charge =  0 Multiplicity = 1

 SCF Done:  E(RB3LYP) =  -779.445507745     A.U. after   12 cycles
 SCF Done:  E(RB3LYP) =  -779.457041915     A.U. after   10 cycles
 SCF Done:  E(RB3LYP) =  -779.459317204     A.U. after   10 cycles
 SCF Done:  E(RB3LYP) =  -779.460341604     A.U. after   10 cycles
 SCF Done:  E(RB3LYP) =  -779.461046003     A.U. after   11 cycles
 SCF Done:  E(RB3LYP) =  -779.461250605     A.U. after    9 cycles
 SCF Done:  E(RB3LYP) =  -779.461332320     A.U. after   10 cycles
 SCF Done:  E(RB3LYP) =  -779.461345068     A.U. after    8 cycles
 SCF Done:  E(RB3LYP) =  -779.461354411     A.U. after    8 cycles
 SCF Done:  E(RB3LYP) =  -779.461355558     A.U. after    7 cycles
 SCF Done:  E(RB3LYP) =  -779.461355745     A.U. after    6 cycles
 SCF Done:  E(RB3LYP) =  -779.461355782     A.U. after    6 cycles
 SCF Done:  E(RB3LYP) =  -779.461355791     A.U. after    5 cycles
 Optimization completed.
    -- Stationary point found.
 Normal termination of Gaussian 16 at Mon May 22 16:16:46 2023.

 ----------------------------------------------------------------------
 #N Geom=AllCheck Guess=TCheck SCRF=Check GenChk RB3LYP/6-31G(2df,p) Fr
 eq
 ----------------------------------------------------------------------

 Structure from the checkpoint file:  "CCCCCCCCCOCC1CCC1CCO.chk"
 -------------------
 Title Card Required
 -------------------
 Charge =  0 Multiplicity = 1

                         Standard orientation:
 ---------------------------------------------------------------------
 Center     Atomic      Atomic             Coordinates (Angstroms)
 Number     Number       Type             X           Y           Z
 ---------------------------------------------------------------------
      1          6           0        9.222017    0.217850    0.186437
      2          6           0        7.845254    0.750868   -0.219284
      3          6           0        6.695155   -0.180763    0.178112
      4          6           0        5.313348    0.345322   -0.223879
      5          6           0        4.163802   -0.586742    0.174016
      6          6           0        2.782222   -0.059684   -0.227856
      7          6           0        1.633501   -0.992695    0.170849
      8          6           0        0.255025   -0.459646   -0.233091
      9          6           0       -0.878484   -1.392708    0.169732
     10          8           0       -2.108007   -0.835227   -0.249554
     11          6           0       -3.224909   -1.644759    0.056426
     12          6           0       -4.497517   -0.965790   -0.406500
     13          6           0       -5.826059   -1.742544   -0.198330
     14          6           0       -6.512940   -0.400674    0.164183
     15          6           0       -5.108673    0.219205    0.410602
     16          6           0       -4.874925    1.661244   -0.024236
     17          6           0       -3.486664    2.203628    0.323878
     18          8           0       -3.317756    3.562530   -0.063500
     19          1           0       10.021396    0.904121   -0.110517
     20          1           0        9.424984   -0.751838   -0.281962
     21          1           0        9.288796    0.078979    1.271386
     22          1           0        7.820276    0.912932   -1.305178
     23          1           0        7.685160    1.737185    0.236299
     24          1           0        6.720294   -0.343831    1.264894
     25          1           0        6.855184   -1.168340   -0.277363
     26          1           0        5.288884    0.508237   -1.310563
     27          1           0        5.154093    1.332718    0.231761
     28          1           0        4.188165   -0.749655    1.260695
     29          1           0        4.322592   -1.574197   -0.281849
     30          1           0        2.756503    0.102722   -1.314350
     31          1           0        2.622200    0.927091    0.228156
     32          1           0        1.659836   -1.154699    1.257493
     33          1           0        1.793540   -1.979485   -0.285736
     34          1           0        0.212961   -0.307866   -1.318691
     35          1           0        0.082668    0.521324    0.226441
     36          1           0       -0.882157   -1.544738    1.263167
     37          1           0       -0.738630   -2.386756   -0.290050
     38          1           0       -3.272710   -1.839259    1.142817
     39          1           0       -3.125813   -2.627370   -0.439010
     40          1           0       -4.380683   -0.674745   -1.457094
     41          1           0       -5.765438   -2.412956    0.665785
     42          1           0       -6.219676   -2.308502   -1.045892
     43          1           0       -7.222645   -0.397298    0.995007
     44          1           0       -6.997858    0.052805   -0.706509
     45          1           0       -4.836565    0.101484    1.468283
     46          1           0       -5.627087    2.311337    0.441567
     47          1           0       -5.031522    1.738803   -1.110880
     48          1           0       -2.710279    1.557793   -0.106486
     49          1           0       -3.348948    2.190815    1.411574
     50          1           0       -3.332338    3.592103   -1.025136
 ---------------------------------------------------------------------

 SCF Done:  E(RB3LYP) =  -779.461355791     A.U. after    1 cycles

 The electronic state is 1-A.
 Alpha  occ. eigenvalues --  -19.13821 -19.11998 -10.22405 -10.22355 -10.20852
 Alpha  occ. eigenvalues --  -10.18264 -10.18228 -10.17962 -10.17885 -10.17666
 Alpha  occ. eigenvalues --  -10.17659 -10.17544 -10.17495 -10.17420 -10.17328
 Alpha  occ. eigenvalues --  -10.17286 -10.16999 -10.16918  -1.03096  -0.99970
 Alpha  occ. eigenvalues --   -0.84748  -0.80926  -0.79076  -0.76182  -0.74713
 Alpha  occ. eigenvalues --   -0.72770  -0.69904  -0.65982  -0.64691  -0.61723
 Alpha  occ. eigenvalues --   -0.60332  -0.59276  -0.58259  -0.57319  -0.56938
 Alpha  occ. eigenvalues --   -0.54536  -0.49190  -0.48789  -0.48377  -0.47566
 Alpha  occ. eigenvalues --   -0.47126  -0.46100  -0.45170  -0.43258  -0.42926
 Alpha  occ. eigenvalues --   -0.42678  -0.41259  -0.40948  -0.40577  -0.39944
 Alpha  occ. eigenvalues --   -0.38680  -0.38179  -0.37557  -0.36801  -0.35544
 Alpha  occ. eigenvalues --   -0.34844  -0.34833  -0.34394  -0.33047  -0.32994
 Alpha  occ. eigenvalues --   -0.32703  -0.32358  -0.31966  -0.31926  -0.31680
 Alpha  occ. eigenvalues --   -0.31650  -0.30977  -0.29676  -0.29196  -0.28871
 Alpha  occ. eigenvalues --   -0.25546  -0.24714
 Alpha virt. eigenvalues --    0.08384   0.08696   0.09075   0.09571   0.09796
 Alpha virt. eigenvalues --    0.09926   0.10786   0.11147   0.11456   0.12103
 Alpha virt. eigenvalues --    0.12930   0.13190   0.14042   0.14145   0.15061

 Mulliken charges:
               1
     1  C   -0.379074
     2  C   -0.162800
     3  C   -0.158446
     4  C   -0.177871
     5  C   -0.181789
     6  C   -0.180102
     7  C   -0.183277
     8  C   -0.203739
     9  C   -0.050399
    10  O   -0.243539
    11  C   -0.078803
    12  C    0.010760
    13  C   -0.248820
    14  C   -0.247669
    15  C    0.040277
    16  C   -0.226145
    17  C   -0.082002
    18  O   -0.422519
    19  H    0.109743
    20  H    0.112150
    21  H    0.112397
    22  H    0.092851
    23  H    0.093334
    24  H    0.089709
    25  H    0.089324
    26  H    0.090494
    27  H    0.091479
    28  H    0.090817
    29  H    0.090190
    30  H    0.092415
    31  H    0.094758
    32  H    0.093735
    33  H    0.092847
    34  H    0.101983
    35  H    0.109541
    36  H    0.083887
    37  H    0.083281
    38  H    0.079177
    39  H    0.083007
    40  H    0.072802
    41  H    0.097957
    42  H    0.097307
    43  H    0.095668
    44  H    0.098521
    45  H    0.063964
    46  H    0.100086
    47  H    0.076623
    48  H    0.118665
    49  H    0.100021
    50  H    0.277225
 Sum of Mulliken charges =  -0.00000

 Dipole moment (field-independent basis, Debye):
    X=              0.1616    Y=             -2.1010    Z=             -0.6085  Tot=              2.1933
 Quadrupole moment (field-independent basis, Debye-Ang):
   XX=           -114.2483   YY=           -122.4078   ZZ=           -111.9643
   XY=              5.9553   XZ=              2.1192   YZ=             -3.8720

  Exact polarizability: 233.172   6.609 172.945   0.478  -1.554 152.039
 Approx polarizability: 247.707   0.812 247.611   0.025  -1.063 245.893

                      1                      2                      3
                      A                      A                      A
 Frequencies --     14.7941                21.6099                23.5010
 Red. masses --      4.1778                 1.7707                 3.7622
 Frc consts  --      0.0005                 0.0005                 0.0012
 IR Inten    --      0.1477                 0.0217                 0.0146

                      4                      5                      6
                      A                      A                      A
 Frequencies --     37.0698                49.5311                65.5526
 Red. masses --      3.0254                 3.1630                 2.6404
 Frc consts  --      0.0024                 0.0046                 0.0067
 IR Inten    --      0.2432                 0.3515                 0.2620

                      7                      8                      9
                      A                      A                      A
 Frequencies --     74.9460                88.5469                91.9504
 Red. masses --      1.7450                 3.1378                 3.1980
 Frc consts  --      0.0058                 0.0145                 0.0159
 IR Inten    --      0.6966                 3.0305                 0.5503

                     10                     11                     12
                      A                      A                      A
 Frequencies --    101.8883               115.0535               120.2109
 Red. masses --      2.5182                 2.3674                 2.0483
 Frc consts  --      0.0154                 0.0185                 0.0174
 IR Inten    --      1.5291                 1.2013                 0.3164

                     13                     14                     15
                      A                      A                      A
 Frequencies --    145.5812               156.8576               159.3859
 Red. masses --      3.1533                 1.9747                 2.6891
 Frc consts  --      0.0394                 0.0286                 0.0402
 IR Inten    --      1.0115                 0.6813                 0.6527

                     16                     17                     18
                      A                      A                      A
 Frequencies --    167.3029               174.3533               184.5464
 Red. masses --      3.9213                 2.4797                 2.2203
 Frc consts  --      0.0647                 0.0444                 0.0446
 IR Inten    --      0.0704                 2.2571                 0.9449

                     19                     20                     21
                      A                      A                      A
 Frequencies --    223.4617               247.6808               287.2558
 Red. masses --      3.0613                 1.1204                 1.4200
 Frc consts  --      0.0901                 0.0405                 0.0690
 IR Inten    --      0.7374                 0.0008                54.5022

                     22                     23                     24
                      A                      A                      A
 Frequencies --    289.1997               294.1686               332.5874
 Red. masses --      2.8702                 2.1240                 2.9111
 Frc consts  --      0.1414                 0.1083                 0.1897
 IR Inten    --      0.4285                45.1662                 1.8949

                     25                     26                     27
                      A                      A                      A
 Frequencies --    360.5247               369.1226               422.4947
 Red. masses --      3.8435                 3.3016                 3.0819
 Frc consts  --      0.2943                 0.2650                 0.3241
 IR Inten    --      3.0902                 0.1564                 1.2706

                     28                     29                     30
                      A                      A                      A
 Frequencies --    443.4160               488.7481               527.4209
 Red. masses --      3.7727                 2.7942                 3.5111
 Frc consts  --      0.4370                 0.3933                 0.5754
 IR Inten    --      1.9083                 1.1521                 6.2685

                     31                     32                     33
                      A                      A                      A
 Frequencies --    536.9509               654.0440               731.3311
 Red. masses --      2.3913                 2.0283                 1.0594
 Frc consts  --      0.4062                 0.5112                 0.3338
 IR Inten    --      0.4969                 1.7171                 5.0422

                     34                     35                     36
                      A                      A                      A
 Frequencies --    734.5763               749.3683               759.6972
 Red. masses --      1.0733                 1.1000                 1.6526
 Frc consts  --      0.3412                 0.3639                 0.5620
 IR Inten    --      0.1782                 1.2114                 1.6965

                     37                     38                     39
                      A                      A                      A
 Frequencies --    781.9231               804.5903               827.6776
 Red. masses --      1.1407                 1.3783                 1.5095
 Frc consts  --      0.4109                 0.5257                 0.6093
 IR Inten    --      0.0889                 1.6731                 0.3473

                     40                     41                     42
                      A                      A                      A
 Frequencies --    834.2699               897.6895               900.8910
 Red. masses --      1.1867                 1.9490                 1.2411
 Frc consts  --      0.4867                 0.9254                 0.5935
 IR Inten    --      0.0848                 1.3196                 0.3053

                     43                     44                     45
                      A                      A                      A
 Frequencies --    908.9934               929.1334               953.2193
 Red. masses --      1.5124                 1.8583                 2.1194
 Frc consts  --      0.7363                 0.9452                 1.1346
 IR Inten    --      1.1327                 0.3983                 1.5240

                     46                     47                     48
                      A                      A                      A
 Frequencies --    974.9226               982.8976               990.8469
 Red. masses --      1.1812                 5.4656                 1.6654
 Frc consts  --      0.6615                 3.1110                 0.9633
 IR Inten    --      0.1111                12.6764                15.1649

                     49                     50                     51
                      A                      A                      A
 Frequencies --   1001.7217              1007.6333              1018.9323
 Red. masses --      2.5709                 3.6985                 2.7251
 Frc consts  --      1.5200                 2.2125                 1.6669
 IR Inten    --      9.2738                 0.7086                 1.2900

                     52                     53                     54
                      A                      A                      A
 Frequencies --   1038.9930              1039.8773              1062.8470
 Red. masses --      1.0925                 3.3243                 2.5874
 Frc consts  --      0.6949                 2.1180                 1.7221
 IR Inten    --      0.1756                 0.9984                 0.3179

                     55                     56                     57
                      A                      A                      A
 Frequencies --   1068.4073              1070.5810              1070.9626
 Red. masses --      2.5245                 2.4155                 3.5004
 Frc consts  --      1.6978                 1.6312                 2.3655
 IR Inten    --      1.0946                27.0899                79.1591

                     58                     59                     60
                      A                      A                      A
 Frequencies --   1075.3140              1092.0120              1109.7667
 Red. masses --      2.7164                 2.6948                 2.0151
 Frc consts  --      1.8506                 1.8934                 1.4622
 IR Inten    --      6.7042                14.4708                 0.2558

                     61                     62                     63
                      A                      A                      A
 Frequencies --   1115.6477              1123.0199              1135.9370
 Red. masses --      1.7597                 2.2132                 2.0826
 Frc consts  --      1.2905                 1.6445                 1.5833
 IR Inten    --     11.8062                 0.7876                20.1107

                     64                     65                     66
                      A                      A                      A
 Frequencies --   1149.9641              1153.0179              1188.8635
 Red. masses --      3.0794                 4.6919                 1.6021
 Frc consts  --      2.3993                 3.6751                 1.3341
 IR Inten    --     29.7637               233.6085                 0.3030

                     67                     68                     69
                      A                      A                      A
 Frequencies --   1201.6296              1217.8929              1224.1110
 Red. masses --      1.7835                 1.5135                 1.4619
 Frc consts  --      1.5173                 1.3227                 1.2906
 IR Inten    --      2.8319                 0.0607                 3.5328

                     70                     71                     72
                      A                      A                      A
 Frequencies --   1235.5396              1250.7571              1255.0780
 Red. masses --      1.3065                 1.3105                 1.3333
 Frc consts  --      1.1751                 1.2079                 1.2375
 IR Inten    --      5.7216                 0.8759                 1.6924

                     73                     74                     75
                      A                      A                      A
 Frequencies --   1259.6915              1262.5634              1269.5387
 Red. masses --      1.2567                 1.3550                 1.3076
 Frc consts  --      1.1749                 1.2726                 1.2417
 IR Inten    --      2.8897                 0.5775                 1.7117

                     76                     77                     78
                      A                      A                      A
 Frequencies --   1278.6207              1288.3972              1299.0379
 Red. masses --      1.3136                 1.2757                 1.3468
 Frc consts  --      1.2653                 1.2477                 1.3391
 IR Inten    --      1.0394                 0.3511                 0.4475

                     79                     80                     81
                      A                      A                      A
 Frequencies --   1302.5880              1311.1717              1321.3292
 Red. masses --      1.2827                 1.1148                 1.2203
 Frc consts  --      1.2823                 1.1292                 1.2553
 IR Inten    --      5.4275                 0.1657                 1.9947

                     82                     83                     84
                      A                      A                      A
 Frequencies --   1321.9857              1323.5686              1326.2689
 Red. masses --      1.2271                 1.2336                 1.0425
 Frc consts  --      1.2635                 1.2732                 1.0804
 IR Inten    --      3.1910                 3.4567                 0.1621

                     85                     86                     87
                      A                      A                      A
 Frequencies --   1337.1712              1337.7351              1351.7439
 Red. masses --      1.0860                 1.1163                 1.3332
 Frc consts  --      1.1441                 1.1769                 1.4353
 IR Inten    --      0.0634                 0.0390                13.6056

                     88                     89                     90
                      A                      A                      A
 Frequencies --   1362.1190              1382.6718              1390.4698
 Red. masses --      1.3860                 1.3624                 1.4543
 Frc consts  --      1.5151                 1.5346                 1.6566
 IR Inten    --      1.2420                24.3061                 8.5691

                     91                     92                     93
                      A                      A                      A
 Frequencies --   1400.4833              1402.3420              1404.3436
 Red. masses --      1.5513                 1.4975                 1.5553
 Frc consts  --      1.7927                 1.7350                 1.8072
 IR Inten    --      8.4310                15.9758                13.5554

                     94                     95                     96
                      A                      A                      A
 Frequencies --   1408.0322              1413.3325              1425.5572
 Red. masses --      1.4045                 1.2605                 1.3076
 Frc consts  --      1.6406                 1.4834                 1.5656
 IR Inten    --     18.3158                 0.4288                29.5430

                     97                     98                     99
                      A                      A                      A
 Frequencies --   1452.4025              1481.8302              1482.2588
 Red. masses --      1.5278                 1.0728                 1.0740
 Frc consts  --      1.8988                 1.3880                 1.3903
 IR Inten    --      1.5236                 0.0950                 0.0015

                    100                    101                    102
                      A                      A                      A
 Frequencies --   1483.2377              1484.9141              1485.4785
 Red. masses --      1.0858                 1.0837                 1.0695
 Frc consts  --      1.4074                 1.4079                 1.3905
 IR Inten    --      0.2857                 3.1880                 0.2224

                    103                    104                    105
                      A                      A                      A
 Frequencies --   1488.6679              1494.9838              1499.8472
 Red. masses --      1.0770                 1.0812                 1.0403
 Frc consts  --      1.4062                 1.4237                 1.3788
 IR Inten    --      0.2051                 0.5584                 4.8901

                    106                    107                    108
                      A                      A                      A
 Frequencies --   1501.1111              1502.7203              1508.5923
 Red. masses --      1.1153                 1.1023                 1.0904
 Frc consts  --      1.4807                 1.4665                 1.4622
 IR Inten    --      1.6260                 0.5231                 3.9961

                    109                    110                    111
                      A                      A                      A
 Frequencies --   1512.7626              1516.3651              1518.8400
 Red. masses --      1.0918                 1.0965                 1.0915
 Frc consts  --      1.4721                 1.4855                 1.4836
 IR Inten    --      3.1117                 3.4276                 1.6705

                    112                    113                    114
                      A                      A                      A
 Frequencies --   1533.3121              2933.3220              2948.2422
 Red. masses --      1.0945                 1.0538                 1.0545
 Frc consts  --      1.5162                 5.3425                 5.4001
 IR Inten    --      0.9550                20.3441                78.8720

                    115                    116                    117
                      A                      A                      A
 Frequencies --   2961.4160              2969.9823              2992.8269
 Red. masses --      1.1039                 1.1050                 1.0651
 Frc consts  --      5.7039                 5.7428                 5.6207
 IR Inten    --     56.7811                32.5362                15.1865

                    118                    119                    120
                      A                      A                      A
 Frequencies --   2997.9052              2998.3531              3001.5607
 Red. masses --      1.0576                 1.0574                 1.0576
 Frc consts  --      5.6001                 5.6008                 5.6142
 IR Inten    --      0.5878                 0.2422                 4.5692

                    121                    122                    123
                      A                      A                      A
 Frequencies --   3004.3523              3011.4986              3011.8621
 Red. masses --      1.0589                 1.0795                 1.0596
 Frc consts  --      5.6315                 5.7679                 5.6631
 IR Inten    --      0.0314                10.2429                13.9146

                    124                    125                    126
                      A                      A                      A
 Frequencies --   3016.6503              3018.3478              3021.9512
 Red. masses --      1.0604                 1.0968                 1.0989
 Frc consts  --      5.6852                 5.8875                 5.9127
 IR Inten    --    118.9734                 2.9889                 0.3657

                    127                    128                    129
                      A                      A                      A
 Frequencies --   3024.9459              3027.6986              3028.2060
 Red. masses --      1.0611                 1.0357                 1.1009
 Frc consts  --      5.7204                 5.5939                 5.9481
 IR Inten    --     39.7052                40.6157                 1.0103

                    130                    131                    132
                      A                      A                      A
 Frequencies --   3029.8429              3039.1722              3039.8224
 Red. masses --      1.0591                 1.0873                 1.1038
 Frc consts  --      5.7281                 5.9168                 6.0095
 IR Inten    --     50.4135                 5.2782                 0.9305

                    133                    134                    135
                      A                      A                      A
 Frequencies --   3041.5736              3047.3547              3049.3159
 Red. masses --      1.0830                 1.0664                 1.0629
 Frc consts  --      5.9032                 5.8344                 5.8232
 IR Inten    --     33.0556                43.7332                44.5311

                    136                    137                    138
                      A                      A                      A
 Frequencies --   3052.1814              3062.3813              3073.7579
 Red. masses --      1.1051                 1.1052                 1.1070
 Frc consts  --      6.0655                 6.1070                 6.1624
 IR Inten    --      0.6365                87.6098                48.8225

                    139                    140                    141
                      A                      A                      A
 Frequencies --   3075.4770              3093.7380              3095.5807
 Red. masses --      1.1050                 1.1020                 1.1039
 Frc consts  --      6.1582                 6.2145                 6.2327
 IR Inten    --     94.5966                61.0893                23.0875

                    142                    143                    144
                      A                      A                      A
 Frequencies --   3099.2869              3109.3724              3817.5772
 Red. masses --      1.1009                 1.1066                 1.0661
 Frc consts  --      6.2306                 6.3038                 9.1546
 IR Inten    --     39.7311                58.1533                13.2384

 - Thermochemistry -
 -------------------
 Temperature   298.150 Kelvin.  Pressure   1.00000 Atm.
 Atom     1 has atomic number  6 and mass  12.00000

 Molecular mass:   256.24023 amu.
 Principal axes and moments of inertia in atomic units:
                           1         2         3
     Eigenvalues --  1989.22346********************
           X            1.00000   0.00257   0.00021
           Y           -0.00257   0.99996  -0.00875
           Z           -0.00024   0.00875   0.99996
 This molecule is an asymmetric top.
 Rotational symmetry number  1.
 Warning -- assumption of classical behavior for rotation
           may cause significant error
 Rotational temperatures (Kelvin)      0.04354     0.00390     0.00362
 Rotational constants (GHZ):           0.90726     0.08121     0.07544
 Zero-point vibrational energy    1206816.3 (Joules/Mol)
                                  288.43603 (Kcal/Mol)
 Warning -- explicit consideration of  31 degrees of freedom as
           vibrations may cause significant error
 Vibrational temperatures:     21.29    31.09    33.81    53.34    71.26
          (Kelvin)             94.32   107.83   127.40   132.30   146.59
                              165.54   172.96   209.46   225.68   229.32
                              240.71   250.86   265.52   321.51   356.36
                              413.30   416.09   423.24   478.52   518.71
                              531.09   607.88   637.98   703.20   758.84
                              772.55   941.02  1052.22  1056.89  1078.17
                             1093.03  1125.01  1157.63  1190.84  1200.33
                             1291.57  1296.18  1307.84  1336.82  1371.47
                             1402.70  1414.17  1425.61  1441.25  1449.76
                             1466.02  1494.88  1496.15  1529.20  1537.20
                             1540.33  1540.88  1547.14  1571.16  1596.71
                             1605.17  1615.78  1634.36  1654.54  1658.94
                             1710.51  1728.88  1752.28  1761.22  1777.67
                             1799.56  1805.78  1812.42  1816.55  1826.58
                             1839.65  1853.72  1869.03  1874.13  1886.48
                             1901.10  1902.04  1904.32  1908.21  1923.89
                             1924.70  1944.86  1959.79  1989.36  2000.58
                             2014.98  2017.66  2020.54  2025.84  2033.47
                             2051.06  2089.68  2132.02  2132.64  2134.05
                             2136.46  2137.27  2141.86  2150.95  2157.95
                             2159.76  2162.08  2170.53  2176.53  2181.71
                             2185.27  2206.09  4220.40  4241.86  4260.82
                             4273.14  4306.01  4313.32  4313.96  4318.58
                             4322.59  4332.87  4333.40  4340.29  4342.73
                             4347.91  4352.22  4356.18  4356.91  4359.27
                             4372.69  4373.63  4376.15  4384.46  4387.29
                             4391.41  4406.08  4422.45  4424.93  4451.20
                             4453.85  4459.18  4473.69  5492.64

 Zero-point correction=                           0.459652 (Hartree/Particle)
 Thermal correction to Energy=                    0.482473
 Thermal correction to Enthalpy=                  0.483417
 Thermal correction to Gibbs Free Energy=         0.403183
 Sum of electronic and zero-point Energies=           -779.001704
 Sum of electronic and thermal Energies=              -778.978883
 Sum of electronic and thermal Enthalpies=            -778.977939
 Sum of electronic and thermal Free Energies=         -779.058173

                     E (Thermal)             CV                S
                      KCal/Mol        Cal/Mol-Kelvin    Cal/Mol-Kelvin
 Total                  302.756             81.456            168.867
 Electronic               0.000              0.000              0.000
 Translational            0.889              2.981             42.523
 Rotational               0.889              2.981             35.313
 Vibrational            300.979             75.495             91.031
 Vibration     1          0.593              1.986              7.233
 Vibration     2          0.593              1.985              6.480
 Vibration     3          0.593              1.985              6.314
 Vibration     4          0.594              1.982              5.410
 Vibration     5          0.595              1.978              4.836
 Vibration     6          0.597              1.971              4.283
 Vibration     7          0.599              1.966              4.019
 Vibration     8          0.601              1.957              3.692
 Vibration     9          0.602              1.955              3.618
 Vibration    10          0.604              1.948              3.418
 Vibration    11          0.608              1.937              3.182
 Vibration    12          0.609              1.932              3.097
 Vibration    13          0.617              1.907              2.729
 Vibration    14          0.621              1.895              2.587
 Vibration    15          0.621              1.892              2.557
 Vibration    16          0.624              1.883              2.466
 Vibration    17          0.627              1.874              2.388
 Vibration    18          0.631              1.861              2.282
 Vibration    19          0.649              1.805              1.931
 Vibration    20          0.661              1.767              1.747
 Vibration    21          0.684              1.697              1.490
 Vibration    22          0.686              1.694              1.479
 Vibration    23          0.689              1.685              1.450
 Vibration    24          0.715              1.610              1.247
 Vibration    25          0.735              1.554              1.120
 Vibration    26          0.741              1.536              1.083
 Vibration    27          0.785              1.421              0.884
 Vibration    28          0.803              1.375              0.816
 Vibration    29          0.845              1.275              0.687
 Vibration    30          0.882              1.189              0.593
 Vibration    31          0.892              1.168              0.572

 Optimization completed.
    -- Stationary point found.
 Normal termination of Gaussian 16 at Mon May 22 21:32:21 2023.
