 Gaussian 16, Revision A.03,
 Gaussian 16:  ES64L-G16RevA.03 25-Dec-2016

 -----------------------------
 # opt freq b3lyp/6-31g(2df,p)
 -----------------------------

 -------------------
 Title Card Required
 -------------------
 Symbolic Z-matrix:
 Charge =  0 Multiplicity = 1

 SCF Done:  E(RB3LYP) =  -635.370105207     A.U. after   14 cycles
 SCF Done:  E(RB3LYP) =  -635.400755763     A.U. after   12 cycles
 SCF Done:  E(RB3LYP) =  -635.405463863     A.U. after   11 cycles
 SCF Done:  E(RB3LYP) =  -635.407676797     A.U. after   12 cycles
 SCF Done:  E(RB3LYP) =  -635.408094701     A.U. after   11 cycles
 SCF Done:  E(RB3LYP) =  -635.408172666     A.U. after    9 cycles
 SCF Done:  E(RB3LYP) =  -635.408209307     A.U. after    9 cycles
 SCF Done:  E(RB3LYP) =  -635.408218314     A.U. after    9 cycles
 SCF Done:  E(RB3LYP) =  -635.408222420     A.U. after    9 cycles
 SCF Done:  E(RB3LYP) =  -635.408223450     A.U. after    8 cycles
 SCF Done:  E(RB3LYP) =  -635.408223721     A.U. after    7 cycles
 SCF Done:  E(RB3LYP) =  -635.408223842     A.U. after    6 cycles
 Optimization completed.
    -- Stationary point found.
 Normal termination of Gaussian 16 at Sun May 28 19:52:30 2023.

 ----------------------------------------------------------------------
 #N Geom=AllCheck Guess=TCheck SCRF=Check GenChk RB3LYP/6-31G(2df,p) Fr
 eq
 ----------------------------------------------------------------------

 Structure from the checkpoint file:  "CCCC1qCCCtNrCCCqCNrNC1.chk"
 -------------------
 Title Card Required
 -------------------
 Charge =  0 Multiplicity = 1

                         Standard orientation:
 ---------------------------------------------------------------------
 Center     Atomic      Atomic             Coordinates (Angstroms)
 Number     Number       Type             X           Y           Z
 ---------------------------------------------------------------------
      1          6           0        1.674912    4.028351   -0.184739
      2          6           0        1.321183    2.606207   -0.633638
      3          6           0        0.770394    1.760208    0.522003
      4          6           0        0.485231    0.257676    0.238452
      5          6           0        1.851459   -0.469744    0.158831
      6          6           0        1.828407   -1.964744   -0.236501
      7          6           0        3.163610   -2.556164   -0.177981
      8          7           0        4.225371   -3.009869   -0.126148
      9          6           0       -0.352582    0.048357   -1.044945
     10          6           0       -1.767469    0.638296   -0.935071
     11          6           0       -2.511654    0.136183    0.313249
     12          6           0       -3.049773   -1.305270    0.160124
     13          7           0       -4.044122   -1.374366   -0.912683
     14          7           0       -1.657816    0.332923    1.488357
     15          6           0       -0.341339   -0.302539    1.421213
     16          1           0        2.049178    4.629035   -1.019565
     17          1           0        2.447911    4.017752    0.591679
     18          1           0        0.799597    4.540694    0.229746
     19          1           0        2.213073    2.138416   -1.069105
     20          1           0        0.582956    2.661934   -1.442495
     21          1           0       -0.152716    2.217546    0.890215
     22          1           0        1.480675    1.808395    1.359916
     23          1           0        2.348509   -0.381704    1.132218
     24          1           0        2.495108    0.049077   -0.558337
     25          1           0        1.446061   -2.095909   -1.253679
     26          1           0        1.173444   -2.542783    0.423809
     27          1           0       -0.441587   -1.026589   -1.242576
     28          1           0        0.162525    0.469570   -1.915115
     29          1           0       -2.353203    0.374554   -1.819454
     30          1           0       -1.711893    1.730751   -0.890677
     31          1           0       -3.391750    0.779450    0.458558
     32          1           0       -3.430176   -1.628197    1.146727
     33          1           0       -2.237072   -1.993649   -0.097046
     34          1           0       -4.879653   -0.862279   -0.643442
     35          1           0       -4.336094   -2.334643   -1.062580
     36          1           0       -2.141443    0.039358    2.329715
     37          1           0       -0.400134   -1.402289    1.335390
     38          1           0        0.178386   -0.090204    2.363428
 ---------------------------------------------------------------------

 SCF Done:  E(RB3LYP) =  -635.408223842     A.U. after    1 cycles

 The electronic state is 1-A.
 Alpha  occ. eigenvalues --  -14.31944 -14.31619 -14.31546 -10.22983 -10.21347
 Alpha  occ. eigenvalues --  -10.21092 -10.20823 -10.20794 -10.19912 -10.19813
 Alpha  occ. eigenvalues --  -10.18188 -10.17934 -10.17517 -10.17285 -10.17213
 Alpha  occ. eigenvalues --   -0.91704  -0.89443  -0.88065  -0.83164  -0.78665
 Alpha  occ. eigenvalues --   -0.77050  -0.75404  -0.69274  -0.66577  -0.65435
 Alpha  occ. eigenvalues --   -0.63553  -0.59612  -0.57534  -0.52342  -0.51118
 Alpha  occ. eigenvalues --   -0.51002  -0.48675  -0.47727  -0.46972  -0.46059
 Alpha  occ. eigenvalues --   -0.44701  -0.43676  -0.43393  -0.41510  -0.40805
 Alpha  occ. eigenvalues --   -0.39752  -0.39356  -0.38846  -0.37495  -0.37179
 Alpha  occ. eigenvalues --   -0.36749  -0.35854  -0.34855  -0.33901  -0.32955
 Alpha  occ. eigenvalues --   -0.32659  -0.32338  -0.31544  -0.30855  -0.30305
 Alpha  occ. eigenvalues --   -0.29713  -0.24479  -0.22089
 Alpha virt. eigenvalues --    0.04136   0.04483   0.06275   0.07661   0.08222
 Alpha virt. eigenvalues --    0.08737   0.10169   0.11042   0.12060   0.12220
 Alpha virt. eigenvalues --    0.13798   0.14401   0.14798   0.15425   0.16483

 Mulliken charges:
               1
     1  C   -0.378783
     2  C   -0.192532
     3  C   -0.194697
     4  C    0.260729
     5  C   -0.230150
     6  C   -0.374945
     7  C    0.264271
     8  N   -0.308633
     9  C   -0.245336
    10  C   -0.210870
    11  C    0.036600
    12  C   -0.164824
    13  N   -0.502834
    14  N   -0.301411
    15  C   -0.204666
    16  H    0.110464
    17  H    0.114587
    18  H    0.115201
    19  H    0.096389
    20  H    0.101236
    21  H    0.115620
    22  H    0.083048
    23  H    0.114351
    24  H    0.118177
    25  H    0.155470
    26  H    0.150701
    27  H    0.092278
    28  H    0.096137
    29  H    0.117105
    30  H    0.099517
    31  H    0.064135
    32  H    0.068029
    33  H    0.099783
    34  H    0.225799
    35  H    0.229377
    36  H    0.212781
    37  H    0.072690
    38  H    0.095204
 Sum of Mulliken charges =  -0.00000

 Dipole moment (field-independent basis, Debye):
    X=             -5.0983    Y=              0.8920    Z=              0.7586  Tot=              5.2310
 Quadrupole moment (field-independent basis, Debye-Ang):
   XX=           -107.5578   YY=           -100.9069   ZZ=            -93.4170
   XY=             19.0754   XZ=             -2.9316   YZ=             -1.5604

  Exact polarizability: 167.156  -2.993 148.708   1.873  -0.782 121.777
 Approx polarizability: 226.332 -13.307 201.706   2.956   0.300 192.008

                      1                      2                      3
                      A                      A                      A
 Frequencies --     40.3268                51.5596                63.0486
 Red. masses --      3.7143                 4.1256                 2.9606
 Frc consts  --      0.0036                 0.0065                 0.0069
 IR Inten    --      5.8106                 1.3944                 0.9414

                      4                      5                      6
                      A                      A                      A
 Frequencies --     74.6452                91.8789               101.9580
 Red. masses --      2.7030                 2.0767                 2.9877
 Frc consts  --      0.0089                 0.0103                 0.0183
 IR Inten    --      0.5257                 0.2233                 3.0688

                      7                      8                      9
                      A                      A                      A
 Frequencies --    124.1843               146.7435               204.1113
 Red. masses --      2.5263                 3.1165                 2.8441
 Frc consts  --      0.0230                 0.0395                 0.0698
 IR Inten    --      2.0149                 6.5415                 0.9737

                     10                     11                     12
                      A                      A                      A
 Frequencies --    212.8968               229.8659               248.5874
 Red. masses --      2.7425                 2.3543                 1.3746
 Frc consts  --      0.0732                 0.0733                 0.0500
 IR Inten    --      1.3099                 2.1035                19.7824

                     13                     14                     15
                      A                      A                      A
 Frequencies --    252.1771               270.2603               299.6830
 Red. masses --      1.2619                 2.4007                 2.5910
 Frc consts  --      0.0473                 0.1033                 0.1371
 IR Inten    --      2.8154                 0.9216                 7.4207

                     16                     17                     18
                      A                      A                      A
 Frequencies --    322.2612               358.6926               394.0248
 Red. masses --      2.7673                 2.1522                 3.1896
 Frc consts  --      0.1693                 0.1631                 0.2918
 IR Inten    --      0.4493                 0.6607                 2.3226

                     19                     20                     21
                      A                      A                      A
 Frequencies --    410.5697               412.3729               431.1060
 Red. masses --      2.5698                 2.5821                 2.2846
 Frc consts  --      0.2552                 0.2587                 0.2502
 IR Inten    --      0.8499                 6.4146                 3.7252

                     22                     23                     24
                      A                      A                      A
 Frequencies --    490.0697               497.2934               528.4529
 Red. masses --      3.4688                 3.6973                 3.0634
 Frc consts  --      0.4909                 0.5387                 0.5040
 IR Inten    --      8.9843                 3.2380                 8.3479

                     25                     26                     27
                      A                      A                      A
 Frequencies --    588.8773               644.3034               731.0742
 Red. masses --      4.0011                 2.1882                 2.7094
 Frc consts  --      0.8175                 0.5352                 0.8532
 IR Inten    --      2.0240                42.3584                 6.3668

                     28                     29                     30
                      A                      A                      A
 Frequencies --    744.6952               747.7424               760.0472
 Red. masses --      1.2335                 1.3900                 1.4405
 Frc consts  --      0.4030                 0.4579                 0.4903
 IR Inten    --     21.4727                 6.3746                 7.1586

                     31                     32                     33
                      A                      A                      A
 Frequencies --    794.6228               859.8654               868.5040
 Red. masses --      1.8522                 1.6015                 1.3531
 Frc consts  --      0.6891                 0.6977                 0.6013
 IR Inten    --     42.6763                70.2773                 7.5898

                     34                     35                     36
                      A                      A                      A
 Frequencies --    877.5637               909.9179               930.9107
 Red. masses --      1.8112                 2.2258                 1.9743
 Frc consts  --      0.8218                 1.0858                 1.0081
 IR Inten    --      7.8595                 6.1350                 2.6440

                     37                     38                     39
                      A                      A                      A
 Frequencies --    939.6807               950.0489               985.1716
 Red. masses --      1.8694                 3.4227                 2.2513
 Frc consts  --      0.9725                 1.8202                 1.2874
 IR Inten    --      2.3557                 1.8031                 9.6871

                     40                     41                     42
                      A                      A                      A
 Frequencies --    991.9976              1001.2321              1009.9117
 Red. masses --      2.1940                 2.0736                 2.2137
 Frc consts  --      1.2720                 1.2248                 1.3303
 IR Inten    --      2.6195                 1.5246                 1.5881

                     43                     44                     45
                      A                      A                      A
 Frequencies --   1033.6293              1050.2341              1066.1454
 Red. masses --      1.8244                 2.5654                 1.9105
 Frc consts  --      1.1484                 1.6672                 1.2794
 IR Inten    --      4.1460                 0.3578                 1.1370

                     46                     47                     48
                      A                      A                      A
 Frequencies --   1079.0939              1094.2660              1104.7865
 Red. masses --      2.4800                 1.8808                 1.9795
 Frc consts  --      1.7015                 1.3269                 1.4235
 IR Inten    --     14.0240                 0.4383                 1.4851

                     49                     50                     51
                      A                      A                      A
 Frequencies --   1112.3245              1160.9315              1172.6836
 Red. masses --      1.5832                 2.4335                 2.1700
 Frc consts  --      1.1541                 1.9324                 1.7582
 IR Inten    --      6.4041                 3.5842                22.8520

                     52                     53                     54
                      A                      A                      A
 Frequencies --   1192.7485              1195.8415              1207.2524
 Red. masses --      1.8854                 2.1305                 1.3092
 Frc consts  --      1.5803                 1.7951                 1.1242
 IR Inten    --      9.0484                 8.4706                 3.9154

                     55                     56                     57
                      A                      A                      A
 Frequencies --   1245.4071              1261.5505              1281.1858
 Red. masses --      1.2441                 1.4047                 1.2687
 Frc consts  --      1.1369                 1.3171                 1.2269
 IR Inten    --      4.0230                 0.3393                 5.0241

                     58                     59                     60
                      A                      A                      A
 Frequencies --   1291.9202              1306.1124              1316.2896
 Red. masses --      1.2755                 1.2159                 1.3054
 Frc consts  --      1.2543                 1.2221                 1.3326
 IR Inten    --      1.0001                 6.7549                 1.0291

                     61                     62                     63
                      A                      A                      A
 Frequencies --   1323.1661              1335.0230              1342.5913
 Red. masses --      1.3230                 1.2427                 1.2105
 Frc consts  --      1.3647                 1.3050                 1.2856
 IR Inten    --      2.5889                14.3855                 0.3750

                     64                     65                     66
                      A                      A                      A
 Frequencies --   1346.9752              1371.4480              1376.2360
 Red. masses --      1.2949                 1.4390                 1.3177
 Frc consts  --      1.3842                 1.5947                 1.4705
 IR Inten    --      0.4441                 1.4095                 7.2178

                     67                     68                     69
                      A                      A                      A
 Frequencies --   1384.7510              1392.9898              1395.5566
 Red. masses --      1.3657                 1.3885                 1.5197
 Frc consts  --      1.5430                 1.5874                 1.7438
 IR Inten    --      9.3472                 0.6306                 0.1534

                     70                     71                     72
                      A                      A                      A
 Frequencies --   1412.4747              1413.2781              1422.2058
 Red. masses --      1.2950                 1.3683                 1.4320
 Frc consts  --      1.5223                 1.6102                 1.7065
 IR Inten    --      1.4903                 2.0760                 2.2677

                     73                     74                     75
                      A                      A                      A
 Frequencies --   1469.4118              1479.5313              1488.0330
 Red. masses --      1.0785                 1.0853                 1.0954
 Frc consts  --      1.3720                 1.3997                 1.4291
 IR Inten    --      0.6647                 3.6136                 6.4820

                     76                     77                     78
                      A                      A                      A
 Frequencies --   1490.3934              1491.4789              1497.4622
 Red. masses --      1.1129                 1.0993                 1.2016
 Frc consts  --      1.4565                 1.4408                 1.5875
 IR Inten    --      3.4796                 2.7224                 3.4509

                     79                     80                     81
                      A                      A                      A
 Frequencies --   1499.5935              1501.7146              1507.2121
 Red. masses --      1.0450                 1.0775                 1.0961
 Frc consts  --      1.3846                 1.4317                 1.4670
 IR Inten    --      5.0897                 6.1024                 0.5767

                     82                     83                     84
                      A                      A                      A
 Frequencies --   1512.9420              1513.9739              1658.4620
 Red. masses --      1.0864                 1.0963                 1.0895
 Frc consts  --      1.4651                 1.4805                 1.7656
 IR Inten    --      7.0721                 0.6358                24.0892

                     85                     86                     87
                      A                      A                      A
 Frequencies --   2360.4633              2924.9639              2931.0869
 Red. masses --     12.6026                 1.0737                 1.0714
 Frc consts  --     41.3719                 5.4121                 5.4231
 IR Inten    --     17.6130                73.9041                89.7319

                     88                     89                     90
                      A                      A                      A
 Frequencies --   2989.6356              3004.3539              3022.7884
 Red. masses --      1.0832                 1.0693                 1.0610
 Frc consts  --      5.7044                 5.6864                 5.7119
 IR Inten    --     42.1187                12.8513                12.6431

                     91                     92                     93
                      A                      A                      A
 Frequencies --   3028.9738              3029.3482              3035.7248
 Red. masses --      1.0364                 1.0621                 1.0666
 Frc consts  --      5.6025                 5.7425                 5.7915
 IR Inten    --     28.1599                38.1998                 4.4691

                     94                     95                     96
                      A                      A                      A
 Frequencies --   3042.3025              3049.0626              3052.8004
 Red. masses --      1.0832                 1.0773                 1.0789
 Frc consts  --      5.9071                 5.9009                 5.9243
 IR Inten    --     34.2075                17.7159                 5.4598

                     97                     98                     99
                      A                      A                      A
 Frequencies --   3054.7524              3060.0979              3069.6465
 Red. masses --      1.0673                 1.0858                 1.0941
 Frc consts  --      5.8680                 5.9906                 6.0739
 IR Inten    --     31.2003                43.5332                41.0089

                    100                    101                    102
                      A                      A                      A
 Frequencies --   3077.5640              3083.6664              3097.8991
 Red. masses --      1.0969                 1.0932                 1.1017
 Frc consts  --      6.1209                 6.1249                 6.2294
 IR Inten    --     15.9537                 7.4034                60.1309

                    103                    104                    105
                      A                      A                      A
 Frequencies --   3099.6978              3101.5153              3103.4554
 Red. masses --      1.1021                 1.1010                 1.1007
 Frc consts  --      6.2387                 6.2402                 6.2463
 IR Inten    --      9.8789                41.2184                19.1751

                    106                    107                    108
                      A                      A                      A
 Frequencies --   3489.9248              3526.8886              3569.5076
 Red. masses --      1.0497                 1.0742                 1.0920
 Frc consts  --      7.5329                 7.8725                 8.1974
 IR Inten    --      0.4506                 0.2249                 0.3901

 - Thermochemistry -
 -------------------
 Temperature   298.150 Kelvin.  Pressure   1.00000 Atm.
 Atom     1 has atomic number  6 and mass  12.00000

 Molecular mass:   209.18920 amu.
 Principal axes and moments of inertia in atomic units:
                           1         2         3
     Eigenvalues --  3094.522664546.017756648.85133
           X            0.99434   0.10623   0.00132
           Y           -0.10622   0.99432  -0.00671
           Z           -0.00203   0.00653   0.99998
 This molecule is an asymmetric top.
 Rotational symmetry number  1.
 Warning -- assumption of classical behavior for rotation
           may cause significant error
 Rotational temperatures (Kelvin)      0.02799     0.01905     0.01303
 Rotational constants (GHZ):           0.58321     0.39699     0.27144
 Zero-point vibrational energy     904367.0 (Joules/Mol)
                                  216.14891 (Kcal/Mol)
 Warning -- explicit consideration of  25 degrees of freedom as
           vibrations may cause significant error
 Vibrational temperatures:     58.02    74.18    90.71   107.40   132.19
          (Kelvin)            146.69   178.67   211.13   293.67   306.31
                              330.73   357.66   362.83   388.84   431.18
                              463.66   516.08   566.91   590.72   593.31
                              620.27   705.10   715.49   760.33   847.26
                              927.01  1051.85  1071.45  1075.83  1093.54
                             1143.28  1237.15  1249.58  1262.62  1309.17
                             1339.37  1351.99  1366.91  1417.44  1427.26
                             1440.55  1453.04  1487.16  1511.05  1533.95
                             1552.58  1574.40  1589.54  1600.39  1670.32
                             1687.23  1716.10  1720.55  1736.97  1791.86
                             1815.09  1843.34  1858.79  1879.20  1893.85
                             1903.74  1920.80  1931.69  1938.00  1973.21
                             1980.10  1992.35  2004.20  2007.89  2032.24
                             2033.39  2046.24  2114.16  2128.72  2140.95
                             2144.34  2145.91  2154.51  2157.58  2160.63
                             2168.54  2176.79  2178.27  2386.16  3396.18
                             4208.37  4217.18  4301.42  4322.60  4349.12
                             4358.02  4358.56  4367.73  4377.19  4386.92
                             4392.30  4395.11  4402.80  4416.54  4427.93
                             4436.71  4457.19  4459.77  4462.39  4465.18
                             5021.22  5074.41  5135.73

 Zero-point correction=                           0.344455 (Hartree/Particle)
 Thermal correction to Energy=                    0.361245
 Thermal correction to Enthalpy=                  0.362189
 Thermal correction to Gibbs Free Energy=         0.299856
 Sum of electronic and zero-point Energies=           -635.063769
 Sum of electronic and thermal Energies=              -635.046979
 Sum of electronic and thermal Enthalpies=            -635.046035
 Sum of electronic and thermal Free Energies=         -635.108367

                     E (Thermal)             CV                S
                      KCal/Mol        Cal/Mol-Kelvin    Cal/Mol-Kelvin
 Total                  226.684             63.655            131.190
 Electronic               0.000              0.000              0.000
 Translational            0.889              2.981             41.918
 Rotational               0.889              2.981             32.903
 Vibrational            224.907             57.694             56.369
 Vibration     1          0.594              1.981              5.243
 Vibration     2          0.596              1.977              4.757
 Vibration     3          0.597              1.972              4.359
 Vibration     4          0.599              1.966              4.027
 Vibration     5          0.602              1.955              3.620
 Vibration     6          0.604              1.948              3.417
 Vibration     7          0.610              1.929              3.034
 Vibration     8          0.617              1.906              2.714
 Vibration     9          0.640              1.834              2.096
 Vibration    10          0.644              1.821              2.019
 Vibration    11          0.652              1.795              1.880
 Vibration    12          0.662              1.765              1.741
 Vibration    13          0.664              1.759              1.715
 Vibration    14          0.674              1.728              1.595
 Vibration    15          0.692              1.674              1.419
 Vibration    16          0.707              1.631              1.299
 Vibration    17          0.734              1.557              1.128
 Vibration    18          0.761              1.483              0.985
 Vibration    19          0.775              1.447              0.925
 Vibration    20          0.776              1.443              0.918
 Vibration    21          0.792              1.402              0.855
 Vibration    22          0.846              1.272              0.683
 Vibration    23          0.853              1.256              0.665
 Vibration    24          0.883              1.187              0.591
 Vibration    25          0.946              1.055              0.469

                           ! Non-Optimized Parameters !
 Normal termination of Gaussian 16 at Sun May 28 23:16:55 2023.
