 Gaussian 16, Revision A.03,
 Gaussian 16:  ES64L-G16RevA.03 25-Dec-2016

 -----------------------------
 # opt freq b3lyp/6-31g(2df,p)
 -----------------------------

 -------------------
 Title Card Required
 -------------------
 Symbolic Z-matrix:
 Charge =  0 Multiplicity = 1

 SCF Done:  E(RB3LYP) =  -579.393024855     A.U. after   12 cycles
 SCF Done:  E(RB3LYP) =  -579.424899893     A.U. after   13 cycles
 SCF Done:  E(RB3LYP) =  -579.436842361     A.U. after   13 cycles
 SCF Done:  E(RB3LYP) =  -579.450343849     A.U. after   11 cycles
 SCF Done:  E(RB3LYP) =  -579.456484482     A.U. after   11 cycles
 SCF Done:  E(RB3LYP) =  -579.460159183     A.U. after   11 cycles
 SCF Done:  E(RB3LYP) =  -579.462660911     A.U. after   11 cycles
 SCF Done:  E(RB3LYP) =  -579.465609338     A.U. after   11 cycles
 SCF Done:  E(RB3LYP) =  -579.467533986     A.U. after   11 cycles
 SCF Done:  E(RB3LYP) =  -579.468733396     A.U. after   11 cycles
 SCF Done:  E(RB3LYP) =  -579.469301738     A.U. after   10 cycles
 SCF Done:  E(RB3LYP) =  -579.469346898     A.U. after    9 cycles
 SCF Done:  E(RB3LYP) =  -579.469371719     A.U. after    9 cycles
 SCF Done:  E(RB3LYP) =  -579.469377990     A.U. after    9 cycles
 SCF Done:  E(RB3LYP) =  -579.469380241     A.U. after    8 cycles
 SCF Done:  E(RB3LYP) =  -579.469381319     A.U. after    8 cycles
 SCF Done:  E(RB3LYP) =  -579.469381534     A.U. after    7 cycles
 SCF Done:  E(RB3LYP) =  -579.469381629     A.U. after    6 cycles
 SCF Done:  E(RB3LYP) =  -579.469381697     A.U. after    6 cycles
 Optimization completed.
    -- Stationary point found.
 Normal termination of Gaussian 16 at Mon May 22 15:58:20 2023.

 ----------------------------------------------------------------------
 #N Geom=AllCheck Guess=TCheck SCRF=Check GenChk RB3LYP/6-31G(2df,p) Fr
 eq
 ----------------------------------------------------------------------

 Structure from the checkpoint file:  "CCCC1COC1OCqCrOC.chk"
 -------------------
 Title Card Required
 -------------------
 Charge =  0 Multiplicity = 1

                         Standard orientation:
 ---------------------------------------------------------------------
 Center     Atomic      Atomic             Coordinates (Angstroms)
 Number     Number       Type             X           Y           Z
 ---------------------------------------------------------------------
      1          6           0       -4.093556    1.668116   -0.696534
      2          6           0       -2.847539    1.144244    0.022014
      3          6           0       -2.658341   -0.370560   -0.129159
      4          6           0       -1.406606   -0.892942    0.562872
      5          6           0       -0.997643   -2.366334    0.351811
      6          8           0        0.302881   -1.971525   -0.135129
      7          6           0       -0.036503   -0.581645   -0.070270
      8          8           0        0.789634    0.179040    0.757072
      9          6           0        1.886799    0.794692    0.140259
     10          6           0        2.515794    1.726523    1.165510
     11          8           0        2.776486   -0.213206   -0.287173
     12          6           0        3.646956    0.169984   -1.326868
     13          1           0       -4.204923    2.749059   -0.566685
     14          1           0       -5.001925    1.191146   -0.311749
     15          1           0       -4.045853    1.465082   -1.772248
     16          1           0       -2.904339    1.393799    1.089453
     17          1           0       -1.957928    1.662208   -0.359386
     18          1           0       -2.620605   -0.632510   -1.196142
     19          1           0       -3.537342   -0.889047    0.277450
     20          1           0       -1.395352   -0.607005    1.618366
     21          1           0       -1.576423   -2.895827   -0.416274
     22          1           0       -0.928295   -2.995258    1.246352
     23          1           0       -0.056029   -0.137223   -1.078919
     24          1           0        1.543562    1.361199   -0.748330
     25          1           0        2.827327    1.144691    2.036391
     26          1           0        1.796173    2.486114    1.481392
     27          1           0        3.389831    2.229284    0.743119
     28          1           0        4.186072   -0.727671   -1.637382
     29          1           0        4.381257    0.924966   -1.008344
     30          1           0        3.096615    0.570062   -2.193038
 ---------------------------------------------------------------------

 SCF Done:  E(RB3LYP) =  -579.469381697     A.U. after    1 cycles

 The electronic state is 1-A.
 Alpha  occ. eigenvalues --  -19.14752 -19.13749 -19.12422 -10.27836 -10.27081
 Alpha  occ. eigenvalues --  -10.22465 -10.22169 -10.18581 -10.18374 -10.18265
 Alpha  occ. eigenvalues --  -10.17497 -10.17459  -1.07895  -1.03419  -0.99874
 Alpha  occ. eigenvalues --   -0.80221  -0.76111  -0.74034  -0.68667  -0.67359
 Alpha  occ. eigenvalues --   -0.66104  -0.60019  -0.58665  -0.55987  -0.52496
 Alpha  occ. eigenvalues --   -0.50488  -0.48397  -0.46687  -0.45618  -0.44715
 Alpha  occ. eigenvalues --   -0.44096  -0.42059  -0.41352  -0.40910  -0.39360
 Alpha  occ. eigenvalues --   -0.39094  -0.37866  -0.37663  -0.35152  -0.34022
 Alpha  occ. eigenvalues --   -0.33731  -0.32948  -0.32469  -0.30709  -0.29772
 Alpha  occ. eigenvalues --   -0.28088  -0.25371  -0.24784
 Alpha virt. eigenvalues --    0.07893   0.08712   0.10652   0.10821   0.11152
 Alpha virt. eigenvalues --    0.12257   0.13032   0.14001   0.14131   0.14929
 Alpha virt. eigenvalues --    0.15954   0.16529   0.16728   0.17031   0.17637

 Mulliken charges:
               1
     1  C   -0.380914
     2  C   -0.161538
     3  C   -0.202838
     4  C   -0.078489
     5  C   -0.103987
     6  O   -0.281191
     7  C    0.252313
     8  O   -0.243397
     9  C    0.210644
    10  C   -0.404683
    11  O   -0.225387
    12  C   -0.233204
    13  H    0.112565
    14  H    0.114720
    15  H    0.114161
    16  H    0.099652
    17  H    0.099462
    18  H    0.094410
    19  H    0.096545
    20  H    0.089526
    21  H    0.094463
    22  H    0.104711
    23  H    0.057418
    24  H    0.050860
    25  H    0.138749
    26  H    0.122574
    27  H    0.117094
    28  H    0.135692
    29  H    0.105834
    30  H    0.104238
 Sum of Mulliken charges =  -0.00000

 Dipole moment (field-independent basis, Debye):
    X=             -0.9760    Y=              1.8372    Z=             -0.8037  Tot=              2.2302
 Quadrupole moment (field-independent basis, Debye-Ang):
   XX=            -68.9353   YY=            -74.9810   ZZ=            -72.8674
   XY=              6.2225   XZ=             -3.4738   YZ=             -1.1664

  Exact polarizability: 124.208   2.983 109.528  -1.700   0.290  95.667
 Approx polarizability: 149.599   3.771 149.416  -3.424  -0.544 143.642

                      1                      2                      3
                      A                      A                      A
 Frequencies --     24.1003                38.4028                65.5314
 Red. masses --      3.5250                 3.6142                 2.6367
 Frc consts  --      0.0012                 0.0031                 0.0067
 IR Inten    --      0.3259                 0.8405                 2.2301

                      4                      5                      6
                      A                      A                      A
 Frequencies --     79.0551                82.7695                96.7646
 Red. masses --      3.3716                 1.7145                 2.9884
 Frc consts  --      0.0124                 0.0069                 0.0165
 IR Inten    --      1.3279                 0.4754                 2.4484

                      7                      8                      9
                      A                      A                      A
 Frequencies --    154.2017               168.0750               196.1747
 Red. masses --      2.3680                 1.9456                 1.4671
 Frc consts  --      0.0332                 0.0324                 0.0333
 IR Inten    --      0.7086                 0.2988                 0.8427

                     10                     11                     12
                      A                      A                      A
 Frequencies --    220.5371               240.8829               257.9798
 Red. masses --      1.1236                 1.4503                 1.9065
 Frc consts  --      0.0322                 0.0496                 0.0748
 IR Inten    --      0.1334                 0.7261                 1.5746

                     13                     14                     15
                      A                      A                      A
 Frequencies --    305.2770               322.4517               336.8089
 Red. masses --      3.0708                 3.3306                 3.4280
 Frc consts  --      0.1686                 0.2040                 0.2291
 IR Inten    --      0.7200                 0.6028                 2.4378

                     16                     17                     18
                      A                      A                      A
 Frequencies --    392.2991               430.7234               484.9462
 Red. masses --      3.2213                 2.8312                 3.1426
 Frc consts  --      0.2921                 0.3095                 0.4354
 IR Inten    --      2.0387                 3.2046                 4.4289

                     19                     20                     21
                      A                      A                      A
 Frequencies --    584.8577               601.9797               741.5571
 Red. masses --      6.3409                 3.0213                 1.1783
 Frc consts  --      1.2779                 0.6451                 0.3818
 IR Inten    --      2.4464                 0.1568                 3.1176

                     22                     23                     24
                      A                      A                      A
 Frequencies --    770.1598               850.8006               857.8987
 Red. masses --      3.0042                 2.1227                 1.4559
 Frc consts  --      1.0499                 0.9053                 0.6313
 IR Inten    --      4.2001                14.4068                 6.6315

                     25                     26                     27
                      A                      A                      A
 Frequencies --    878.0722               908.7957               934.2078
 Red. masses --      1.5665                 1.9715                 2.2454
 Frc consts  --      0.7116                 0.9594                 1.1546
 IR Inten    --      8.2633                 2.7554                20.4716

                     28                     29                     30
                      A                      A                      A
 Frequencies --    989.5236               994.3132              1006.6302
 Red. masses --      1.7182                 3.4325                 7.5029
 Frc consts  --      0.9912                 1.9994                 4.4794
 IR Inten    --      4.2870                66.7534               252.2491

                     31                     32                     33
                      A                      A                      A
 Frequencies --   1034.1688              1055.2050              1072.3547
 Red. masses --      1.9887                 2.5783                 2.5690
 Frc consts  --      1.2532                 1.6914                 1.7405
 IR Inten    --      1.5828                 2.7110                16.4662

                     34                     35                     36
                      A                      A                      A
 Frequencies --   1106.2116              1120.2924              1134.1557
 Red. masses --      3.5728                 2.2475                 1.9940
 Frc consts  --      2.5759                 1.6620                 1.5112
 IR Inten    --    119.8116                 5.8130                 4.5945

                     37                     38                     39
                      A                      A                      A
 Frequencies --   1140.1416              1152.1858              1156.1293
 Red. masses --      2.5454                 1.6521                 2.7351
 Frc consts  --      1.9495                 1.2922                 2.1540
 IR Inten    --    124.1209                20.2830               219.9624

                     40                     41                     42
                      A                      A                      A
 Frequencies --   1169.1391              1183.0729              1199.8125
 Red. masses --      1.8628                 1.3008                 2.3591
 Frc consts  --      1.5002                 1.0727                 2.0009
 IR Inten    --     40.7988                 6.4314                40.5796

                     43                     44                     45
                      A                      A                      A
 Frequencies --   1233.8865              1241.7176              1270.0195
 Red. masses --      1.7240                 1.5604                 1.3365
 Frc consts  --      1.5465                 1.4175                 1.2701
 IR Inten    --     39.8948                 1.3302                 8.2970

                     46                     47                     48
                      A                      A                      A
 Frequencies --   1281.7301              1309.4651              1332.2963
 Red. masses --      1.3189                 1.3629                 1.1141
 Frc consts  --      1.2766                 1.3769                 1.1651
 IR Inten    --     10.6994                 3.5652                 0.7781

                     49                     50                     51
                      A                      A                      A
 Frequencies --   1347.9433              1367.4980              1383.2982
 Red. masses --      1.3553                 1.1937                 1.3187
 Frc consts  --      1.4509                 1.3152                 1.4867
 IR Inten    --      6.8258                57.5976                 6.4385

                     52                     53                     54
                      A                      A                      A
 Frequencies --   1391.2213              1401.3728              1409.5638
 Red. masses --      1.3102                 1.5912                 1.3415
 Frc consts  --      1.4941                 1.8412                 1.5704
 IR Inten    --     29.8857                 3.6145                43.7947

                     55                     56                     57
                      A                      A                      A
 Frequencies --   1413.7093              1443.4588              1474.8595
 Red. masses --      1.2472                 1.4329                 1.0968
 Frc consts  --      1.4686                 1.7591                 1.4057
 IR Inten    --      3.0967                 8.9076                 1.3300

                     58                     59                     60
                      A                      A                      A
 Frequencies --   1482.2786              1483.1087              1488.2732
 Red. masses --      1.0486                 1.0682                 1.0707
 Frc consts  --      1.3574                 1.3844                 1.3973
 IR Inten    --      6.9526                 0.3662                 1.1406

                     61                     62                     63
                      A                      A                      A
 Frequencies --   1494.0991              1497.7430              1499.8899
 Red. masses --      1.0702                 1.0730                 1.0404
 Frc consts  --      1.4075                 1.4182                 1.3790
 IR Inten    --      0.6493                 1.1377                 4.8537

                     64                     65                     66
                      A                      A                      A
 Frequencies --   1509.9991              1511.7851              1528.4870
 Red. masses --      1.0816                 1.0683                 1.1094
 Frc consts  --      1.4530                 1.4385                 1.5270
 IR Inten    --      3.7712                 5.2745                 0.7768

                     67                     68                     69
                      A                      A                      A
 Frequencies --   2900.6086              2963.9470              2974.9380
 Red. masses --      1.0811                 1.0824                 1.0385
 Frc consts  --      5.3589                 5.6025                 5.4151
 IR Inten    --     44.3858                52.3698                71.5639

                     70                     71                     72
                      A                      A                      A
 Frequencies --   3002.5889              3013.1615              3019.6086
 Red. masses --      1.0588                 1.0585                 1.0600
 Frc consts  --      5.6244                 5.6621                 5.6945
 IR Inten    --      3.2956                68.3287                41.6130

                     73                     74                     75
                      A                      A                      A
 Frequencies --   3021.0522              3029.0248              3030.5783
 Red. masses --      1.1019                 1.0384                 1.0956
 Frc consts  --      5.9251                 5.6132                 5.9288
 IR Inten    --     58.8126                35.5681                10.0275

                     76                     77                     78
                      A                      A                      A
 Frequencies --   3051.8868              3053.8268              3058.4410
 Red. masses --      1.0346                 1.1013                 1.1060
 Frc consts  --      5.6775                 6.0512                 6.0957
 IR Inten    --     12.6339                32.1894                18.8588

                     79                     80                     81
                      A                      A                      A
 Frequencies --   3080.3148              3095.5385              3101.9255
 Red. masses --      1.0899                 1.1020                 1.1009
 Frc consts  --      6.0931                 6.2219                 6.2413
 IR Inten    --     38.9731                56.4092                33.8804

                     82                     83                     84
                      A                      A                      A
 Frequencies --   3119.1417              3126.9481              3137.2491
 Red. masses --      1.0956                 1.1018                 1.1027
 Frc consts  --      6.2801                 6.3472                 6.3947
 IR Inten    --     25.5480                21.3352                14.6187

 - Thermochemistry -
 -------------------
 Temperature   298.150 Kelvin.  Pressure   1.00000 Atm.
 Atom     1 has atomic number  6 and mass  12.00000

 Molecular mass:   174.12559 amu.
 Principal axes and moments of inertia in atomic units:
                           1         2         3
     Eigenvalues --  1347.415073886.053594606.10137
           X            1.00000   0.00286  -0.00008
           Y           -0.00286   0.99999  -0.00456
           Z            0.00007   0.00456   0.99999
 This molecule is an asymmetric top.
 Rotational symmetry number  1.
 Warning -- assumption of classical behavior for rotation
           may cause significant error
 Rotational temperatures (Kelvin)      0.06428     0.02229     0.01880
 Rotational constants (GHZ):           1.33941     0.46441     0.39182
 Zero-point vibrational energy     694534.7 (Joules/Mol)
                                  165.99777 (Kcal/Mol)
 Warning -- explicit consideration of  20 degrees of freedom as
           vibrations may cause significant error
 Vibrational temperatures:     34.67    55.25    94.29   113.74   119.09
          (Kelvin)            139.22   221.86   241.82   282.25   317.30
                              346.58   371.18   439.23   463.94   484.59
                              564.43   619.71   697.73   841.48   866.11
                             1066.94  1108.09  1224.11  1234.32  1263.35
                             1307.55  1344.12  1423.70  1430.59  1448.32
                             1487.94  1518.20  1542.88  1591.59  1611.85
                             1631.80  1640.41  1657.74  1663.41  1682.13
                             1702.18  1726.26  1775.29  1786.55  1827.27
                             1844.12  1884.03  1916.88  1939.39  1967.52
                             1990.26  2001.66  2016.26  2028.05  2034.01
                             2076.82  2121.99  2132.67  2133.86  2141.29
                             2149.68  2154.92  2158.01  2172.55  2175.12
                             2199.15  4173.33  4264.46  4280.27  4320.06
                             4335.27  4344.54  4346.62  4358.09  4360.33
                             4390.98  4393.78  4400.41  4431.89  4453.79
                             4462.98  4487.75  4498.98  4513.80

 Zero-point correction=                           0.264534 (Hartree/Particle)
 Thermal correction to Energy=                    0.278908
 Thermal correction to Enthalpy=                  0.279852
 Thermal correction to Gibbs Free Energy=         0.221517
 Sum of electronic and zero-point Energies=           -579.204847
 Sum of electronic and thermal Energies=              -579.190473
 Sum of electronic and thermal Enthalpies=            -579.189529
 Sum of electronic and thermal Free Energies=         -579.247865

                     E (Thermal)             CV                S
                      KCal/Mol        Cal/Mol-Kelvin    Cal/Mol-Kelvin
 Total                  175.018             50.808            122.777
 Electronic               0.000              0.000              0.000
 Translational            0.889              2.981             41.371
 Rotational               0.889              2.981             31.556
 Vibrational            173.240             44.846             49.850
 Vibration     1          0.593              1.985              6.264
 Vibration     2          0.594              1.982              5.340
 Vibration     3          0.597              1.971              4.283
 Vibration     4          0.600              1.963              3.914
 Vibration     5          0.600              1.961              3.824
 Vibration     6          0.603              1.951              3.518
 Vibration     7          0.620              1.898              2.620
 Vibration     8          0.625              1.882              2.457
 Vibration     9          0.636              1.845              2.169
 Vibration    10          0.647              1.810              1.955
 Vibration    11          0.658              1.778              1.796
 Vibration    12          0.667              1.749              1.675
 Vibration    13          0.696              1.664              1.388
 Vibration    14          0.707              1.630              1.298
 Vibration    15          0.718              1.602              1.227
 Vibration    16          0.760              1.487              0.991
 Vibration    17          0.792              1.403              0.856
 Vibration    18          0.841              1.283              0.697
 Vibration    19          0.942              1.064              0.476
 Vibration    20          0.960              1.028              0.446

                           ! Non-Optimized Parameters !
 Normal termination of Gaussian 16 at Mon May 22 17:10:07 2023.
