 Gaussian 16, Revision A.03,
 Gaussian 16:  ES64L-G16RevA.03 25-Dec-2016

 -----------------------------
 # opt freq b3lyp/6-31g(2df,p)
 -----------------------------

 -------------------
 Title Card Required
 -------------------
 Symbolic Z-matrix:
 Charge =  0 Multiplicity = 1

 SCF Done:  E(RB3LYP) =  -718.518989934     A.U. after   21 cycles
 SCF Done:  E(RB3LYP) =  -718.573746679     A.U. after   15 cycles
 SCF Done:  E(RB3LYP) =  -718.612635361     A.U. after   15 cycles
 SCF Done:  E(RB3LYP) =  -718.650352533     A.U. after   14 cycles
 SCF Done:  E(RB3LYP) =  -718.684643056     A.U. after   14 cycles
 SCF Done:  E(RB3LYP) =  -718.707176468     A.U. after   12 cycles
 SCF Done:  E(RB3LYP) =  -718.724401310     A.U. after   13 cycles
 SCF Done:  E(RB3LYP) =  -718.734052981     A.U. after   13 cycles
 SCF Done:  E(RB3LYP) =  -718.741449772     A.U. after   13 cycles
 SCF Done:  E(RB3LYP) =  -718.748111548     A.U. after   14 cycles
 SCF Done:  E(RB3LYP) =  -718.755015794     A.U. after   10 cycles
 SCF Done:  E(RB3LYP) =  -718.755037424     A.U. after   11 cycles
 SCF Done:  E(RB3LYP) =  -718.755053073     A.U. after    9 cycles
 SCF Done:  E(RB3LYP) =  -718.755063033     A.U. after    9 cycles
 SCF Done:  E(RB3LYP) =  -718.755074568     A.U. after   10 cycles
 SCF Done:  E(RB3LYP) =  -718.755076896     A.U. after    8 cycles
 SCF Done:  E(RB3LYP) =  -718.755080247     A.U. after    9 cycles
 SCF Done:  E(RB3LYP) =  -718.755080327     A.U. after    7 cycles
 SCF Done:  E(RB3LYP) =  -718.755080263     A.U. after    6 cycles
 Optimization completed.
    -- Stationary point found.
 Normal termination of Gaussian 16 at Sun May 28 14:22:22 2023.

 ----------------------------------------------------------------------
 #N Geom=AllCheck Guess=TCheck SCRF=Check GenChk RB3LYP/6-31G(2df,p) Fr
 eq
 ----------------------------------------------------------------------

 Structure from the checkpoint file:  "CCCC1CC2dCCdCCdC1CCCN2CCC.chk"
 -------------------
 Title Card Required
 -------------------
 Charge =  0 Multiplicity = 1

                         Standard orientation:
 ---------------------------------------------------------------------
 Center     Atomic      Atomic             Coordinates (Angstroms)
 Number     Number       Type             X           Y           Z
 ---------------------------------------------------------------------
      1          6           0        4.970732    1.722231    0.329971
      2          6           0        3.646786    1.321780    0.988615
      3          6           0        2.870287    0.285639    0.167485
      4          6           0        1.563205   -0.204903    0.824707
      5          6           0        0.440347    0.926856    0.920880
      6          6           0       -0.432337    0.712161   -0.290185
      7          6           0        0.151454    1.023014   -1.461864
      8          6           0        0.275166    0.145294   -2.626164
      9          6           0        0.770457   -1.093666   -2.417721
     10          6           0        0.883496   -1.809524   -1.135305
     11          6           0        1.049522   -1.490407    0.173593
     12          6           0        0.418659   -2.448898    1.155764
     13          6           0       -1.017032   -1.931868    1.485157
     14          6           0       -1.790862   -1.418589    0.240972
     15          7           0       -1.671441   -0.001591   -0.153287
     16          6           0       -2.677309    0.850840    0.502401
     17          6           0       -4.011599    0.875217   -0.253729
     18          6           0       -5.056630    1.762148    0.428730
     19          1           0        5.512859    2.455556    0.935275
     20          1           0        4.803068    2.164675   -0.658317
     21          1           0        5.623956    0.853176    0.194063
     22          1           0        3.038481    2.221432    1.144471
     23          1           0        3.844298    0.915113    1.989673
     24          1           0        3.510371   -0.592338    0.015008
     25          1           0        2.669951    0.677591   -0.835034
     26          1           0        1.824274   -0.472807    1.857301
     27          1           0        0.928360    1.905187    0.910701
     28          1           0       -0.107996    0.846072    1.862229
     29          1           0        0.948761    1.767198   -1.401332
     30          1           0        0.179551    0.519737   -3.642747
     31          1           0        0.968617   -1.711827   -3.292980
     32          1           0        0.605548   -2.855361   -1.285269
     33          1           0        0.993174   -2.552574    2.083675
     34          1           0        0.331616   -3.446052    0.711703
     35          1           0       -0.972745   -1.145388    2.245343
     36          1           0       -1.583627   -2.754941    1.937529
     37          1           0       -2.858680   -1.571731    0.422980
     38          1           0       -1.544934   -2.051856   -0.615677
     39          1           0       -2.287029    1.873487    0.546643
     40          1           0       -2.851365    0.544640    1.549298
     41          1           0       -4.400387   -0.146131   -0.348023
     42          1           0       -3.818968    1.223953   -1.274583
     43          1           0       -5.275283    1.412851    1.444376
     44          1           0       -5.998080    1.768558   -0.128891
     45          1           0       -4.709758    2.798954    0.505760
 ---------------------------------------------------------------------

 SCF Done:  E(RB3LYP) =  -718.755080263     A.U. after    1 cycles

 The electronic state is 1-A.
 Alpha  occ. eigenvalues --  -14.30816 -10.20224 -10.19861 -10.19718 -10.18969
 Alpha  occ. eigenvalues --  -10.18390 -10.18389 -10.18253 -10.18028 -10.17922
 Alpha  occ. eigenvalues --  -10.17877 -10.17658 -10.17591 -10.17179 -10.17052
 Alpha  occ. eigenvalues --  -10.17033 -10.16924 -10.16488  -0.91148  -0.83323
 Alpha  occ. eigenvalues --   -0.79858  -0.79124  -0.77064  -0.75932  -0.73039
 Alpha  occ. eigenvalues --   -0.70424  -0.67875  -0.66693  -0.63861  -0.63540
 Alpha  occ. eigenvalues --   -0.59596  -0.57947  -0.56871  -0.55086  -0.52510
 Alpha  occ. eigenvalues --   -0.49876  -0.47591  -0.47213  -0.46235  -0.45775
 Alpha  occ. eigenvalues --   -0.44130  -0.43951  -0.43217  -0.42283  -0.41919
 Alpha  occ. eigenvalues --   -0.40864  -0.40134  -0.39416  -0.39140  -0.38555
 Alpha  occ. eigenvalues --   -0.37504  -0.36675  -0.36230  -0.35230  -0.34778
 Alpha  occ. eigenvalues --   -0.34548  -0.33535  -0.33264  -0.33106  -0.32394
 Alpha  occ. eigenvalues --   -0.31817  -0.31785  -0.31288  -0.29401  -0.28289
 Alpha  occ. eigenvalues --   -0.23109  -0.19649  -0.19389
 Alpha virt. eigenvalues --   -0.02917   0.01342   0.07374   0.08160   0.09076
 Alpha virt. eigenvalues --    0.09789   0.10268   0.11559   0.11799   0.13025
 Alpha virt. eigenvalues --    0.13339   0.13717   0.14313   0.14583   0.15268

 Mulliken charges:
               1
     1  C   -0.380704
     2  C   -0.175799
     3  C   -0.179164
     4  C   -0.069454
     5  C   -0.318528
     6  C    0.251912
     7  C   -0.182116
     8  C   -0.134114
     9  C   -0.081418
    10  C   -0.128376
    11  C    0.230670
    12  C   -0.298564
    13  C   -0.203617
    14  C   -0.166954
    15  N   -0.116992
    16  C   -0.152233
    17  C   -0.159729
    18  C   -0.382191
    19  H    0.109694
    20  H    0.114268
    21  H    0.114238
    22  H    0.096393
    23  H    0.092594
    24  H    0.093945
    25  H    0.106786
    26  H    0.068079
    27  H    0.109139
    28  H    0.094818
    29  H    0.088882
    30  H    0.091285
    31  H    0.086329
    32  H    0.080434
    33  H    0.090096
    34  H    0.098294
    35  H    0.102232
    36  H    0.093132
    37  H    0.094677
    38  H    0.106890
    39  H    0.099392
    40  H    0.078746
    41  H    0.095825
    42  H    0.103966
    43  H    0.111505
    44  H    0.112452
    45  H    0.113280
 Sum of Mulliken charges =  -0.00000

 Dipole moment (field-independent basis, Debye):
    X=              0.1155    Y=             -0.2558    Z=              0.9649  Tot=              1.0049
 Quadrupole moment (field-independent basis, Debye-Ang):
   XX=           -113.1888   YY=           -110.1585   ZZ=           -110.6301
   XY=              1.7198   XZ=             -0.8527   YZ=             -0.1026

  Exact polarizability: 199.650  -0.390 175.502  -4.579  -3.980 185.570
 Approx polarizability: 253.275  -7.202 281.287  -6.212 -11.662 323.333

                      1                      2                      3
                      A                      A                      A
 Frequencies --     19.3471                48.1511                58.4191
 Red. masses --      3.7834                 2.7992                 2.4641
 Frc consts  --      0.0008                 0.0038                 0.0050
 IR Inten    --      0.0148                 0.0413                 0.0525

                      4                      5                      6
                      A                      A                      A
 Frequencies --     67.2178                75.9799               104.1092
 Red. masses --      2.1620                 1.7318                 2.6415
 Frc consts  --      0.0058                 0.0059                 0.0169
 IR Inten    --      0.0720                 0.0836                 0.0668

                      7                      8                      9
                      A                      A                      A
 Frequencies --    147.8580               166.4167               170.3922
 Red. masses --      3.0983                 4.0070                 2.7823
 Frc consts  --      0.0399                 0.0654                 0.0476
 IR Inten    --      0.2192                 0.3955                 0.3090

                     10                     11                     12
                      A                      A                      A
 Frequencies --    194.8357               221.6486               233.8005
 Red. masses --      3.5089                 1.8143                 1.3213
 Frc consts  --      0.0785                 0.0525                 0.0426
 IR Inten    --      0.2341                 0.1553                 0.0944

                     13                     14                     15
                      A                      A                      A
 Frequencies --    246.6638               250.0455               273.1913
 Red. masses --      2.3843                 1.3177                 2.7894
 Frc consts  --      0.0855                 0.0485                 0.1227
 IR Inten    --      0.3392                 0.1191                 0.0769

                     16                     17                     18
                      A                      A                      A
 Frequencies --    278.3645               316.1538               335.7935
 Red. masses --      3.4388                 3.6954                 2.5834
 Frc consts  --      0.1570                 0.2176                 0.1716
 IR Inten    --      0.2530                 1.5521                 0.5949

                     19                     20                     21
                      A                      A                      A
 Frequencies --    353.6346               403.4376               407.0508
 Red. masses --      2.7789                 2.8824                 2.9266
 Frc consts  --      0.2048                 0.2764                 0.2857
 IR Inten    --      1.0473                 1.3982                 1.8793

                     22                     23                     24
                      A                      A                      A
 Frequencies --    429.7100               436.1960               490.9908
 Red. masses --      2.6420                 2.7966                 2.8918
 Frc consts  --      0.2874                 0.3135                 0.4107
 IR Inten    --      4.5262                 0.0044                 3.5103

                     25                     26                     27
                      A                      A                      A
 Frequencies --    493.0112               523.2043               573.6912
 Red. masses --      2.3860                 2.8823                 2.2251
 Frc consts  --      0.3417                 0.4649                 0.4315
 IR Inten    --      2.2541                 0.6014                 1.7539

                     28                     29                     30
                      A                      A                      A
 Frequencies --    645.6003               670.9244               687.3095
 Red. masses --      4.1292                 3.2871                 2.8817
 Frc consts  --      1.0140                 0.8718                 0.8021
 IR Inten    --      0.8072                11.2736                 8.8039

                     31                     32                     33
                      A                      A                      A
 Frequencies --    730.6022               736.7108               745.3226
 Red. masses --      1.5284                 1.5100                 1.2174
 Frc consts  --      0.4807                 0.4829                 0.3984
 IR Inten    --     10.8527                21.1438                 4.0739

                     34                     35                     36
                      A                      A                      A
 Frequencies --    757.1255               798.7806               806.7280
 Red. masses --      2.6579                 2.1742                 2.2196
 Frc consts  --      0.8977                 0.8174                 0.8511
 IR Inten    --      4.3213                 2.9295                 9.3946

                     37                     38                     39
                      A                      A                      A
 Frequencies --    827.5434               841.5026               864.8411
 Red. masses --      2.7267                 2.0116                 1.7755
 Frc consts  --      1.1002                 0.8393                 0.7824
 IR Inten    --      3.2893                 3.9341                 3.6958

                     40                     41                     42
                      A                      A                      A
 Frequencies --    877.9281               878.6321               893.0969
 Red. masses --      1.5221                 1.5072                 1.8046
 Frc consts  --      0.6912                 0.6856                 0.8481
 IR Inten    --      9.4608                 1.4816                 9.7391

                     43                     44                     45
                      A                      A                      A
 Frequencies --    905.8051               914.5149               917.6165
 Red. masses --      1.9144                 1.7194                 1.8005
 Frc consts  --      0.9254                 0.8473                 0.8932
 IR Inten    --     10.9936                 7.7529                 5.1217

                     46                     47                     48
                      A                      A                      A
 Frequencies --    932.2451               946.7054               978.9866
 Red. masses --      2.0040                 1.8661                 2.2795
 Frc consts  --      1.0261                 0.9854                 1.2872
 IR Inten    --      7.2769                 8.8555                 6.5640

                     49                     50                     51
                      A                      A                      A
 Frequencies --    993.6005              1005.9598              1019.0833
 Red. masses --      1.8321                 1.8372                 2.8231
 Frc consts  --      1.0656                 1.0954                 1.7274
 IR Inten    --      5.1098                 1.4800                10.7679

                     52                     53                     54
                      A                      A                      A
 Frequencies --   1040.5606              1046.2697              1054.4476
 Red. masses --      2.8037                 2.6489                 2.1596
 Frc consts  --      1.7886                 1.7085                 1.4147
 IR Inten    --      0.5042                 4.6399                11.3023

                     55                     56                     57
                      A                      A                      A
 Frequencies --   1069.9649              1076.6475              1105.2343
 Red. masses --      2.3722                 1.7410                 2.0603
 Frc consts  --      1.6001                 1.1891                 1.4828
 IR Inten    --     12.2616                 2.2196                11.5225

                     58                     59                     60
                      A                      A                      A
 Frequencies --   1114.4591              1125.8826              1129.6081
 Red. masses --      2.2416                 2.0348                 2.0556
 Frc consts  --      1.6404                 1.5197                 1.5454
 IR Inten    --     18.8953                 5.9927                38.0636

                     61                     62                     63
                      A                      A                      A
 Frequencies --   1138.2726              1146.6139              1196.7895
 Red. masses --      2.1719                 2.2404                 1.3111
 Frc consts  --      1.6580                 1.7354                 1.1065
 IR Inten    --      5.2360                 9.9129                11.0452

                     64                     65                     66
                      A                      A                      A
 Frequencies --   1203.7156              1212.0178              1226.6620
 Red. masses --      1.3419                 1.7441                 1.2657
 Frc consts  --      1.1456                 1.5095                 1.1221
 IR Inten    --      3.5018                12.1057                 2.1293

                     67                     68                     69
                      A                      A                      A
 Frequencies --   1236.5973              1239.5449              1275.3420
 Red. masses --      1.3352                 1.3306                 1.3361
 Frc consts  --      1.2029                 1.2045                 1.2804
 IR Inten    --      2.3421                 7.4849                 0.5377

                     70                     71                     72
                      A                      A                      A
 Frequencies --   1284.7380              1302.9959              1309.4146
 Red. masses --      1.2876                 1.2729                 1.2451
 Frc consts  --      1.2521                 1.2733                 1.2578
 IR Inten    --      5.9982                 4.0495                 1.0082

                     73                     74                     75
                      A                      A                      A
 Frequencies --   1323.5014              1327.6910              1330.3723
 Red. masses --      1.1546                 1.1657                 1.2808
 Frc consts  --      1.1916                 1.2107                 1.3356
 IR Inten    --      2.0378                15.1559                 0.5951

                     76                     77                     78
                      A                      A                      A
 Frequencies --   1345.6954              1351.0060              1355.5822
 Red. masses --      1.2358                 1.2629                 1.3864
 Frc consts  --      1.3186                 1.3582                 1.5010
 IR Inten    --      9.1694                 6.8178                 2.3415

                     79                     80                     81
                      A                      A                      A
 Frequencies --   1372.5059              1374.9864              1395.6609
 Red. masses --      1.3327                 1.3577                 1.4777
 Frc consts  --      1.4792                 1.5124                 1.6959
 IR Inten    --      1.7311                17.8202                 1.8078

                     82                     83                     84
                      A                      A                      A
 Frequencies --   1403.2074              1407.9752              1412.0917
 Red. masses --      1.3529                 1.2941                 1.2415
 Frc consts  --      1.5695                 1.5115                 1.4586
 IR Inten    --     14.3157                 2.6926                 0.9999

                     85                     86                     87
                      A                      A                      A
 Frequencies --   1414.3530              1417.1488              1425.8638
 Red. masses --      1.2683                 1.4008                 1.6135
 Frc consts  --      1.4948                 1.6575                 1.9327
 IR Inten    --      2.8576                 0.5280                 3.7849

                     88                     89                     90
                      A                      A                      A
 Frequencies --   1472.2083              1477.0581              1483.1558
 Red. masses --      1.0950                 1.0733                 1.0714
 Frc consts  --      1.3983                 1.3796                 1.3886
 IR Inten    --      1.8435                 2.4260                 2.6778

                     91                     92                     93
                      A                      A                      A
 Frequencies --   1491.3524              1492.9048              1493.7552
 Red. masses --      1.0681                 1.0827                 1.0664
 Frc consts  --      1.3997                 1.4217                 1.4020
 IR Inten    --      0.3866                 5.5568                 2.3557

                     94                     95                     96
                      A                      A                      A
 Frequencies --   1499.4315              1499.6889              1500.8750
 Red. masses --      1.0421                 1.0412                 1.0917
 Frc consts  --      1.3805                 1.3798                 1.4489
 IR Inten    --      6.8437                 3.7191                 3.5835

                     97                     98                     99
                      A                      A                      A
 Frequencies --   1502.0930              1510.0884              1510.7148
 Red. masses --      1.0985                 1.0813                 1.0827
 Frc consts  --      1.4604                 1.4528                 1.4559
 IR Inten    --      8.0247                 3.1674                 3.2010

                    100                    101                    102
                      A                      A                      A
 Frequencies --   1623.2818              1646.9958              1676.2947
 Red. masses --      7.7822                 5.1084                 7.8441
 Frc consts  --     12.0820                 8.1642                12.9866
 IR Inten    --      0.2881                 4.0983                24.4668

                    103                    104                    105
                      A                      A                      A
 Frequencies --   2939.0549              3001.5117              3013.8651
 Red. masses --      1.0710                 1.0817                 1.0606
 Frc consts  --      5.4506                 5.7418                 5.6759
 IR Inten    --     44.4784                12.5813                20.5436

                    106                    107                    108
                      A                      A                      A
 Frequencies --   3022.1825              3026.9834              3027.4550
 Red. masses --      1.0621                 1.0379                 1.0454
 Frc consts  --      5.7156                 5.6032                 5.6456
 IR Inten    --     18.2518                24.9569                15.0044

                    109                    110                    111
                      A                      A                      A
 Frequencies --   3029.7198              3031.0141              3032.6724
 Red. masses --      1.0608                 1.0618                 1.0630
 Frc consts  --      5.7371                 5.7471                 5.7602
 IR Inten    --     24.8664                31.2237                69.6343

                    112                    113                    114
                      A                      A                      A
 Frequencies --   3045.3747              3052.4955              3053.6659
 Red. masses --      1.0900                 1.0826                 1.0680
 Frc consts  --      5.9562                 5.9436                 5.8676
 IR Inten    --     17.5389                 1.9947                30.9083

                    115                    116                    117
                      A                      A                      A
 Frequencies --   3059.9728              3063.9212              3068.9169
 Red. masses --      1.0614                 1.0969                 1.0995
 Frc consts  --      5.8554                 6.0673                 6.1009
 IR Inten    --     31.8396                 7.3027                 8.4222

                    118                    119                    120
                      A                      A                      A
 Frequencies --   3076.2942              3078.7609              3083.4638
 Red. masses --      1.0913                 1.0879                 1.0988
 Frc consts  --      6.0849                 6.0757                 6.1554
 IR Inten    --     10.9908                11.2254                43.1121

                    121                    122                    123
                      A                      A                      A
 Frequencies --   3085.4867              3091.0093              3094.8442
 Red. masses --      1.0893                 1.0981                 1.1026
 Frc consts  --      6.1099                 6.1816                 6.2224
 IR Inten    --     13.1718                61.9390                57.1260

                    124                    125                    126
                      A                      A                      A
 Frequencies --   3096.5419              3100.3226              3101.9568
 Red. masses --      1.1016                 1.1011                 1.1003
 Frc consts  --      6.2232                 6.2357                 6.2379
 IR Inten    --     59.8365                37.9407                34.9103

                    127                    128                    129
                      A                      A                      A
 Frequencies --   3106.1901              3123.7960              3152.6477
 Red. masses --      1.1035                 1.0834                 1.0933
 Frc consts  --      6.2733                 6.2289                 6.4024
 IR Inten    --     34.7659                15.8130                52.5735

 - Thermochemistry -
 -------------------
 Temperature   298.150 Kelvin.  Pressure   1.00000 Atm.
 Atom     1 has atomic number  6 and mass  12.00000

 Molecular mass:   245.21435 amu.
 Principal axes and moments of inertia in atomic units:
                           1         2         3
     Eigenvalues --  2836.233366871.422147274.16219
           X            0.99998   0.00551  -0.00124
           Y           -0.00550   0.99996   0.00722
           Z            0.00128  -0.00722   0.99997
 This molecule is an asymmetric top.
 Rotational symmetry number  1.
 Warning -- assumption of classical behavior for rotation
           may cause significant error
 Rotational temperatures (Kelvin)      0.03054     0.01260     0.01191
 Rotational constants (GHZ):           0.63632     0.26264     0.24810
 Zero-point vibrational energy    1067247.9 (Joules/Mol)
                                  255.07837 (Kcal/Mol)
 Warning -- explicit consideration of  27 degrees of freedom as
           vibrations may cause significant error
 Vibrational temperatures:     27.84    69.28    84.05    96.71   109.32
          (Kelvin)            149.79   212.73   239.44   245.16   280.33
                              318.90   336.39   354.89   359.76   393.06
                              400.50   454.87   483.13   508.80   580.46
                              585.66   618.26   627.59   706.43   709.33
                              752.77   825.41   928.87   965.31   988.89
                             1051.17  1059.96  1072.35  1089.33  1149.27
                             1160.70  1190.65  1210.73  1244.31  1263.14
                             1264.16  1284.97  1303.25  1315.78  1320.25
                             1341.29  1362.10  1408.54  1429.57  1447.35
                             1466.23  1497.13  1505.35  1517.11  1539.44
                             1549.06  1590.19  1603.46  1619.89  1625.25
                             1637.72  1649.72  1721.91  1731.88  1743.82
                             1764.89  1779.19  1783.43  1834.93  1848.45
                             1874.72  1883.96  1904.22  1910.25  1914.11
                             1936.16  1943.80  1950.38  1974.73  1978.30
                             2008.04  2018.90  2025.76  2031.68  2034.94
                             2038.96  2051.50  2118.18  2125.16  2133.93
                             2145.72  2147.96  2149.18  2157.35  2157.72
                             2159.42  2161.18  2172.68  2173.58  2335.54
                             2369.66  2411.81  4228.64  4318.51  4336.28
                             4348.25  4355.15  4355.83  4359.09  4360.95
                             4363.34  4381.61  4391.86  4393.54  4402.62
                             4408.30  4415.49  4426.10  4429.65  4436.42
                             4439.33  4447.27  4452.79  4455.23  4460.67
                             4463.02  4469.11  4494.45  4535.96

 Zero-point correction=                           0.406493 (Hartree/Particle)
 Thermal correction to Energy=                    0.424994
 Thermal correction to Enthalpy=                  0.425939
 Thermal correction to Gibbs Free Energy=         0.359734
 Sum of electronic and zero-point Energies=           -718.348587
 Sum of electronic and thermal Energies=              -718.330086
 Sum of electronic and thermal Enthalpies=            -718.329142
 Sum of electronic and thermal Free Energies=         -718.395346

                     E (Thermal)             CV                S
                      KCal/Mol        Cal/Mol-Kelvin    Cal/Mol-Kelvin
 Total                  266.688             73.037            139.339
 Electronic               0.000              0.000              0.000
 Translational            0.889              2.981             42.392
 Rotational               0.889              2.981             33.316
 Vibrational            264.911             67.075             63.631
 Vibration     1          0.593              1.986              6.700
 Vibration     2          0.595              1.978              4.892
 Vibration     3          0.596              1.974              4.510
 Vibration     4          0.598              1.970              4.233
 Vibration     5          0.599              1.965              3.992
 Vibration     6          0.605              1.946              3.376
 Vibration     7          0.617              1.905              2.700
 Vibration     8          0.624              1.884              2.476
 Vibration     9          0.625              1.879              2.431
 Vibration    10          0.636              1.847              2.181
 Vibration    11          0.648              1.808              1.946
 Vibration    12          0.654              1.789              1.850
 Vibration    13          0.661              1.768              1.754
 Vibration    14          0.663              1.763              1.730
 Vibration    15          0.676              1.723              1.576
 Vibration    16          0.679              1.714              1.544
 Vibration    17          0.703              1.643              1.330
 Vibration    18          0.717              1.604              1.232
 Vibration    19          0.730              1.568              1.150
 Vibration    20          0.769              1.463              0.950
 Vibration    21          0.772              1.455              0.937
 Vibration    22          0.791              1.406              0.860
 Vibration    23          0.797              1.391              0.839
 Vibration    24          0.847              1.270              0.681
 Vibration    25          0.849              1.266              0.676
 Vibration    26          0.878              1.199              0.603
 Vibration    27          0.930              1.088              0.497

 Optimization completed.
    -- Stationary point found.
 Normal termination of Gaussian 16 at Sun May 28 22:21:32 2023.
