 Gaussian 16, Revision A.03,
 Gaussian 16:  ES64L-G16RevA.03 25-Dec-2016

 -----------------------------
 # opt freq b3lyp/6-31g(2df,p)
 -----------------------------

 -------------------
 Title Card Required
 -------------------
 Symbolic Z-matrix:
 Charge =  0 Multiplicity = 1

 SCF Done:  E(RB3LYP) =  -495.145962768     A.U. after   17 cycles
 SCF Done:  E(RB3LYP) =  -495.209305166     A.U. after   13 cycles
 SCF Done:  E(RB3LYP) =  -495.274515467     A.U. after   12 cycles
 SCF Done:  E(RB3LYP) =  -495.275536708     A.U. after    8 cycles
 SCF Done:  E(RB3LYP) =  -495.315281718     A.U. after   11 cycles
 SCF Done:  E(RB3LYP) =  -495.382814965     A.U. after   13 cycles
 SCF Done:  E(RB3LYP) =  -495.404872642     A.U. after   11 cycles
 SCF Done:  E(RB3LYP) =  -495.424716769     A.U. after   10 cycles
 SCF Done:  E(RB3LYP) =  -495.450694832     A.U. after   11 cycles
 SCF Done:  E(RB3LYP) =  -495.472138731     A.U. after   11 cycles
 SCF Done:  E(RB3LYP) =  -495.526946261     A.U. after   10 cycles
 SCF Done:  E(RB3LYP) =  -495.529047679     A.U. after   10 cycles
 SCF Done:  E(RB3LYP) =  -495.529305905     A.U. after   10 cycles
 SCF Done:  E(RB3LYP) =  -495.529388444     A.U. after   10 cycles
 SCF Done:  E(RB3LYP) =  -495.529431653     A.U. after    9 cycles
 SCF Done:  E(RB3LYP) =  -495.529439645     A.U. after    8 cycles
 SCF Done:  E(RB3LYP) =  -495.529442766     A.U. after    8 cycles
 SCF Done:  E(RB3LYP) =  -495.529443784     A.U. after    7 cycles
 SCF Done:  E(RB3LYP) =  -495.529444347     A.U. after    6 cycles
 Optimization completed.
    -- Stationary point found.
 Normal termination of Gaussian 16 at Sat May 27 21:36:38 2023.

 ----------------------------------------------------------------------
 #N Geom=AllCheck Guess=TCheck SCRF=Check GenChk RB3LYP/6-31G(2df,p) Fr
 eq
 ----------------------------------------------------------------------

 Structure from the checkpoint file:  "CCCCCqFrqFrF.chk"
 -------------------
 Title Card Required
 -------------------
 Charge =  0 Multiplicity = 1

                         Standard orientation:
 ---------------------------------------------------------------------
 Center     Atomic      Atomic             Coordinates (Angstroms)
 Number     Number       Type             X           Y           Z
 ---------------------------------------------------------------------
      1          6           0       -2.462639   -0.634200   -0.168782
      2          6           0       -1.593414    0.537455    0.301428
      3          6           0       -0.228604    0.694222   -0.400441
      4          6           0        0.393868    2.068252   -0.108306
      5          6           0        0.753645   -0.403020   -0.007584
      6          9           0        0.968948   -0.428140    1.319916
      7          9           0        0.326522   -1.628281   -0.361640
      8          9           0        1.949106   -0.228465   -0.598646
      9          1           0       -3.442814   -0.595652    0.316158
     10          1           0       -2.010290   -1.600046    0.061618
     11          1           0       -2.627380   -0.593064   -1.251297
     12          1           0       -1.423931    0.470811    1.382503
     13          1           0       -2.141531    1.472415    0.138286
     14          1           0       -0.365884    0.585570   -1.483588
     15          1           0        0.542105    2.205116    0.967246
     16          1           0       -0.269644    2.861006   -0.463080
     17          1           0        1.361043    2.181563   -0.602414
 ---------------------------------------------------------------------

 SCF Done:  E(RB3LYP) =  -495.529444347     A.U. after    1 cycles

 The electronic state is 1-A.
 Alpha  occ. eigenvalues --  -24.71312 -24.71311 -24.71168 -10.40922 -10.21009
 Alpha  occ. eigenvalues --  -10.19278 -10.18669 -10.17669  -1.29918  -1.21042
 Alpha  occ. eigenvalues --   -1.20936  -0.82706  -0.74321  -0.69574  -0.64028
 Alpha  occ. eigenvalues --   -0.60957  -0.57883  -0.57436  -0.52772  -0.46079
 Alpha  occ. eigenvalues --   -0.45607  -0.45159  -0.43657  -0.43095  -0.41635
 Alpha  occ. eigenvalues --   -0.40747  -0.39923  -0.39370  -0.37873  -0.36036
 Alpha  occ. eigenvalues --   -0.34656  -0.33738  -0.33265
 Alpha virt. eigenvalues --    0.08494   0.11191   0.12319   0.14098   0.14232
 Alpha virt. eigenvalues --    0.15538   0.16820   0.17178   0.17837   0.18988
 Alpha virt. eigenvalues --    0.20975   0.22604   0.23906   0.25060   0.26299

 Mulliken charges:
               1
     1  C   -0.395541
     2  C   -0.180219
     3  C   -0.113414
     4  C   -0.412482
     5  C    0.290725
     6  F   -0.086858
     7  F   -0.081502
     8  F   -0.084180
     9  H    0.113748
    10  H    0.134715
    11  H    0.114456
    12  H    0.113657
    13  H    0.100237
    14  H    0.101089
    15  H    0.132135
    16  H    0.120808
    17  H    0.132626
 Sum of Mulliken charges =  -0.00000

 Dipole moment (field-independent basis, Debye):
    X=             -1.3414    Y=              1.4499    Z=             -0.3975  Tot=              2.0149
 Quadrupole moment (field-independent basis, Debye-Ang):
   XX=            -47.8034   YY=            -46.8259   ZZ=            -46.8362
   XY=              0.2472   XZ=             -0.0564   YZ=             -0.4640

  Exact polarizability:  61.550   3.210  58.205  -0.617   0.325  51.720
 Approx polarizability:  79.020   1.513  77.453  -0.826   0.489  78.532

                      1                      2                      3
                      A                      A                      A
 Frequencies --     39.9723               103.4701               204.8385
 Red. masses --      3.8817                 2.1133                 1.1330
 Frc consts  --      0.0037                 0.0133                 0.0280
 IR Inten    --      0.0610                 0.0408                 0.1723

                      4                      5                      6
                      A                      A                      A
 Frequencies --    215.1077               221.8917               275.2028
 Red. masses --      3.3322                 1.9307                 2.1411
 Frc consts  --      0.0908                 0.0560                 0.0955
 IR Inten    --      0.6451                 0.8939                 0.1331

                      7                      8                      9
                      A                      A                      A
 Frequencies --    281.0170               348.2175               426.2269
 Red. masses --      2.4309                 3.7129                 4.4575
 Frc consts  --      0.1131                 0.2653                 0.4771
 IR Inten    --      0.6506                 1.3297                 2.7611

                     10                     11                     12
                      A                      A                      A
 Frequencies --    473.9146               536.4864               578.6153
 Red. masses --      4.1611                 7.5094                 7.7729
 Frc consts  --      0.5506                 1.2734                 1.5333
 IR Inten    --      2.8192                 3.8665                 0.5180

                     13                     14                     15
                      A                      A                      A
 Frequencies --    628.4402               763.7175               814.3885
 Red. masses --      3.3394                 2.7282                 1.5480
 Frc consts  --      0.7771                 0.9375                 0.6049
 IR Inten    --      2.8241                 6.3002                 2.7476

                     16                     17                     18
                      A                      A                      A
 Frequencies --    871.8083               974.5732              1021.9285
 Red. masses --      2.1211                 1.2983                 1.6368
 Frc consts  --      0.9498                 0.7265                 1.0071
 IR Inten    --      1.6666                 6.7266                16.0440

                     19                     20                     21
                      A                      A                      A
 Frequencies --   1035.6117              1070.8221              1109.3214
 Red. masses --      2.2223                 1.8898                 2.7941
 Frc consts  --      1.4043                 1.2767                 2.0258
 IR Inten    --      5.5582                56.3718                48.4849

                     22                     23                     24
                      A                      A                      A
 Frequencies --   1168.2583              1193.2675              1202.5538
 Red. masses --      2.9099                 2.9705                 4.8499
 Frc consts  --      2.3399                 2.4921                 4.1323
 IR Inten    --     76.9334                91.6774               156.1021

                     25                     26                     27
                      A                      A                      A
 Frequencies --   1272.1750              1295.2016              1320.1090
 Red. masses --      3.5174                 1.3274                 1.2601
 Frc consts  --      3.3540                 1.3120                 1.2938
 IR Inten    --    129.8455                10.3853                 7.1904

                     28                     29                     30
                      A                      A                      A
 Frequencies --   1381.7351              1402.0853              1415.2066
 Red. masses --      1.4861                 1.5964                 1.2796
 Frc consts  --      1.6717                 1.8490                 1.5099
 IR Inten    --      4.3149                14.7332                16.2183

                     31                     32                     33
                      A                      A                      A
 Frequencies --   1418.6704              1484.8393              1496.5545
 Red. masses --      1.2479                 1.0647                 1.0473
 Frc consts  --      1.4798                 1.3831                 1.3820
 IR Inten    --      3.5219                 0.7053                 2.5344

                     34                     35                     36
                      A                      A                      A
 Frequencies --   1501.1195              1508.7797              1512.1284
 Red. masses --      1.0439                 1.0566                 1.0736
 Frc consts  --      1.3859                 1.4171                 1.4463
 IR Inten    --      3.8284                 8.0864                13.4596

                     37                     38                     39
                      A                      A                      A
 Frequencies --   3032.9218              3038.9517              3039.9714
 Red. masses --      1.0635                 1.0666                 1.0520
 Frc consts  --      5.7637                 5.8035                 5.7282
 IR Inten    --      6.9072                10.8378                28.0766

                     40                     41                     42
                      A                      A                      A
 Frequencies --   3049.7223              3071.0524              3101.3738
 Red. masses --      1.0371                 1.0996                 1.1004
 Frc consts  --      5.6834                 6.1104                 6.2358
 IR Inten    --     23.2761                14.4934                34.3000

                     43                     44                     45
                      A                      A                      A
 Frequencies --   3119.6675              3133.0921              3139.4856
 Red. masses --      1.1016                 1.1017                 1.0986
 Frc consts  --      6.3165                 6.3720                 6.3797
 IR Inten    --     21.1375                15.7239                20.3632

 - Thermochemistry -
 -------------------
 Temperature   298.150 Kelvin.  Pressure   1.00000 Atm.
 Atom     1 has atomic number  6 and mass  12.00000

 Molecular mass:   126.06564 amu.
 Principal axes and moments of inertia in atomic units:
                           1         2         3
     Eigenvalues --   708.122111031.552781359.38428
           X            0.99738   0.07233   0.00167
           Y           -0.07232   0.99738  -0.00334
           Z           -0.00191   0.00321   0.99999
 This molecule is an asymmetric top.
 Rotational symmetry number  1.
 Warning -- assumption of classical behavior for rotation
           may cause significant error
 Rotational temperatures (Kelvin)      0.12231     0.08396     0.06372
 Rotational constants (GHZ):           2.54863     1.74954     1.32762
 Zero-point vibrational energy     360641.2 (Joules/Mol)
                                   86.19531 (Kcal/Mol)
 Warning -- explicit consideration of  12 degrees of freedom as
           vibrations may cause significant error
 Vibrational temperatures:     57.51   148.87   294.72   309.49   319.25
          (Kelvin)            395.96   404.32   501.01   613.25   681.86
                              771.88   832.50   904.19  1098.82  1171.72
                             1254.34  1402.19  1470.33  1490.01  1540.67
                             1596.07  1680.86  1716.85  1730.21  1830.38
                             1863.51  1899.34  1988.01  2017.29  2036.17
                             2041.15  2136.35  2153.21  2159.78  2170.80
                             2175.62  4363.70  4372.37  4373.84  4387.87
                             4418.56  4462.19  4488.51  4507.82  4517.02

 Zero-point correction=                           0.137361 (Hartree/Particle)
 Thermal correction to Energy=                    0.146223
 Thermal correction to Enthalpy=                  0.147167
 Thermal correction to Gibbs Free Energy=         0.103389
 Sum of electronic and zero-point Energies=           -495.392083
 Sum of electronic and thermal Energies=              -495.383221
 Sum of electronic and thermal Enthalpies=            -495.382277
 Sum of electronic and thermal Free Energies=         -495.426055

                     E (Thermal)             CV                S
                      KCal/Mol        Cal/Mol-Kelvin    Cal/Mol-Kelvin
 Total                   91.756             31.734             92.138
 Electronic               0.000              0.000              0.000
 Translational            0.889              2.981             40.408
 Rotational               0.889              2.981             28.387
 Vibrational             89.979             25.773             23.343
 Vibration     1          0.594              1.981              5.260
 Vibration     2          0.605              1.946              3.388
 Vibration     3          0.640              1.833              2.089
 Vibration     4          0.645              1.818              2.000
 Vibration     5          0.648              1.808              1.944
 Vibration     6          0.677              1.719              1.563
 Vibration     7          0.681              1.709              1.527
 Vibration     8          0.726              1.579              1.174
 Vibration     9          0.788              1.413              0.871
 Vibration    10          0.831              1.308              0.727
 Vibration    11          0.891              1.169              0.573
 Vibration    12          0.935              1.078              0.488

 Optimization completed.
    -- Stationary point found.
 Normal termination of Gaussian 16 at Sat May 27 21:57:40 2023.
