 Gaussian 16, Revision A.03,
 Gaussian 16:  ES64L-G16RevA.03 25-Dec-2016

 -----------------------------
 # opt freq b3lyp/6-31g(2df,p)
 -----------------------------

 -------------------
 Title Card Required
 -------------------
 Symbolic Z-matrix:
 Charge =  0 Multiplicity = 1

 SCF Done:  E(RB3LYP) =  -315.733395064     A.U. after   12 cycles
 SCF Done:  E(RB3LYP) =  -315.734503789     A.U. after    9 cycles
 SCF Done:  E(RB3LYP) =  -315.734640115     A.U. after    9 cycles
 SCF Done:  E(RB3LYP) =  -315.734788238     A.U. after    9 cycles
 SCF Done:  E(RB3LYP) =  -315.734791947     A.U. after    8 cycles
 SCF Done:  E(RB3LYP) =  -315.734804748     A.U. after    7 cycles
 SCF Done:  E(RB3LYP) =  -315.734809146     A.U. after    8 cycles
 SCF Done:  E(RB3LYP) =  -315.734815713     A.U. after    8 cycles
 SCF Done:  E(RB3LYP) =  -315.734817843     A.U. after    8 cycles
 SCF Done:  E(RB3LYP) =  -315.734822416     A.U. after    8 cycles
 SCF Done:  E(RB3LYP) =  -315.734769211     A.U. after    9 cycles
 SCF Done:  E(RB3LYP) =  -315.734852828     A.U. after    8 cycles
 SCF Done:  E(RB3LYP) =  -315.734857188     A.U. after    8 cycles
 SCF Done:  E(RB3LYP) =  -315.734119387     A.U. after    9 cycles
 SCF Done:  E(RB3LYP) =  -315.734825919     A.U. after    9 cycles
 SCF Done:  E(RB3LYP) =  -315.734859759     A.U. after    6 cycles
 SCF Done:  E(RB3LYP) =  -315.734860984     A.U. after    8 cycles
 SCF Done:  E(RB3LYP) =  -315.734862126     A.U. after    7 cycles
 SCF Done:  E(RB3LYP) =  -315.734862254     A.U. after    7 cycles
 Optimization completed.
    -- Stationary point found.
 Normal termination of Gaussian 16 at Sun May 28 07:07:15 2023.

 ----------------------------------------------------------------------
 #N Geom=AllCheck Guess=TCheck SCRF=Check GenChk RB3LYP/6-31G(2df,p) Fr
 eq
 ----------------------------------------------------------------------

 Structure from the checkpoint file:  "CCCCqCrCqCrC.chk"
 -------------------
 Title Card Required
 -------------------
 Charge =  0 Multiplicity = 1

                         Standard orientation:
 ---------------------------------------------------------------------
 Center     Atomic      Atomic             Coordinates (Angstroms)
 Number     Number       Type             X           Y           Z
 ---------------------------------------------------------------------
      1          6           0        3.518915   -0.464335   -0.164437
      2          6           0        2.257860    0.166540    0.433883
      3          6           0        0.985668   -0.200980   -0.341649
      4          6           0       -0.322385    0.389747    0.229242
      5          6           0       -0.375625    1.904863   -0.030259
      6          6           0       -1.572081   -0.350335   -0.324439
      7          6           0       -1.658562   -1.798228    0.186763
      8          6           0       -2.891500    0.368424    0.002111
      9          1           0        4.411775   -0.196639    0.409477
     10          1           0        3.675591   -0.132674   -1.197068
     11          1           0        3.447371   -1.557798   -0.178093
     12          1           0        2.383938    1.255149    0.466870
     13          1           0        2.147112   -0.157533    1.477400
     14          1           0        0.920034   -1.294064   -0.374571
     15          1           0        1.091106    0.123395   -1.387445
     16          1           0       -0.314463    0.235801    1.319963
     17          1           0       -0.499167    2.113204   -1.100378
     18          1           0        0.546348    2.395075    0.294608
     19          1           0       -1.200041    2.386193    0.501183
     20          1           0       -1.473185   -0.381301   -1.420424
     21          1           0       -1.777585   -1.815643    1.277095
     22          1           0       -0.774715   -2.391858   -0.059552
     23          1           0       -2.524893   -2.309390   -0.245922
     24          1           0       -3.008848    0.502959    1.084679
     25          1           0       -3.744634   -0.221927   -0.348311
     26          1           0       -2.959485    1.352879   -0.466800
 ---------------------------------------------------------------------

 SCF Done:  E(RB3LYP) =  -315.734862254     A.U. after    1 cycles

 The electronic state is 1-A.
 Alpha  occ. eigenvalues --  -10.18081 -10.17891 -10.17425 -10.16976 -10.16890
 Alpha  occ. eigenvalues --  -10.16649 -10.16614 -10.16563  -0.81666  -0.77214
 Alpha  occ. eigenvalues --   -0.72852  -0.68265  -0.66140  -0.61381  -0.57166
 Alpha  occ. eigenvalues --   -0.54391  -0.46465  -0.44734  -0.44340  -0.42099
 Alpha  occ. eigenvalues --   -0.41600  -0.39295  -0.38115  -0.37834  -0.37167
 Alpha  occ. eigenvalues --   -0.35559  -0.34608  -0.34280  -0.33144  -0.32141
 Alpha  occ. eigenvalues --   -0.30971  -0.29998  -0.29413
 Alpha virt. eigenvalues --    0.08389   0.10450   0.11186   0.11623   0.13689
 Alpha virt. eigenvalues --    0.14231   0.15444   0.15693   0.16167   0.17184
 Alpha virt. eigenvalues --    0.18126   0.18509   0.18554   0.19178   0.19996

 Mulliken charges:
               1
     1  C   -0.378666
     2  C   -0.172425
     3  C   -0.167125
     4  C    0.051845
     5  C   -0.408498
     6  C    0.045211
     7  C   -0.393492
     8  C   -0.398968
     9  H    0.109168
    10  H    0.112656
    11  H    0.112102
    12  H    0.097269
    13  H    0.093046
    14  H    0.089673
    15  H    0.086464
    16  H    0.060976
    17  H    0.109332
    18  H    0.110975
    19  H    0.113900
    20  H    0.065884
    21  H    0.110032
    22  H    0.113543
    23  H    0.108341
    24  H    0.109046
    25  H    0.106205
    26  H    0.113506
 Sum of Mulliken charges =  -0.00000

 Dipole moment (field-independent basis, Debye):
    X=              0.0038    Y=              0.0003    Z=             -0.0001  Tot=              0.0038
 Quadrupole moment (field-independent basis, Debye-Ang):
   XX=            -55.4968   YY=            -55.1415   ZZ=            -54.3120
   XY=              0.2859   XZ=              0.2961   YZ=             -0.0469

  Exact polarizability: 103.684  -0.146  87.038   0.034  -0.126  76.729
 Approx polarizability: 123.059   0.669 120.610   0.163  -0.299 120.515

                      1                      2                      3
                      A                      A                      A
 Frequencies --     38.5354                58.7932                91.9491
 Red. masses --      1.7195                 2.1938                 2.5971
 Frc consts  --      0.0015                 0.0045                 0.0129
 IR Inten    --      0.0016                 0.0051                 0.0054

                      4                      5                      6
                      A                      A                      A
 Frequencies --    162.5737               204.5219               218.0404
 Red. masses --      2.5284                 1.1242                 1.0811
 Frc consts  --      0.0394                 0.0277                 0.0303
 IR Inten    --      0.0227                 0.0049                 0.0582

                      7                      8                      9
                      A                      A                      A
 Frequencies --    243.7362               250.7559               304.2756
 Red. masses --      1.1061                 1.3330                 2.3684
 Frc consts  --      0.0387                 0.0494                 0.1292
 IR Inten    --      0.0052                 0.0068                 0.0109

                     10                     11                     12
                      A                      A                      A
 Frequencies --    328.3286               369.5680               377.0874
 Red. masses --      2.1070                 2.1225                 2.0480
 Frc consts  --      0.1338                 0.1708                 0.1716
 IR Inten    --      0.0446                 0.0891                 0.1283

                     13                     14                     15
                      A                      A                      A
 Frequencies --    420.0492               461.7922               511.5183
 Red. masses --      2.4815                 2.4573                 2.1648
 Frc consts  --      0.2580                 0.3087                 0.3337
 IR Inten    --      0.1832                 0.0329                 0.0332

                     16                     17                     18
                      A                      A                      A
 Frequencies --    738.3263               791.6856               854.0689
 Red. masses --      1.1248                 2.1627                 1.5456
 Frc consts  --      0.3612                 0.7986                 0.6642
 IR Inten    --      2.6568                 0.2437                 0.0299

                     19                     20                     21
                      A                      A                      A
 Frequencies --    874.0675               912.9104               926.5051
 Red. masses --      1.6627                 1.9135                 1.1979
 Frc consts  --      0.7484                 0.9396                 0.6058
 IR Inten    --      0.8484                 2.3480                 0.4200

                     22                     23                     24
                      A                      A                      A
 Frequencies --    954.6860               963.3508               984.2745
 Red. masses --      1.8395                 1.4763                 1.2355
 Frc consts  --      0.9878                 0.8072                 0.7052
 IR Inten    --      1.9671                 0.1345                 3.5529

                     25                     26                     27
                      A                      A                      A
 Frequencies --   1013.9760              1046.5060              1080.6687
 Red. masses --      1.4977                 2.4052                 2.1728
 Frc consts  --      0.9073                 1.5520                 1.4951
 IR Inten    --      0.6500                 1.0460                 1.6790

                     28                     29                     30
                      A                      A                      A
 Frequencies --   1088.7175              1168.9810              1174.4525
 Red. masses --      1.8719                 2.2102                 1.9113
 Frc consts  --      1.3072                 1.7795                 1.5533
 IR Inten    --      1.1063                 0.2114                 8.6370

                     31                     32                     33
                      A                      A                      A
 Frequencies --   1194.6072              1198.7166              1261.5685
 Red. masses --      1.7319                 2.1714                 1.4042
 Frc consts  --      1.4562                 1.8383                 1.3168
 IR Inten    --      0.4106                 0.5298                 5.9520

                     34                     35                     36
                      A                      A                      A
 Frequencies --   1290.3589              1325.0661              1332.7158
 Red. masses --      1.2670                 1.2557                 1.1910
 Frc consts  --      1.2429                 1.2990                 1.2464
 IR Inten    --      0.9240                 2.6100                 1.5938

                     37                     38                     39
                      A                      A                      A
 Frequencies --   1345.8483              1360.4396              1379.4749
 Red. masses --      1.3143                 1.3678                 1.3843
 Frc consts  --      1.4027                 1.4915                 1.5521
 IR Inten    --      2.4133                 0.7089                 1.8784

                     40                     41                     42
                      A                      A                      A
 Frequencies --   1391.1693              1403.4094              1410.1015
 Red. masses --      1.4706                 1.2858                 1.2290
 Frc consts  --      1.6769                 1.4920                 1.4398
 IR Inten    --      2.3332                 1.8883                 3.7974

                     43                     44                     45
                      A                      A                      A
 Frequencies --   1413.7426              1423.0641              1479.2693
 Red. masses --      1.2405                 1.2148                 1.0709
 Frc consts  --      1.4608                 1.4494                 1.3807
 IR Inten    --      3.7185                 2.7303                 0.5634

                     46                     47                     48
                      A                      A                      A
 Frequencies --   1487.1250              1491.4109              1491.9066
 Red. masses --      1.0502                 1.0456                 1.0599
 Frc consts  --      1.3684                 1.3703                 1.3899
 IR Inten    --      0.6187                 2.3086                 1.5412

                     49                     50                     51
                      A                      A                      A
 Frequencies --   1499.4791              1500.7654              1505.1772
 Red. masses --      1.0422                 1.0573                 1.0539
 Frc consts  --      1.3807                 1.4030                 1.4068
 IR Inten    --      5.3893                 0.4667                 2.7306

                     52                     53                     54
                      A                      A                      A
 Frequencies --   1506.3858              1513.7032              1522.3942
 Red. masses --      1.0558                 1.0696                 1.0493
 Frc consts  --      1.4116                 1.4440                 1.4328
 IR Inten    --      2.2996                12.2924                 2.1359

                     55                     56                     57
                      A                      A                      A
 Frequencies --   2974.1241              2988.6923              3004.0749
 Red. masses --      1.0794                 1.0820                 1.0678
 Frc consts  --      5.6255                 5.6942                 5.6775
 IR Inten    --      2.0268                17.8011                16.8001

                     58                     59                     60
                      A                      A                      A
 Frequencies --   3019.6934              3024.3256              3027.2215
 Red. masses --      1.0621                 1.0388                 1.0361
 Frc consts  --      5.7063                 5.5983                 5.5945
 IR Inten    --     39.7740                19.2759                40.9925

                     61                     62                     63
                      A                      A                      A
 Frequencies --   3029.3943              3030.3763              3046.3381
 Red. masses --      1.0399                 1.0423                 1.0918
 Frc consts  --      5.6228                 5.6393                 5.9699
 IR Inten    --     47.9543                 6.8324                 0.8461

                     64                     65                     66
                      A                      A                      A
 Frequencies --   3067.3196              3085.1884              3092.5212
 Red. masses --      1.0981                 1.0997                 1.0988
 Frc consts  --      6.0868                 6.1671                 6.1916
 IR Inten    --     33.1111                 2.0803                60.1609

                     67                     68                     69
                      A                      A                      A
 Frequencies --   3094.1960              3098.1397              3099.5962
 Red. masses --      1.1020                 1.0982                 1.0974
 Frc consts  --      6.2160                 6.2104                 6.2118
 IR Inten    --     60.2487                 3.0021                77.5679

                     70                     71                     72
                      A                      A                      A
 Frequencies --   3110.8866              3113.1683              3119.9187
 Red. masses --      1.1001                 1.0979                 1.0985
 Frc consts  --      6.2724                 6.2695                 6.3001
 IR Inten    --     37.1180                52.9352                20.5046

 - Thermochemistry -
 -------------------
 Temperature   298.150 Kelvin.  Pressure   1.00000 Atm.
 Atom     1 has atomic number  6 and mass  12.00000

 Molecular mass:   114.14085 amu.
 Principal axes and moments of inertia in atomic units:
                           1         2         3
     Eigenvalues --   536.953051830.629442217.33622
           X            0.99999  -0.00281  -0.00247
           Y            0.00281   0.99999  -0.00149
           Z            0.00248   0.00149   1.00000
 This molecule is an asymmetric top.
 Rotational symmetry number  1.
 Warning -- assumption of classical behavior for rotation
           may cause significant error
 Rotational temperatures (Kelvin)      0.16131     0.04731     0.03906
 Rotational constants (GHZ):           3.36108     0.98586     0.81392
 Zero-point vibrational energy     642201.9 (Joules/Mol)
                                  153.48994 (Kcal/Mol)
 Warning -- explicit consideration of  15 degrees of freedom as
           vibrations may cause significant error
 Vibrational temperatures:     55.44    84.59   132.29   233.91   294.26
          (Kelvin)            313.71   350.68   360.78   437.78   472.39
                              531.73   542.54   604.36   664.42   735.96
                             1062.29  1139.06  1228.81  1257.59  1313.47
                             1333.03  1373.58  1386.05  1416.15  1458.89
                             1505.69  1554.84  1566.42  1681.90  1689.78
                             1718.77  1724.69  1815.12  1856.54  1906.47
                             1917.48  1936.38  1957.37  1984.76  2001.58
                             2019.19  2028.82  2034.06  2047.47  2128.34
                             2139.64  2145.81  2146.52  2157.42  2159.27
                             2165.61  2167.35  2177.88  2190.39  4279.10
                             4300.06  4322.19  4344.67  4351.33  4355.50
                             4358.62  4360.04  4383.00  4413.19  4438.90
                             4449.45  4451.86  4457.53  4459.63  4475.87
                             4479.15  4488.87

 Zero-point correction=                           0.244602 (Hartree/Particle)
 Thermal correction to Energy=                    0.255657
 Thermal correction to Enthalpy=                  0.256601
 Thermal correction to Gibbs Free Energy=         0.208079
 Sum of electronic and zero-point Energies=           -315.490260
 Sum of electronic and thermal Energies=              -315.479205
 Sum of electronic and thermal Enthalpies=            -315.478261
 Sum of electronic and thermal Free Energies=         -315.526783

                     E (Thermal)             CV                S
                      KCal/Mol        Cal/Mol-Kelvin    Cal/Mol-Kelvin
 Total                  160.427             40.341            102.124
 Electronic               0.000              0.000              0.000
 Translational            0.889              2.981             40.112
 Rotational               0.889              2.981             29.168
 Vibrational            158.650             34.379             32.844
 Vibration     1          0.594              1.981              5.333
 Vibration     2          0.596              1.974              4.497
 Vibration     3          0.602              1.955              3.618
 Vibration     4          0.623              1.888              2.520
 Vibration     5          0.640              1.833              2.092
 Vibration     6          0.646              1.814              1.975
 Vibration     7          0.659              1.773              1.775
 Vibration     8          0.663              1.761              1.725
 Vibration     9          0.695              1.666              1.393
 Vibration    10          0.712              1.619              1.268
 Vibration    11          0.742              1.535              1.082
 Vibration    12          0.748              1.519              1.051
 Vibration    13          0.783              1.427              0.892
 Vibration    14          0.820              1.335              0.761
 Vibration    15          0.867              1.224              0.630

 Optimization completed.
    -- Stationary point found.
 Normal termination of Gaussian 16 at Sun May 28 07:39:32 2023.
