 Gaussian 16, Revision A.03,
 Gaussian 16:  ES64L-G16RevA.03 25-Dec-2016

 -----------------------------
 # opt freq b3lyp/6-31g(2df,p)
 -----------------------------

 -------------------
 Title Card Required
 -------------------
 Symbolic Z-matrix:
 Charge =  0 Multiplicity = 1

 SCF Done:  E(RB3LYP) =  -705.469258247     A.U. after   12 cycles
 SCF Done:  E(RB3LYP) =  -705.479499953     A.U. after   11 cycles
 SCF Done:  E(RB3LYP) =  -705.481029639     A.U. after    9 cycles
 SCF Done:  E(RB3LYP) =  -705.481291118     A.U. after    9 cycles
 SCF Done:  E(RB3LYP) =  -705.481319416     A.U. after    9 cycles
 SCF Done:  E(RB3LYP) =  -705.481326620     A.U. after    8 cycles
 SCF Done:  E(RB3LYP) =  -705.481328419     A.U. after    7 cycles
 SCF Done:  E(RB3LYP) =  -705.481328750     A.U. after    6 cycles
 SCF Done:  E(RB3LYP) =  -705.481328895     A.U. after    6 cycles
 SCF Done:  E(RB3LYP) =  -705.481328969     A.U. after    6 cycles
 SCF Done:  E(RB3LYP) =  -705.481328987     A.U. after    6 cycles
 SCF Done:  E(RB3LYP) =  -705.481328995     A.U. after    5 cycles
 Optimization completed.
    -- Stationary point found.
 Normal termination of Gaussian 16 at Tue May 23 19:06:04 2023.

 ----------------------------------------------------------------------
 #N Geom=AllCheck Guess=TCheck SCRF=Check GenChk RB3LYP/6-31G(2df,p) Fr
 eq
 ----------------------------------------------------------------------

 Structure from the checkpoint file:  "CCCCCCqCrCCCCqCrCCOCC.chk"
 -------------------
 Title Card Required
 -------------------
 Charge =  0 Multiplicity = 1

                         Standard orientation:
 ---------------------------------------------------------------------
 Center     Atomic      Atomic             Coordinates (Angstroms)
 Number     Number       Type             X           Y           Z
 ---------------------------------------------------------------------
      1          6           0       -8.608391   -1.631969   -0.005398
      2          6           0       -7.519293   -0.678702   -0.504847
      3          6           0       -6.164337   -0.899205    0.176314
      4          6           0       -5.067096    0.049951   -0.319066
      5          6           0       -3.717643   -0.179383    0.372739
      6          6           0       -2.546414    0.670357   -0.158760
      7          6           0       -2.773464    2.170812    0.080014
      8          6           0       -1.220995    0.183243    0.459501
      9          6           0        0.051926    0.792456   -0.143192
     10          6           0        1.330823    0.183697    0.446688
     11          6           0        2.649274    0.675948   -0.182659
     12          6           0        2.881328    2.174642    0.067359
     13          6           0        3.820954   -0.181268    0.330436
     14          6           0        5.153239    0.070468   -0.366762
     15          8           0        6.085024   -0.880931    0.103529
     16          6           0        7.370475   -0.731578   -0.459253
     17          6           0        8.280667   -1.803456    0.116954
     18          1           0       -9.562861   -1.450328   -0.509583
     19          1           0       -8.773453   -1.514877    1.071592
     20          1           0       -8.331709   -2.677234   -0.183509
     21          1           0       -7.839612    0.359558   -0.345158
     22          1           0       -7.400996   -0.793914   -1.590598
     23          1           0       -5.844759   -1.939114    0.019078
     24          1           0       -6.282330   -0.782828    1.263009
     25          1           0       -5.399686    1.084624   -0.168517
     26          1           0       -4.943857   -0.074589   -1.404417
     27          1           0       -3.451225   -1.240273    0.270156
     28          1           0       -3.827918   -0.001168    1.452600
     29          1           0       -2.484806    0.505599   -1.245750
     30          1           0       -2.840635    2.386464    1.153764
     31          1           0       -3.698649    2.519675   -0.387127
     32          1           0       -1.958670    2.774444   -0.329519
     33          1           0       -1.168311   -0.908756    0.351621
     34          1           0       -1.238686    0.376759    1.542214
     35          1           0        0.051972    1.876764    0.010898
     36          1           0        0.046527    0.636915   -1.231741
     37          1           0        1.280261   -0.907842    0.335630
     38          1           0        1.358850    0.373933    1.529604
     39          1           0        2.573310    0.521538   -1.270163
     40          1           0        2.977756    2.377777    1.141091
     41          1           0        2.054220    2.780526   -0.312790
     42          1           0        3.792515    2.532653   -0.420634
     43          1           0        3.579457   -1.242718    0.198904
     44          1           0        3.952320   -0.025121    1.409188
     45          1           0        5.524317    1.089328   -0.168091
     46          1           0        5.034321   -0.019108   -1.461797
     47          1           0        7.769743    0.273764   -0.238762
     48          1           0        7.318764   -0.818917   -1.558560
     49          1           0        8.344341   -1.707733    1.204650
     50          1           0        9.288425   -1.714522   -0.299858
     51          1           0        7.894566   -2.799907   -0.116067
 ---------------------------------------------------------------------

 SCF Done:  E(RB3LYP) =  -705.481328995     A.U. after    1 cycles

 The electronic state is 1-A.
 Alpha  occ. eigenvalues --  -19.13008 -10.22246 -10.21894 -10.18345 -10.17946
 Alpha  occ. eigenvalues --  -10.17429 -10.17235 -10.17206 -10.17199 -10.17159
 Alpha  occ. eigenvalues --  -10.17138 -10.17125 -10.17086 -10.17036 -10.16933
 Alpha  occ. eigenvalues --  -10.16862 -10.16651  -1.02481  -0.81863  -0.80739
 Alpha  occ. eigenvalues --   -0.78696  -0.76386  -0.74575  -0.72340  -0.69992
 Alpha  occ. eigenvalues --   -0.67282  -0.66664  -0.63163  -0.60538  -0.59633
 Alpha  occ. eigenvalues --   -0.57631  -0.56780  -0.55607  -0.54692  -0.48743
 Alpha  occ. eigenvalues --   -0.48256  -0.47426  -0.46761  -0.45186  -0.44066
 Alpha  occ. eigenvalues --   -0.43571  -0.42733  -0.42654  -0.41769  -0.41010
 Alpha  occ. eigenvalues --   -0.40653  -0.39721  -0.38170  -0.38078  -0.37666
 Alpha  occ. eigenvalues --   -0.37087  -0.36731  -0.36124  -0.35211  -0.34595
 Alpha  occ. eigenvalues --   -0.34503  -0.34085  -0.33414  -0.32703  -0.32289
 Alpha  occ. eigenvalues --   -0.31945  -0.31647  -0.31542  -0.31277  -0.31168
 Alpha  occ. eigenvalues --   -0.30665  -0.30303  -0.28347  -0.24726
 Alpha virt. eigenvalues --    0.08205   0.09014   0.09528   0.09754   0.10750
 Alpha virt. eigenvalues --    0.11208   0.12016   0.12159   0.12302   0.12941
 Alpha virt. eigenvalues --    0.13733   0.14011   0.14486   0.15373   0.15611

 Mulliken charges:
               1
     1  C   -0.379017
     2  C   -0.163801
     3  C   -0.156056
     4  C   -0.192675
     5  C   -0.181111
     6  C    0.022904
     7  C   -0.389796
     8  C   -0.178060
     9  C   -0.211526
    10  C   -0.178174
    11  C    0.018499
    12  C   -0.391215
    13  C   -0.197095
    14  C   -0.064035
    15  O   -0.242775
    16  C   -0.026011
    17  C   -0.383981
    18  H    0.109304
    19  H    0.112338
    20  H    0.112354
    21  H    0.092598
    22  H    0.092557
    23  H    0.089496
    24  H    0.089939
    25  H    0.094942
    26  H    0.089015
    27  H    0.086399
    28  H    0.087624
    29  H    0.064661
    30  H    0.108202
    31  H    0.113573
    32  H    0.112814
    33  H    0.086769
    34  H    0.088203
    35  H    0.100702
    36  H    0.088519
    37  H    0.088827
    38  H    0.089666
    39  H    0.066963
    40  H    0.111351
    41  H    0.114926
    42  H    0.113408
    43  H    0.100882
    44  H    0.098691
    45  H    0.083769
    46  H    0.079241
    47  H    0.081790
    48  H    0.081580
    49  H    0.125415
    50  H    0.112133
    51  H    0.125273
 Sum of Mulliken charges =  -0.00000

 Dipole moment (field-independent basis, Debye):
    X=              0.0928    Y=              0.6366    Z=             -0.6690  Tot=              0.9281
 Quadrupole moment (field-independent basis, Debye-Ang):
   XX=           -109.7024   YY=           -113.7374   ZZ=           -111.8764
   XY=              2.6427   XZ=             -3.6877   YZ=              1.4309

  Exact polarizability: 242.022   0.073 165.694  -0.130  -1.359 151.567
 Approx polarizability: 251.076  -1.095 242.911  -0.533   0.297 242.697

                      1                      2                      3
                      A                      A                      A
 Frequencies --     16.9851                17.8677                30.8177
 Red. masses --      2.3799                 3.3129                 2.4513
 Frc consts  --      0.0004                 0.0006                 0.0014
 IR Inten    --      0.1207                 0.1100                 0.1854

                      4                      5                      6
                      A                      A                      A
 Frequencies --     42.3290                45.2248                49.1402
 Red. masses --      2.6145                 2.1453                 2.1215
 Frc consts  --      0.0028                 0.0026                 0.0030
 IR Inten    --      0.3903                 0.2616                 0.0319

                      7                      8                      9
                      A                      A                      A
 Frequencies --     69.1169                74.4482                99.7789
 Red. masses --      2.8365                 3.2691                 1.8037
 Frc consts  --      0.0080                 0.0107                 0.0106
 IR Inten    --      0.5084                 0.0847                 0.0282

                     10                     11                     12
                      A                      A                      A
 Frequencies --    111.3973               116.6273               122.8599
 Red. masses --      2.5787                 2.9611                 1.8864
 Frc consts  --      0.0189                 0.0237                 0.0168
 IR Inten    --      0.6366                 0.1391                 0.2079

                     13                     14                     15
                      A                      A                      A
 Frequencies --    130.2413               136.2055               144.6880
 Red. masses --      1.7903                 2.5072                 2.0372
 Frc consts  --      0.0179                 0.0274                 0.0251
 IR Inten    --      0.0555                 1.0311                 1.1039

                     16                     17                     18
                      A                      A                      A
 Frequencies --    158.8405               196.0078               232.9432
 Red. masses --      3.9603                 3.3491                 1.2059
 Frc consts  --      0.0589                 0.0758                 0.0386
 IR Inten    --      0.0856                 0.1148                 0.0114

                     19                     20                     21
                      A                      A                      A
 Frequencies --    240.2029               248.4159               249.1664
 Red. masses --      1.2235                 1.2008                 1.2901
 Frc consts  --      0.0416                 0.0437                 0.0472
 IR Inten    --      0.0091                 0.1912                 0.4256

                     22                     23                     24
                      A                      A                      A
 Frequencies --    250.2433               255.7319               320.9350
 Red. masses --      2.0310                 2.6804                 2.8022
 Frc consts  --      0.0749                 0.1033                 0.1701
 IR Inten    --      0.3438                 0.0836                 0.0517

                     25                     26                     27
                      A                      A                      A
 Frequencies --    345.9791               378.0940               393.9436
 Red. masses --      3.3596                 2.4772                 2.4449
 Frc consts  --      0.2369                 0.2086                 0.2236
 IR Inten    --      0.6384                 0.2529                 1.2361

                     28                     29                     30
                      A                      A                      A
 Frequencies --    417.5707               437.7116               475.0463
 Red. masses --      1.9896                 2.6260                 2.6202
 Frc consts  --      0.2044                 0.2964                 0.3484
 IR Inten    --      0.1270                 0.5720                 1.2005

                     31                     32                     33
                      A                      A                      A
 Frequencies --    496.4843               537.2439               547.1669
 Red. masses --      3.0085                 2.6712                 2.6703
 Frc consts  --      0.4369                 0.4542                 0.4710
 IR Inten    --      0.4698                 0.1832                 0.8324

                     34                     35                     36
                      A                      A                      A
 Frequencies --    731.6712               739.4188               755.9647
 Red. masses --      1.0723                 1.1202                 1.1514
 Frc consts  --      0.3382                 0.3608                 0.3877
 IR Inten    --      2.3485                 2.7070                 0.2095

                     37                     38                     39
                      A                      A                      A
 Frequencies --    792.7332               807.3109               821.4977
 Red. masses --      1.2285                 1.8478                 1.0883
 Frc consts  --      0.4549                 0.7095                 0.4327
 IR Inten    --      0.4233                 1.2496                 0.4237

                     40                     41                     42
                      A                      A                      A
 Frequencies --    830.3003               861.6335               866.1926
 Red. masses --      1.3662                 2.0565                 1.5535
 Frc consts  --      0.5549                 0.8996                 0.6867
 IR Inten    --      1.1439                 2.3571                 0.2312

                     43                     44                     45
                      A                      A                      A
 Frequencies --    899.0636               902.6241               936.3854
 Red. masses --      2.0253                 1.9684                 1.6859
 Frc consts  --      0.9645                 0.9449                 0.8709
 IR Inten    --      2.1220                 4.0926                 5.1001

                     46                     47                     48
                      A                      A                      A
 Frequencies --    945.3894               947.1138               962.8785
 Red. masses --      1.3433                 1.5612                 1.3995
 Frc consts  --      0.7074                 0.8251                 0.7645
 IR Inten    --      0.5717                 1.8583                 0.3124

                     49                     50                     51
                      A                      A                      A
 Frequencies --    995.5875              1004.8292              1020.9617
 Red. masses --      1.5517                 3.1345                 2.6913
 Frc consts  --      0.9062                 1.8646                 1.6528
 IR Inten    --      0.3060                 0.6107                 1.5787

                     52                     53                     54
                      A                      A                      A
 Frequencies --   1033.5390              1038.7433              1046.6001
 Red. masses --      3.3351                 1.4180                 2.4899
 Frc consts  --      2.0990                 0.9014                 1.6069
 IR Inten    --      7.5927                 0.7594                 3.4159

                     55                     56                     57
                      A                      A                      A
 Frequencies --   1063.5101              1066.9939              1072.9982
 Red. masses --      2.6979                 2.2864                 1.2867
 Frc consts  --      1.7979                 1.5337                 0.8728
 IR Inten    --      0.9733                 0.2739                 0.6684

                     58                     59                     60
                      A                      A                      A
 Frequencies --   1074.4469              1093.1635              1114.5815
 Red. masses --      2.6069                 2.3766                 2.4590
 Frc consts  --      1.7731                 1.6733                 1.7998
 IR Inten    --      1.0736                 0.1174                 9.2778

                     61                     62                     63
                      A                      A                      A
 Frequencies --   1138.1307              1156.9428              1171.0273
 Red. masses --      2.4837                 3.7555                 3.2543
 Frc consts  --      1.8955                 2.9617                 2.6293
 IR Inten    --     51.3041                98.9303               108.7540

                     64                     65                     66
                      A                      A                      A
 Frequencies --   1174.1412              1177.6247              1186.4613
 Red. masses --      1.9109                 1.9179                 1.6381
 Frc consts  --      1.5521                 1.5671                 1.3586
 IR Inten    --      8.4579                27.3044                 4.5559

                     67                     68                     69
                      A                      A                      A
 Frequencies --   1200.3452              1215.9458              1238.5344
 Red. masses --      1.9750                 1.6481                 1.4831
 Frc consts  --      1.6766                 1.4357                 1.3404
 IR Inten    --      2.7614                 4.4484                 1.6954

                     70                     71                     72
                      A                      A                      A
 Frequencies --   1248.6364              1253.3814              1269.6500
 Red. masses --      1.2891                 1.2718                 1.2685
 Frc consts  --      1.1842                 1.1772                 1.2048
 IR Inten    --      2.6807                 1.5498                 1.0415

                     73                     74                     75
                      A                      A                      A
 Frequencies --   1289.2255              1295.4094              1301.9118
 Red. masses --      1.2973                 1.1051                 1.2666
 Frc consts  --      1.2704                 1.0926                 1.2649
 IR Inten    --      1.3901                 2.1787                 2.1538

                     76                     77                     78
                      A                      A                      A
 Frequencies --   1308.9452              1315.9782              1322.6035
 Red. masses --      1.1451                 1.1884                 1.2274
 Frc consts  --      1.1559                 1.2126                 1.2650
 IR Inten    --      0.9305                 0.4073                 0.3402

                     79                     80                     81
                      A                      A                      A
 Frequencies --   1330.9433              1332.2302              1335.0953
 Red. masses --      1.0772                 1.1101                 1.1343
 Frc consts  --      1.1243                 1.1609                 1.1912
 IR Inten    --      0.4120                 0.0831                 0.0562

                     82                     83                     84
                      A                      A                      A
 Frequencies --   1350.0416              1364.8944              1377.4081
 Red. masses --      1.3171                 1.3617                 1.3419
 Frc consts  --      1.4144                 1.4946                 1.5000
 IR Inten    --      5.7864                 0.8129                 0.5850

                     85                     86                     87
                      A                      A                      A
 Frequencies --   1381.9604              1385.1460              1391.7169
 Red. masses --      1.3348                 1.4174                 1.3984
 Frc consts  --      1.5020                 1.6022                 1.5959
 IR Inten    --      6.0163                 2.9148                17.4806

                     88                     89                     90
                      A                      A                      A
 Frequencies --   1392.9138              1397.4469              1401.8310
 Red. masses --      1.4052                 1.5360                 1.5014
 Frc consts  --      1.6064                 1.7674                 1.7383
 IR Inten    --     14.5734                 0.4534                 0.3670

                     91                     92                     93
                      A                      A                      A
 Frequencies --   1408.7959              1413.1195              1413.3741
 Red. masses --      1.3025                 1.2460                 1.2929
 Frc consts  --      1.5231                 1.4659                 1.5217
 IR Inten    --     29.6475                 0.8322                 5.7535

                     94                     95                     96
                      A                      A                      A
 Frequencies --   1416.0001              1452.7508              1474.2624
 Red. masses --      1.2850                 1.4889                 1.0769
 Frc consts  --      1.5181                 1.8514                 1.3791
 IR Inten    --     11.1381                 5.3980                 0.3049

                     97                     98                     99
                      A                      A                      A
 Frequencies --   1477.4559              1483.3645              1483.4680
 Red. masses --      1.0820                 1.0700                 1.0407
 Frc consts  --      1.3915                 1.3872                 1.3494
 IR Inten    --      0.6381                 0.2973                 3.9656

                    100                    101                    102
                      A                      A                      A
 Frequencies --   1484.6838              1490.8775              1491.4520
 Red. masses --      1.0801                 1.0801                 1.0795
 Frc consts  --      1.4028                 1.4145                 1.4148
 IR Inten    --      0.0373                 0.3805                 0.0611

                    103                    104                    105
                      A                      A                      A
 Frequencies --   1498.1845              1499.3108              1499.8854
 Red. masses --      1.0609                 1.0575                 1.0404
 Frc consts  --      1.4030                 1.4006                 1.3790
 IR Inten    --      0.6844                 0.5367                 4.6834

                    106                    107                    108
                      A                      A                      A
 Frequencies --   1499.9144              1503.2394              1503.3776
 Red. masses --      1.0508                 1.0726                 1.0814
 Frc consts  --      1.3929                 1.4281                 1.4400
 IR Inten    --      2.6421                 2.5665                 0.5865

                    109                    110                    111
                      A                      A                      A
 Frequencies --   1508.5451              1511.1190              1514.4604
 Red. masses --      1.0488                 1.0672                 1.0894
 Frc consts  --      1.4063                 1.4359                 1.4721
 IR Inten    --      0.2012                 9.4002                 6.6358

                    112                    113                    114
                      A                      A                      A
 Frequencies --   1518.0010              1539.6191              2936.6340
 Red. masses --      1.0842                 1.0958                 1.0585
 Frc consts  --      1.4719                 1.5304                 5.3783
 IR Inten    --      5.4461                 0.7944                19.8133

                    115                    116                    117
                      A                      A                      A
 Frequencies --   2950.2282              2968.7165              2977.0347
 Red. masses --      1.0588                 1.1049                 1.0947
 Frc consts  --      5.4297                 5.7371                 5.7163
 IR Inten    --     79.2755                66.2725                33.3083

                    118                    119                    120
                      A                      A                      A
 Frequencies --   2980.6276              2982.7156              2993.3835
 Red. masses --      1.0800                 1.0807                 1.0592
 Frc consts  --      5.6534                 5.6645                 5.5916
 IR Inten    --      4.8643                16.5224                 0.2900

                    121                    122                    123
                      A                      A                      A
 Frequencies --   2998.2539              2998.7908              2999.8117
 Red. masses --      1.0610                 1.0602                 1.0597
 Frc consts  --      5.6198                 5.6176                 5.6186
 IR Inten    --      1.6538                 2.1130                 6.9473

                    124                    125                    126
                      A                      A                      A
 Frequencies --   3007.2233              3010.8089              3015.5756
 Red. masses --      1.0626                 1.0655                 1.0635
 Frc consts  --      5.6619                 5.6909                 5.6980
 IR Inten    --      1.2638                54.0302                98.0666

                    127                    128                    129
                      A                      A                      A
 Frequencies --   3023.3629              3023.6099              3026.5223
 Red. masses --      1.0918                 1.0578                 1.0989
 Frc consts  --      5.8797                 5.6975                 5.9304
 IR Inten    --     10.5565                39.7794                 0.8139

                    130                    131                    132
                      A                      A                      A
 Frequencies --   3027.6586              3028.4565              3030.5060
 Red. masses --      1.0358                 1.0424                 1.0428
 Frc consts  --      5.5944                 5.6330                 5.6426
 IR Inten    --     42.8234                15.4095                24.4644

                    133                    134                    135
                      A                      A                      A
 Frequencies --   3034.3320              3034.9896              3043.6346
 Red. masses --      1.0932                 1.1008                 1.0347
 Frc consts  --      5.9301                 5.9744                 5.6472
 IR Inten    --     23.6742                 3.0149                20.1877

                    136                    137                    138
                      A                      A                      A
 Frequencies --   3045.9103              3063.6117              3066.8721
 Red. masses --      1.1025                 1.1036                 1.1024
 Frc consts  --      6.0267                 6.1029                 6.1094
 IR Inten    --      1.0679                78.0547                 6.3470

                    139                    140                    141
                      A                      A                      A
 Frequencies --   3073.9739              3093.7817              3096.6808
 Red. masses --      1.0992                 1.1020                 1.0959
 Frc consts  --      6.1195                 6.2146                 6.1918
 IR Inten    --    128.5992                61.1361                 1.2320

                    142                    143                    144
                      A                      A                      A
 Frequencies --   3097.3902              3099.0638              3109.6209
 Red. masses --      1.0959                 1.1009                 1.1003
 Frc consts  --      6.1948                 6.2298                 6.2688
 IR Inten    --     59.9814                42.9181                82.6651

                    145                    146                    147
                      A                      A                      A
 Frequencies --   3111.2313              3117.7753              3120.0047
 Red. masses --      1.0999                 1.1014                 1.1026
 Frc consts  --      6.2731                 6.3082                 6.3237
 IR Inten    --      9.1106                26.9473                26.8176

 - Thermochemistry -
 -------------------
 Temperature   298.150 Kelvin.  Pressure   1.00000 Atm.
 Atom     1 has atomic number  6 and mass  12.00000

 Molecular mass:   242.26097 amu.
 Principal axes and moments of inertia in atomic units:
                           1         2         3
     Eigenvalues --  1324.24726********************
           X            1.00000   0.00221  -0.00066
           Y           -0.00222   0.99999  -0.00378
           Z            0.00065   0.00378   0.99999
 This molecule is an asymmetric top.
 Rotational symmetry number  1.
 Warning -- assumption of classical behavior for rotation
           may cause significant error
 Rotational temperatures (Kelvin)      0.06541     0.00373     0.00358
 Rotational constants (GHZ):           1.36284     0.07769     0.07457
 Zero-point vibrational energy    1248878.4 (Joules/Mol)
                                  298.48910 (Kcal/Mol)
 Warning -- explicit consideration of  33 degrees of freedom as
           vibrations may cause significant error
 Vibrational temperatures:     24.44    25.71    44.34    60.90    65.07
          (Kelvin)             70.70    99.44   107.11   143.56   160.28
                              167.80   176.77   187.39   195.97   208.17
                              228.54   282.01   335.15   345.60   357.42
                              358.49   360.04   367.94   461.75   497.79
                              543.99   566.80   600.79   629.77   683.49
                              714.33   772.97   787.25  1052.71  1063.86
                             1087.66  1140.57  1161.54  1181.95  1194.62
                             1239.70  1246.26  1293.55  1298.67  1347.25
                             1360.20  1362.69  1385.37  1432.43  1445.73
                             1468.94  1487.03  1494.52  1505.82  1530.15
                             1535.17  1543.81  1545.89  1572.82  1603.63
                             1637.52  1664.58  1684.85  1689.33  1694.34
                             1707.05  1727.03  1749.47  1781.97  1796.51
                             1803.34  1826.74  1854.91  1863.81  1873.16
                             1883.28  1893.40  1902.93  1914.93  1916.78
                             1920.90  1942.41  1963.78  1981.78  1988.33
                             1992.92  2002.37  2004.09  2010.61  2016.92
                             2026.94  2033.16  2033.53  2037.31  2090.18
                             2121.13  2125.73  2134.23  2134.38  2136.13
                             2145.04  2145.87  2155.55  2157.17  2158.00
                             2158.04  2162.83  2163.03  2170.46  2174.16
                             2178.97  2184.06  2215.17  4225.16  4244.72
                             4271.32  4283.29  4288.46  4291.46  4306.81
                             4313.82  4314.59  4316.06  4326.72  4331.88
                             4338.74  4349.94  4350.30  4354.49  4356.13
                             4357.27  4360.22  4365.73  4366.67  4379.11
                             4382.39  4407.85  4412.54  4422.76  4451.26
                             4455.43  4456.45  4458.86  4474.05  4476.37
                             4485.78  4488.99

 Zero-point correction=                           0.475673 (Hartree/Particle)
 Thermal correction to Energy=                    0.498984
 Thermal correction to Enthalpy=                  0.499928
 Thermal correction to Gibbs Free Energy=         0.418967
 Sum of electronic and zero-point Energies=           -705.005656
 Sum of electronic and thermal Energies=              -704.982345
 Sum of electronic and thermal Enthalpies=            -704.981401
 Sum of electronic and thermal Free Energies=         -705.062362

                     E (Thermal)             CV                S
                      KCal/Mol        Cal/Mol-Kelvin    Cal/Mol-Kelvin
 Total                  313.117             82.674            170.396
 Electronic               0.000              0.000              0.000
 Translational            0.889              2.981             42.356
 Rotational               0.889              2.981             34.964
 Vibrational            311.340             76.713             93.076
 Vibration     1          0.593              1.986              6.959
 Vibration     2          0.593              1.986              6.858
 Vibration     3          0.594              1.984              5.776
 Vibration     4          0.595              1.980              5.147
 Vibration     5          0.595              1.979              5.016
 Vibration     6          0.595              1.978              4.852
 Vibration     7          0.598              1.969              4.178
 Vibration     8          0.599              1.966              4.032
 Vibration     9          0.604              1.949              3.459
 Vibration    10          0.607              1.940              3.244
 Vibration    11          0.608              1.936              3.156
 Vibration    12          0.610              1.930              3.055
 Vibration    13          0.612              1.923              2.942
 Vibration    14          0.614              1.917              2.857
 Vibration    15          0.616              1.908              2.741
 Vibration    16          0.621              1.893              2.564
 Vibration    17          0.636              1.845              2.170
 Vibration    18          0.654              1.791              1.856
 Vibration    19          0.657              1.779              1.801
 Vibration    20          0.662              1.765              1.742
 Vibration    21          0.662              1.764              1.736
 Vibration    22          0.663              1.762              1.729
 Vibration    23          0.666              1.753              1.691
 Vibration    24          0.706              1.633              1.305
 Vibration    25          0.724              1.583              1.184
 Vibration    26          0.748              1.517              1.047
 Vibration    27          0.761              1.483              0.985
 Vibration    28          0.781              1.432              0.900
 Vibration    29          0.798              1.388              0.834
 Vibration    30          0.832              1.305              0.724
 Vibration    31          0.852              1.258              0.667
 Vibration    32          0.892              1.168              0.571
 Vibration    33          0.902              1.146              0.550

                           ! Non-Optimized Parameters !
 Normal termination of Gaussian 16 at Tue May 23 23:41:30 2023.
