 Gaussian 16, Revision A.03,
 Gaussian 16:  ES64L-G16RevA.03 25-Dec-2016

 -----------------------------
 # opt freq b3lyp/6-31g(2df,p)
 -----------------------------

 -------------------
 Title Card Required
 -------------------
 Symbolic Z-matrix:
 Charge =  0 Multiplicity = 1

 SCF Done:  E(RB3LYP) =  -629.038888472     A.U. after   12 cycles
 SCF Done:  E(RB3LYP) =  -629.050167597     A.U. after   10 cycles
 SCF Done:  E(RB3LYP) =  -629.052523626     A.U. after   10 cycles
 SCF Done:  E(RB3LYP) =  -629.053791948     A.U. after   10 cycles
 SCF Done:  E(RB3LYP) =  -629.055310647     A.U. after   10 cycles
 SCF Done:  E(RB3LYP) =  -629.056610554     A.U. after   10 cycles
 SCF Done:  E(RB3LYP) =  -629.056723220     A.U. after   12 cycles
 SCF Done:  E(RB3LYP) =  -629.057776264     A.U. after   10 cycles
 SCF Done:  E(RB3LYP) =  -629.058139609     A.U. after    9 cycles
 SCF Done:  E(RB3LYP) =  -629.058941876     A.U. after   10 cycles
 SCF Done:  E(RB3LYP) =  -629.059411248     A.U. after   12 cycles
 SCF Done:  E(RB3LYP) =  -629.059384690     A.U. after    9 cycles
 SCF Done:  E(RB3LYP) =  -629.059476807     A.U. after    9 cycles
 SCF Done:  E(RB3LYP) =  -629.059444370     A.U. after    9 cycles
 SCF Done:  E(RB3LYP) =  -629.059481654     A.U. after    9 cycles
 SCF Done:  E(RB3LYP) =  -629.059473632     A.U. after    8 cycles
 SCF Done:  E(RB3LYP) =  -629.059482216     A.U. after    8 cycles
 SCF Done:  E(RB3LYP) =  -629.059482306     A.U. after    5 cycles
 SCF Done:  E(RB3LYP) =  -629.059482355     A.U. after    5 cycles
 Optimization completed.
    -- Stationary point found.
 Normal termination of Gaussian 16 at Mon May 22 11:09:07 2023.

 ----------------------------------------------------------------------
 #N Geom=AllCheck Guess=TCheck SCRF=Check GenChk RB3LYP/6-31G(2df,p) Fr
 eq
 ----------------------------------------------------------------------

 Structure from the checkpoint file:  "CCCCCCCCC1CqCrCCCC1C.chk"
 -------------------
 Title Card Required
 -------------------
 Charge =  0 Multiplicity = 1

                         Standard orientation:
 ---------------------------------------------------------------------
 Center     Atomic      Atomic             Coordinates (Angstroms)
 Number     Number       Type             X           Y           Z
 ---------------------------------------------------------------------
      1          6           0       -7.866608   -0.003831   -0.206444
      2          6           0       -6.562887   -0.096235    0.591068
      3          6           0       -5.309995   -0.044512   -0.289969
      4          6           0       -4.000460   -0.136725    0.500218
      5          6           0       -2.747693   -0.084989   -0.380973
      6          6           0       -1.438156   -0.178240    0.409835
      7          6           0       -0.185419   -0.125536   -0.471010
      8          6           0        1.123803   -0.239095    0.322818
      9          6           0        2.402713   -0.190842   -0.559512
     10          6           0        3.152143    1.169308   -0.498768
     11          6           0        2.269178    2.367091   -0.868055
     12          6           0        3.844478    1.373901    0.860950
     13          6           0        4.790219    0.214906    1.202871
     14          6           0        4.063497   -1.135568    1.128858
     15          6           0        3.366979   -1.363891   -0.228969
     16          6           0        4.371496   -1.646936   -1.357683
     17          1           0       -8.742072   -0.043492    0.449468
     18          1           0       -7.950965   -0.827766   -0.924009
     19          1           0       -7.918119    0.932308   -0.773775
     20          1           0       -6.555673   -1.026156    1.175268
     21          1           0       -6.523015    0.720425    1.324255
     22          1           0       -5.317057    0.885947   -0.875237
     23          1           0       -5.349962   -0.861321   -1.024530
     24          1           0       -3.994412   -1.067244    1.085224
     25          1           0       -3.961489    0.680105    1.234655
     26          1           0       -2.753325    0.845731   -0.965557
     27          1           0       -2.786854   -0.901534   -1.115651
     28          1           0       -1.432488   -1.109246    0.994247
     29          1           0       -1.399732    0.637794    1.145313
     30          1           0       -0.188045    0.806930   -1.050044
     31          1           0       -0.227124   -0.937911   -1.210327
     32          1           0        1.101732   -1.182224    0.883750
     33          1           0        1.145336    0.549081    1.084988
     34          1           0        2.079430   -0.329348   -1.600828
     35          1           0        3.948130    1.121218   -1.255017
     36          1           0        1.462712    2.520129   -0.142773
     37          1           0        1.811250    2.238122   -1.854783
     38          1           0        2.861243    3.288533   -0.894126
     39          1           0        3.087356    1.472828    1.651239
     40          1           0        4.395357    2.322404    0.850600
     41          1           0        5.216141    0.355310    2.203032
     42          1           0        5.639096    0.221862    0.506974
     43          1           0        3.310702   -1.173921    1.927244
     44          1           0        4.763601   -1.955743    1.328382
     45          1           0        2.747964   -2.266389   -0.134164
     46          1           0        5.061294   -0.816162   -1.532858
     47          1           0        3.851234   -1.845026   -2.301136
     48          1           0        4.978013   -2.528066   -1.121231
 ---------------------------------------------------------------------

 SCF Done:  E(RB3LYP) =  -629.059482355     A.U. after    1 cycles

 The electronic state is 1-A.
 Alpha  occ. eigenvalues --  -10.17661 -10.17655 -10.17399 -10.17379 -10.17161
 Alpha  occ. eigenvalues --  -10.17149 -10.17133 -10.17117 -10.17085 -10.17074
 Alpha  occ. eigenvalues --  -10.16946 -10.16933 -10.16888 -10.16840 -10.16642
 Alpha  occ. eigenvalues --  -10.16605  -0.83529  -0.80381  -0.78237  -0.76408
 Alpha  occ. eigenvalues --   -0.75531  -0.73325  -0.70065  -0.66743  -0.66519
 Alpha  occ. eigenvalues --   -0.62665  -0.59294  -0.58645  -0.57066  -0.56840
 Alpha  occ. eigenvalues --   -0.56568  -0.51281  -0.47905  -0.47085  -0.45831
 Alpha  occ. eigenvalues --   -0.44437  -0.44246  -0.42816  -0.42107  -0.41421
 Alpha  occ. eigenvalues --   -0.41169  -0.40928  -0.39307  -0.38926  -0.38159
 Alpha  occ. eigenvalues --   -0.37971  -0.37249  -0.36382  -0.35633  -0.35401
 Alpha  occ. eigenvalues --   -0.34588  -0.33871  -0.33507  -0.32865  -0.32634
 Alpha  occ. eigenvalues --   -0.32164  -0.31896  -0.31718  -0.31478  -0.31175
 Alpha  occ. eigenvalues --   -0.30166  -0.28716  -0.28193  -0.27669
 Alpha virt. eigenvalues --    0.07835   0.08665   0.09442   0.09976   0.10622
 Alpha virt. eigenvalues --    0.11428   0.12102   0.12749   0.12867   0.13825
 Alpha virt. eigenvalues --    0.14214   0.14852   0.15316   0.15707   0.16248

 Mulliken charges:
               1
     1  C   -0.378926
     2  C   -0.162557
     3  C   -0.158144
     4  C   -0.177063
     5  C   -0.180979
     6  C   -0.182416
     7  C   -0.188124
     8  C   -0.212327
     9  C    0.026000
    10  C    0.031239
    11  C   -0.411916
    12  C   -0.182763
    13  C   -0.204737
    14  C   -0.195559
    15  C    0.010533
    16  C   -0.410685
    17  H    0.109232
    18  H    0.112174
    19  H    0.112206
    20  H    0.092559
    21  H    0.092582
    22  H    0.089394
    23  H    0.089319
    24  H    0.089775
    25  H    0.089766
    26  H    0.090314
    27  H    0.089934
    28  H    0.090064
    29  H    0.089827
    30  H    0.096191
    31  H    0.089957
    32  H    0.088694
    33  H    0.092630
    34  H    0.055690
    35  H    0.067401
    36  H    0.113862
    37  H    0.108239
    38  H    0.105860
    39  H    0.090844
    40  H    0.084006
    41  H    0.086655
    42  H    0.093019
    43  H    0.091474
    44  H    0.083483
    45  H    0.060108
    46  H    0.117246
    47  H    0.108302
    48  H    0.107619
 Sum of Mulliken charges =  -0.00000

 Dipole moment (field-independent basis, Debye):
    X=              0.0682    Y=             -0.0393    Z=              0.0297  Tot=              0.0841
 Quadrupole moment (field-independent basis, Debye-Ang):
   XX=           -107.6779   YY=           -105.4538   ZZ=           -106.6238
   XY=              0.3733   XZ=             -0.4137   YZ=              0.1250

  Exact polarizability: 212.468  -3.018 159.009   2.634  -0.001 152.426
 Approx polarizability: 239.875   0.096 237.608  -0.673   0.393 235.784

                      1                      2                      3
                      A                      A                      A
 Frequencies --     19.3785                34.6291                38.0589
 Red. masses --      3.2618                 1.8709                 2.7603
 Frc consts  --      0.0007                 0.0013                 0.0024
 IR Inten    --      0.0011                 0.0006                 0.0016

                      4                      5                      6
                      A                      A                      A
 Frequencies --     52.1629                87.4120                97.3035
 Red. masses --      3.0791                 3.1091                 1.6848
 Frc consts  --      0.0049                 0.0140                 0.0094
 IR Inten    --      0.0150                 0.0019                 0.0059

                      7                      8                      9
                      A                      A                      A
 Frequencies --    108.1212               144.8247               149.6740
 Red. masses --      2.4285                 2.5445                 2.6683
 Frc consts  --      0.0167                 0.0314                 0.0352
 IR Inten    --      0.0046                 0.0182                 0.0069

                     10                     11                     12
                      A                      A                      A
 Frequencies --    157.3851               157.8809               161.4890
 Red. masses --      2.7440                 2.1842                 2.2678
 Frc consts  --      0.0400                 0.0321                 0.0348
 IR Inten    --      0.0207                 0.0108                 0.0042

                     13                     14                     15
                      A                      A                      A
 Frequencies --    212.9537               220.9425               247.5227
 Red. masses --      1.0605                 2.6811                 1.1205
 Frc consts  --      0.0283                 0.0771                 0.0404
 IR Inten    --      0.0625                 0.0340                 0.0009

                     16                     17                     18
                      A                      A                      A
 Frequencies --    254.3488               271.7531               279.1190
 Red. masses --      1.0924                 2.4159                 2.1489
 Frc consts  --      0.0416                 0.1051                 0.0986
 IR Inten    --      0.0498                 0.0119                 0.0059

                     19                     20                     21
                      A                      A                      A
 Frequencies --    297.0368               319.5071               352.5487
 Red. masses --      2.9868                 2.1413                 3.0931
 Frc consts  --      0.1553                 0.1288                 0.2265
 IR Inten    --      0.0322                 0.0383                 0.2496

                     22                     23                     24
                      A                      A                      A
 Frequencies --    383.8408               415.1933               456.4670
 Red. masses --      2.2583                 2.9605                 3.0136
 Frc consts  --      0.1960                 0.3007                 0.3700
 IR Inten    --      0.1124                 0.1386                 0.1412

                     25                     26                     27
                      A                      A                      A
 Frequencies --    468.1718               488.4202               505.3465
 Red. masses --      2.4291                 2.7619                 2.5415
 Frc consts  --      0.3137                 0.3882                 0.3824
 IR Inten    --      0.4152                 0.1614                 0.0484

                     28                     29                     30
                      A                      A                      A
 Frequencies --    585.6747               631.1242               729.4088
 Red. masses --      2.6532                 2.1504                 1.0743
 Frc consts  --      0.5362                 0.5047                 0.3368
 IR Inten    --      2.1989                 0.7212                 2.9178

                     31                     32                     33
                      A                      A                      A
 Frequencies --    731.7818               745.9025               757.9940
 Red. masses --      1.0716                 1.1478                 2.5330
 Frc consts  --      0.3381                 0.3763                 0.8575
 IR Inten    --      2.2426                 0.3933                 0.1136

                     34                     35                     36
                      A                      A                      A
 Frequencies --    784.9375               810.1178               851.7655
 Red. masses --      1.3457                 1.8667                 1.3851
 Frc consts  --      0.4885                 0.7218                 0.5921
 IR Inten    --      0.4029                 0.2843                 0.2525

                     37                     38                     39
                      A                      A                      A
 Frequencies --    863.9532               871.7417               897.6754
 Red. masses --      2.2014                 1.3586                 1.9492
 Frc consts  --      0.9681                 0.6083                 0.9254
 IR Inten    --      0.3884                 1.9600                 1.2442

                     40                     41                     42
                      A                      A                      A
 Frequencies --    921.3761               936.3652               953.3149
 Red. masses --      2.0898                 1.5260                 1.6564
 Frc consts  --      1.0453                 0.7883                 0.8869
 IR Inten    --      0.8127                 0.2034                 1.5238

                     43                     44                     45
                      A                      A                      A
 Frequencies --    962.0562               984.4152               992.3953
 Red. masses --      1.4327                 2.1779                 1.8528
 Frc consts  --      0.7813                 1.2435                 1.0751
 IR Inten    --      0.3988                 0.1012                 2.0432

                     46                     47                     48
                      A                      A                      A
 Frequencies --    999.1134              1013.0511              1026.5162
 Red. masses --      3.8126                 1.8779                 1.2427
 Frc consts  --      2.2423                 1.1355                 0.7716
 IR Inten    --      0.0231                 0.4943                 0.1929

                     49                     50                     51
                      A                      A                      A
 Frequencies --   1028.5226              1040.6872              1051.3309
 Red. masses --      2.6717                 1.3674                 2.6938
 Frc consts  --      1.6652                 0.8725                 1.7543
 IR Inten    --      0.5808                 0.2589                 0.1358

                     52                     53                     54
                      A                      A                      A
 Frequencies --   1061.0500              1069.5520              1070.3994
 Red. masses --      2.6169                 2.2202                 1.7599
 Frc consts  --      1.7359                 1.4964                 1.1881
 IR Inten    --      0.0495                 0.0984                 1.1718

                     55                     56                     57
                      A                      A                      A
 Frequencies --   1072.6985              1103.1567              1114.7356
 Red. masses --      2.1626                 1.6477                 1.8501
 Frc consts  --      1.4662                 1.1814                 1.3545
 IR Inten    --      0.6747                 0.2116                 0.5021

                     58                     59                     60
                      A                      A                      A
 Frequencies --   1117.9614              1135.8950              1170.3260
 Red. masses --      1.4022                 2.4241                 2.4436
 Frc consts  --      1.0326                 1.8428                 1.9719
 IR Inten    --      0.5222                 1.6036                 0.0875

                     61                     62                     63
                      A                      A                      A
 Frequencies --   1186.6433              1191.4487              1218.4316
 Red. masses --      1.8260                 1.5921                 1.7209
 Frc consts  --      1.5149                 1.3316                 1.5053
 IR Inten    --      1.7163                 4.0374                 0.2375

                     64                     65                     66
                      A                      A                      A
 Frequencies --   1232.3838              1239.7834              1257.8144
 Red. masses --      1.3304                 1.5750                 1.4036
 Frc consts  --      1.1905                 1.4264                 1.3083
 IR Inten    --      3.8814                 2.7365                 0.2078

                     67                     68                     69
                      A                      A                      A
 Frequencies --   1272.2408              1284.5992              1293.7134
 Red. masses --      1.2589                 1.2739                 1.2931
 Frc consts  --      1.2005                 1.2386                 1.2752
 IR Inten    --      2.8637                 0.3087                 0.1705

                     70                     71                     72
                      A                      A                      A
 Frequencies --   1309.4502              1316.5254              1324.6757
 Red. masses --      1.2887                 1.2825                 1.0256
 Frc consts  --      1.3019                 1.3097                 1.0603
 IR Inten    --      0.1604                 0.6975                 0.1292

                     73                     74                     75
                      A                      A                      A
 Frequencies --   1328.9658              1335.4829              1337.2733
 Red. masses --      1.2232                 1.0795                 1.1577
 Frc consts  --      1.2728                 1.1344                 1.2198
 IR Inten    --      0.5461                 0.1488                 0.1481

                     76                     77                     78
                      A                      A                      A
 Frequencies --   1341.1348              1345.1753              1359.9544
 Red. masses --      1.2690                 1.2867                 1.3526
 Frc consts  --      1.3448                 1.3717                 1.4739
 IR Inten    --      2.4142                 1.4222                 0.9899

                     79                     80                     81
                      A                      A                      A
 Frequencies --   1363.7189              1374.6563              1375.9673
 Red. masses --      1.3991                 1.4263                 1.3874
 Frc consts  --      1.5330                 1.5880                 1.5476
 IR Inten    --      0.9500                 1.4269                 3.9855

                     82                     83                     84
                      A                      A                      A
 Frequencies --   1383.2385              1390.4830              1399.1666
 Red. masses --      1.4411                 1.4424                 1.5397
 Frc consts  --      1.6246                 1.6431                 1.7759
 IR Inten    --      0.4282                 2.4666                 1.0959

                     85                     86                     87
                      A                      A                      A
 Frequencies --   1400.6388              1401.7968              1403.4490
 Red. masses --      1.5213                 1.5365                 1.4591
 Frc consts  --      1.7584                 1.7789                 1.6933
 IR Inten    --      0.3469                 0.2817                 2.5114

                     88                     89                     90
                      A                      A                      A
 Frequencies --   1412.1991              1413.2674              1413.4181
 Red. masses --      1.2765                 1.2587                 1.2538
 Frc consts  --      1.4999                 1.4812                 1.4758
 IR Inten    --      2.0053                 0.7319                 5.9915

                     91                     92                     93
                      A                      A                      A
 Frequencies --   1480.0851              1481.3530              1482.5076
 Red. masses --      1.0740                 1.0742                 1.0757
 Frc consts  --      1.3862                 1.3888                 1.3930
 IR Inten    --      1.3876                 0.3354                 0.3186

                     94                     95                     96
                      A                      A                      A
 Frequencies --   1484.5202              1486.2890              1487.1488
 Red. masses --      1.0720                 1.0760                 1.0749
 Frc consts  --      1.3920                 1.4005                 1.4006
 IR Inten    --      0.2348                 1.4206                 1.0268

                     97                     98                     99
                      A                      A                      A
 Frequencies --   1492.7194              1497.3980              1499.8119
 Red. masses --      1.0681                 1.0666                 1.0403
 Frc consts  --      1.4022                 1.4091                 1.3788
 IR Inten    --      1.8149                 2.1352                 4.8461

                    100                    101                    102
                      A                      A                      A
 Frequencies --   1500.2231              1500.9313              1504.3527
 Red. masses --      1.0760                 1.0611                 1.0773
 Frc consts  --      1.4268                 1.4084                 1.4365
 IR Inten    --      5.5147                 4.8012                 2.6806

                    103                    104                    105
                      A                      A                      A
 Frequencies --   1506.9055              1509.0649              1511.3798
 Red. masses --      1.0605                 1.0680                 1.0885
 Frc consts  --      1.4188                 1.4330                 1.4650
 IR Inten    --      5.1757                 0.9450                 0.3355

                    106                    107                    108
                      A                      A                      A
 Frequencies --   1516.1472              2988.9084              2996.8848
 Red. masses --      1.0961                 1.0811                 1.0576
 Frc consts  --      1.4845                 5.6903                 5.5967
 IR Inten    --      4.5531                10.0547                 1.2014

                    109                    110                    111
                      A                      A                      A
 Frequencies --   2997.8909              2998.3570              3000.0743
 Red. masses --      1.0809                 1.0578                 1.0603
 Frc consts  --      5.7237                 5.6031                 5.6225
 IR Inten    --     21.4557                 0.0499                 0.8181

                    112                    113                    114
                      A                      A                      A
 Frequencies --   3001.7443              3006.1065              3010.5781
 Red. masses --      1.0745                 1.0635                 1.0624
 Frc consts  --      5.7043                 5.6623                 5.6735
 IR Inten    --     12.4460                 1.5743                32.8484

                    115                    116                    117
                      A                      A                      A
 Frequencies --   3011.6445              3015.6304              3016.6297
 Red. masses --      1.0627                 1.0617                 1.0660
 Frc consts  --      5.6789                 5.6888                 5.7156
 IR Inten    --     13.0494                46.2619                59.7052

                    118                    119                    120
                      A                      A                      A
 Frequencies --   3017.6359              3019.0226              3020.6730
 Red. masses --      1.0947                 1.0636                 1.0814
 Frc consts  --      5.8732                 5.7117                 5.8138
 IR Inten    --      2.9074                14.2500                37.5192

                    121                    122                    123
                      A                      A                      A
 Frequencies --   3022.7605              3025.9058              3027.5417
 Red. masses --      1.0810                 1.0386                 1.0357
 Frc consts  --      5.8197                 5.6031                 5.5930
 IR Inten    --     55.2273                27.3971                42.2883

                    124                    125                    126
                      A                      A                      A
 Frequencies --   3031.2816              3031.6190              3040.6730
 Red. masses --      1.0942                 1.0426                 1.0962
 Frc consts  --      5.9236                 5.6457                 5.9713
 IR Inten    --     14.4201                21.6742                 9.0019

                    127                    128                    129
                      A                      A                      A
 Frequencies --   3048.1451              3049.9943              3052.5728
 Red. masses --      1.1014                 1.0999                 1.0947
 Frc consts  --      6.0295                 6.0284                 6.0098
 IR Inten    --     21.0126                19.7778                55.4516

                    130                    131                    132
                      A                      A                      A
 Frequencies --   3059.2721              3063.9541              3067.5134
 Red. masses --      1.1047                 1.1035                 1.1039
 Frc consts  --      6.0916                 6.1037                 6.1199
 IR Inten    --     28.1788                73.0761               161.6953

                    133                    134                    135
                      A                      A                      A
 Frequencies --   3090.2508              3091.7817              3093.6346
 Red. masses --      1.1010                 1.1011                 1.1020
 Frc consts  --      6.1946                 6.2017                 6.2141
 IR Inten    --     34.0014                36.6446                60.1696

                    136                    137                    138
                      A                      A                      A
 Frequencies --   3095.0860              3098.8844              3105.1609
 Red. masses --      1.1007                 1.1009                 1.0990
 Frc consts  --      6.2126                 6.2291                 6.2432
 IR Inten    --     38.9287                40.2289                42.9646

 - Thermochemistry -
 -------------------
 Temperature   298.150 Kelvin.  Pressure   1.00000 Atm.
 Atom     1 has atomic number  6 and mass  12.00000

 Molecular mass:   224.25040 amu.
 Principal axes and moments of inertia in atomic units:
                           1         2         3
     Eigenvalues --  1396.60584********************
           X            1.00000  -0.00033  -0.00041
           Y            0.00033   1.00000  -0.00041
           Z            0.00041   0.00041   1.00000
 This molecule is an asymmetric top.
 Rotational symmetry number  1.
 Warning -- assumption of classical behavior for rotation
           may cause significant error
 Rotational temperatures (Kelvin)      0.06202     0.00612     0.00597
 Rotational constants (GHZ):           1.29223     0.12747     0.12439
 Zero-point vibrational energy    1187382.4 (Joules/Mol)
                                  283.79120 (Kcal/Mol)
 Warning -- explicit consideration of  28 degrees of freedom as
           vibrations may cause significant error
 Vibrational temperatures:     27.88    49.82    54.76    75.05   125.77
          (Kelvin)            140.00   155.56   208.37   215.35   226.44
                              227.16   232.35   306.39   317.89   356.13
                              365.95   390.99   401.59   427.37   459.70
                              507.24   552.26   597.37   656.75   673.59
                              702.73   727.08   842.66   908.05  1049.46
                             1052.87  1073.19  1090.58  1129.35  1165.58
                             1225.50  1243.04  1254.24  1291.55  1325.65
                             1347.22  1371.61  1384.18  1416.35  1427.84
                             1437.50  1457.55  1476.93  1479.81  1497.32
                             1512.63  1526.61  1538.85  1540.07  1543.37
                             1587.20  1603.86  1608.50  1634.30  1683.84
                             1707.32  1714.23  1753.05  1773.13  1783.77
                             1809.71  1830.47  1848.25  1861.37  1884.01
                             1894.19  1905.91  1912.09  1921.46  1924.04
                             1929.59  1935.41  1956.67  1962.09  1977.82
                             1979.71  1990.17  2000.59  2013.09  2015.21
                             2016.87  2019.25  2031.84  2033.38  2033.59
                             2129.51  2131.34  2133.00  2135.89  2138.44
                             2139.68  2147.69  2154.42  2157.89  2158.49
                             2159.51  2164.43  2168.10  2171.21  2174.54
                             2181.40  4300.37  4311.85  4313.30  4313.97
                             4316.44  4318.84  4325.12  4331.55  4333.08
                             4338.82  4340.26  4341.71  4343.70  4346.07
                             4349.08  4353.60  4355.96  4361.34  4361.82
                             4374.85  4385.60  4388.26  4391.97  4401.61
                             4408.35  4413.47  4446.18  4448.38  4451.05
                             4453.14  4458.60  4467.63

 Zero-point correction=                           0.452250 (Hartree/Particle)
 Thermal correction to Energy=                    0.471816
 Thermal correction to Enthalpy=                  0.472760
 Thermal correction to Gibbs Free Energy=         0.402927
 Sum of electronic and zero-point Energies=           -628.607232
 Sum of electronic and thermal Energies=              -628.587667
 Sum of electronic and thermal Enthalpies=            -628.586723
 Sum of electronic and thermal Free Energies=         -628.656556

                     E (Thermal)             CV                S
                      KCal/Mol        Cal/Mol-Kelvin    Cal/Mol-Kelvin
 Total                  296.069             73.844            146.976
 Electronic               0.000              0.000              0.000
 Translational            0.889              2.981             42.125
 Rotational               0.889              2.981             34.016
 Vibrational            294.291             67.882             70.834
 Vibration     1          0.593              1.986              6.697
 Vibration     2          0.594              1.983              5.545
 Vibration     3          0.594              1.982              5.358
 Vibration     4          0.596              1.977              4.734
 Vibration     5          0.601              1.958              3.717
 Vibration     6          0.603              1.951              3.508
 Vibration     7          0.606              1.943              3.302
 Vibration     8          0.616              1.908              2.739
 Vibration     9          0.618              1.903              2.676
 Vibration    10          0.621              1.894              2.581
 Vibration    11          0.621              1.894              2.575
 Vibration    12          0.622              1.890              2.532
 Vibration    13          0.644              1.821              2.018
 Vibration    14          0.648              1.809              1.951
 Vibration    15          0.661              1.767              1.748
 Vibration    16          0.665              1.755              1.700
 Vibration    17          0.675              1.725              1.585
 Vibration    18          0.679              1.712              1.539
 Vibration    19          0.691              1.679              1.434
 Vibration    20          0.705              1.636              1.313
 Vibration    21          0.729              1.570              1.155
 Vibration    22          0.753              1.505              1.024
 Vibration    23          0.779              1.437              0.908
 Vibration    24          0.815              1.347              0.776
 Vibration    25          0.825              1.321              0.743
 Vibration    26          0.844              1.276              0.688
 Vibration    27          0.861              1.238              0.645
 Vibration    28          0.943              1.062              0.475

 Optimization completed.
    -- Stationary point found.
 Normal termination of Gaussian 16 at Mon May 22 15:55:08 2023.
