 Gaussian 16, Revision A.03,
 Gaussian 16:  ES64L-G16RevA.03 25-Dec-2016

 -----------------------------
 # opt freq b3lyp/6-31g(2df,p)
 -----------------------------

 -------------------
 Title Card Required
 -------------------
 Symbolic Z-matrix:
 Charge =  0 Multiplicity = 1

 SCF Done:  E(RB3LYP) =  -704.240237547     A.U. after   12 cycles
 SCF Done:  E(RB3LYP) =  -704.250232096     A.U. after   11 cycles
 SCF Done:  E(RB3LYP) =  -704.256924321     A.U. after   10 cycles
 SCF Done:  E(RB3LYP) =  -704.262437023     A.U. after   10 cycles
 SCF Done:  E(RB3LYP) =  -704.264861599     A.U. after   10 cycles
 SCF Done:  E(RB3LYP) =  -704.268440028     A.U. after   10 cycles
 SCF Done:  E(RB3LYP) =  -704.270512205     A.U. after   12 cycles
 SCF Done:  E(RB3LYP) =  -704.271224497     A.U. after   11 cycles
 SCF Done:  E(RB3LYP) =  -704.270693270     A.U. after    9 cycles
 SCF Done:  E(RB3LYP) =  -704.272437167     A.U. after   10 cycles
 SCF Done:  E(RB3LYP) =  -704.273327453     A.U. after   10 cycles
 SCF Done:  E(RB3LYP) =  -704.273346164     A.U. after    9 cycles
 SCF Done:  E(RB3LYP) =  -704.273356315     A.U. after    8 cycles
 SCF Done:  E(RB3LYP) =  -704.273352806     A.U. after    8 cycles
 SCF Done:  E(RB3LYP) =  -704.273358576     A.U. after    8 cycles
 SCF Done:  E(RB3LYP) =  -704.273356824     A.U. after    8 cycles
 SCF Done:  E(RB3LYP) =  -704.273358814     A.U. after    8 cycles
 SCF Done:  E(RB3LYP) =  -704.273358956     A.U. after    6 cycles
 SCF Done:  E(RB3LYP) =  -704.273358921     A.U. after    6 cycles
 Optimization completed.
    -- Stationary point found.
 Normal termination of Gaussian 16 at Mon May 22 15:59:34 2023.

 ----------------------------------------------------------------------
 #N Geom=AllCheck Guess=TCheck SCRF=Check GenChk RB3LYP/6-31G(2df,p) Fr
 eq
 ----------------------------------------------------------------------

 Structure from the checkpoint file:  "CCCCC1CCCCqCrC1CCCCCO.chk"
 -------------------
 Title Card Required
 -------------------
 Charge =  0 Multiplicity = 1

                         Standard orientation:
 ---------------------------------------------------------------------
 Center     Atomic      Atomic             Coordinates (Angstroms)
 Number     Number       Type             X           Y           Z
 ---------------------------------------------------------------------
      1          6           0        1.164561    4.918034    0.905176
      2          6           0        1.501460    3.904965   -0.192271
      3          6           0        1.680194    2.477194    0.337006
      4          6           0        2.017361    1.464010   -0.764215
      5          6           0        2.334529    0.040687   -0.271337
      6          6           0        2.880915   -0.843868   -1.406436
      7          6           0        3.366245   -2.201225   -0.880533
      8          6           0        2.277509   -2.918429   -0.071862
      9          6           0        1.698974   -2.022367    1.037764
     10          6           0        0.668524   -2.772856    1.889127
     11          6           0        1.169564   -0.676343    0.467867
     12          6           0       -0.114564   -0.834921   -0.393142
     13          6           0       -1.398677   -0.371059    0.309545
     14          6           0       -2.657314   -0.556000   -0.544894
     15          6           0       -3.939035   -0.076986    0.145119
     16          6           0       -5.191453   -0.278596   -0.708140
     17          8           0       -6.370953    0.217900   -0.094027
     18          1           0        1.044679    5.926532    0.496896
     19          1           0        1.954792    4.957779    1.663353
     20          1           0        0.232014    4.653232    1.416167
     21          1           0        2.418743    4.216024   -0.709801
     22          1           0        0.709447    3.912110   -0.953064
     23          1           0        0.764519    2.177109    0.862399
     24          1           0        2.477608    2.469864    1.093936
     25          1           0        2.895346    1.829644   -1.314718
     26          1           0        1.202064    1.442376   -1.499652
     27          1           0        3.144742    0.142503    0.468436
     28          1           0        3.701707   -0.324930   -1.916094
     29          1           0        2.100033   -0.997479   -2.164206
     30          1           0        4.243215   -2.040312   -0.238039
     31          1           0        3.702718   -2.834242   -1.709760
     32          1           0        2.681137   -3.836203    0.372982
     33          1           0        1.471548   -3.239976   -0.745729
     34          1           0        2.535580   -1.759995    1.702986
     35          1           0       -0.188718   -3.106200    1.294006
     36          1           0        0.287547   -2.145143    2.702101
     37          1           0        1.116294   -3.665302    2.339809
     38          1           0        0.905608   -0.056619    1.334456
     39          1           0       -0.241741   -1.879741   -0.700333
     40          1           0       -0.016902   -0.274386   -1.329770
     41          1           0       -1.299784    0.688527    0.582578
     42          1           0       -1.519704   -0.914563    1.255535
     43          1           0       -2.760562   -1.617027   -0.812850
     44          1           0       -2.533377   -0.016920   -1.494608
     45          1           0       -3.858495    0.987142    0.399565
     46          1           0       -4.064830   -0.614939    1.096732
     47          1           0       -5.297014   -1.344051   -0.972628
     48          1           0       -5.096285    0.274499   -1.649491
     49          1           0       -6.497069   -0.265946    0.728373
 ---------------------------------------------------------------------

 SCF Done:  E(RB3LYP) =  -704.273358921     A.U. after    1 cycles

 The electronic state is 1-A.
 Alpha  occ. eigenvalues --  -19.12838 -10.22080 -10.17918 -10.17887 -10.17707
 Alpha  occ. eigenvalues --  -10.17640 -10.17622 -10.17606 -10.17535 -10.17285
 Alpha  occ. eigenvalues --  -10.17250 -10.17211 -10.17119 -10.17115 -10.17037
 Alpha  occ. eigenvalues --  -10.16940 -10.16875  -1.00918  -0.83906  -0.79876
 Alpha  occ. eigenvalues --   -0.79310  -0.76237  -0.75823  -0.73174  -0.70076
 Alpha  occ. eigenvalues --   -0.67773  -0.65405  -0.62931  -0.60265  -0.58948
 Alpha  occ. eigenvalues --   -0.57886  -0.57019  -0.56023  -0.52445  -0.49916
 Alpha  occ. eigenvalues --   -0.48245  -0.47008  -0.46044  -0.45125  -0.43593
 Alpha  occ. eigenvalues --   -0.42868  -0.42773  -0.42256  -0.41639  -0.40303
 Alpha  occ. eigenvalues --   -0.40060  -0.39439  -0.38360  -0.38025  -0.37328
 Alpha  occ. eigenvalues --   -0.36830  -0.36444  -0.35368  -0.34786  -0.34390
 Alpha  occ. eigenvalues --   -0.34085  -0.33145  -0.32646  -0.32460  -0.32287
 Alpha  occ. eigenvalues --   -0.31766  -0.31522  -0.31254  -0.30970  -0.29361
 Alpha  occ. eigenvalues --   -0.28295  -0.27837  -0.25901
 Alpha virt. eigenvalues --    0.07210   0.07983   0.08439   0.09050   0.09892
 Alpha virt. eigenvalues --    0.10742   0.10946   0.11881   0.12783   0.13121
 Alpha virt. eigenvalues --    0.13982   0.14208   0.14478   0.15509   0.15807

 Mulliken charges:
               1
     1  C   -0.380410
     2  C   -0.163817
     3  C   -0.173913
     4  C   -0.214539
     5  C    0.002916
     6  C   -0.198953
     7  C   -0.216893
     8  C   -0.182931
     9  C    0.024155
    10  C   -0.415098
    11  C    0.013564
    12  C   -0.202177
    13  C   -0.192130
    14  C   -0.185111
    15  C   -0.198865
    16  C   -0.055920
    17  O   -0.419463
    18  H    0.110134
    19  H    0.112324
    20  H    0.112278
    21  H    0.093041
    22  H    0.093234
    23  H    0.099865
    24  H    0.088862
    25  H    0.087334
    26  H    0.092211
    27  H    0.060700
    28  H    0.084522
    29  H    0.091521
    30  H    0.089622
    31  H    0.086606
    32  H    0.085370
    33  H    0.091381
    34  H    0.063818
    35  H    0.112665
    36  H    0.107792
    37  H    0.107524
    38  H    0.061925
    39  H    0.091914
    40  H    0.093987
    41  H    0.098473
    42  H    0.096866
    43  H    0.092726
    44  H    0.095448
    45  H    0.104238
    46  H    0.082570
    47  H    0.082699
    48  H    0.109387
    49  H    0.278546
 Sum of Mulliken charges =  -0.00000

 Dipole moment (field-independent basis, Debye):
    X=              1.1950    Y=             -0.9985    Z=              0.6558  Tot=              1.6897
 Quadrupole moment (field-independent basis, Debye-Ang):
   XX=           -122.1850   YY=           -111.4605   ZZ=           -109.9467
   XY=              6.8887   XZ=             -4.7570   YZ=             -0.8703

  Exact polarizability: 190.919  -5.453 186.751  -6.035  -2.193 155.390
 Approx polarizability: 246.109  -0.884 244.235  -1.020  -1.731 242.508

                      1                      2                      3
                      A                      A                      A
 Frequencies --     19.0323                32.9484                47.8312
 Red. masses --      4.3321                 2.2629                 1.8682
 Frc consts  --      0.0009                 0.0014                 0.0025
 IR Inten    --      0.1059                 0.4178                 1.8294

                      4                      5                      6
                      A                      A                      A
 Frequencies --     58.0389                61.7257                74.5915
 Red. masses --      2.3650                 2.4953                 3.2331
 Frc consts  --      0.0047                 0.0056                 0.0106
 IR Inten    --      0.5877                 0.1917                 0.4229

                      7                      8                      9
                      A                      A                      A
 Frequencies --     84.0271               113.0895               126.7059
 Red. masses --      2.8905                 3.0801                 2.2827
 Frc consts  --      0.0120                 0.0232                 0.0216
 IR Inten    --      0.5194                 0.3297                 0.3767

                     10                     11                     12
                      A                      A                      A
 Frequencies --    129.6296               154.9962               163.9180
 Red. masses --      2.0037                 2.2935                 3.0158
 Frc consts  --      0.0198                 0.0325                 0.0477
 IR Inten    --      1.2346                 1.1813                 0.0477

                     13                     14                     15
                      A                      A                      A
 Frequencies --    184.8211               209.9064               239.9611
 Red. masses --      2.3263                 3.2335                 1.8529
 Frc consts  --      0.0468                 0.0839                 0.0629
 IR Inten    --      0.1423                 0.4788                 0.2090

                     16                     17                     18
                      A                      A                      A
 Frequencies --    247.0680               253.8029               276.8091
 Red. masses --      1.3612                 1.0976                 2.2957
 Frc consts  --      0.0490                 0.0417                 0.1036
 IR Inten    --      0.2512                 0.2721                 0.5229

                     19                     20                     21
                      A                      A                      A
 Frequencies --    282.3478               300.0535               305.9835
 Red. masses --      3.1069                 1.5302                 1.5337
 Frc consts  --      0.1459                 0.0812                 0.0846
 IR Inten    --      2.4819                48.9466                47.6095

                     22                     23                     24
                      A                      A                      A
 Frequencies --    333.3655               345.9635               404.1599
 Red. masses --      2.3478                 2.7224                 3.4190
 Frc consts  --      0.1537                 0.1920                 0.3290
 IR Inten    --      4.5383                11.3071                 0.5465

                     25                     26                     27
                      A                      A                      A
 Frequencies --    425.7637               449.9474               472.4403
 Red. masses --      3.0474                 2.8928                 2.6501
 Frc consts  --      0.3255                 0.3451                 0.3485
 IR Inten    --      1.2022                 0.2675                 2.2617

                     28                     29                     30
                      A                      A                      A
 Frequencies --    494.3645               534.1319               562.5410
 Red. masses --      3.6216                 2.0641                 2.2960
 Frc consts  --      0.5215                 0.3470                 0.4281
 IR Inten    --      5.0918                 0.1725                 0.1785

                     31                     32                     33
                      A                      A                      A
 Frequencies --    617.1911               727.8658               732.5917
 Red. masses --      2.5093                 1.1052                 1.0967
 Frc consts  --      0.5632                 0.3450                 0.3468
 IR Inten    --      1.9375                 3.8789                 2.6900

                     34                     35                     36
                      A                      A                      A
 Frequencies --    753.0946               773.3305               795.0964
 Red. masses --      1.1703                 1.6621                 1.4679
 Frc consts  --      0.3910                 0.5857                 0.5467
 IR Inten    --      0.5093                 0.2023                 0.1785

                     37                     38                     39
                      A                      A                      A
 Frequencies --    812.4691               847.3378               871.5672
 Red. masses --      1.5206                 1.7456                 1.3917
 Frc consts  --      0.5914                 0.7384                 0.6229
 IR Inten    --      0.6807                 1.4571                 0.6897

                     40                     41                     42
                      A                      A                      A
 Frequencies --    882.2131               907.2789               916.4775
 Red. masses --      2.2913                 1.8705                 2.2210
 Frc consts  --      1.0507                 0.9072                 1.0991
 IR Inten    --      0.9681                 1.2526                 0.9851

                     43                     44                     45
                      A                      A                      A
 Frequencies --    929.0830               954.4159               973.8349
 Red. masses --      1.4047                 1.6228                 1.9798
 Frc consts  --      0.7144                 0.8710                 1.1062
 IR Inten    --      1.3837                 7.6806                 3.7336

                     46                     47                     48
                      A                      A                      A
 Frequencies --    979.5499               988.6699              1001.5408
 Red. masses --      1.6293                 1.9083                 2.2617
 Frc consts  --      0.9211                 1.0990                 1.3367
 IR Inten    --      1.2097                 0.7917                 5.7116

                     49                     50                     51
                      A                      A                      A
 Frequencies --   1004.9532              1035.1210              1041.3955
 Red. masses --      2.5747                 2.7552                 2.4596
 Frc consts  --      1.5320                 1.7393                 1.5716
 IR Inten    --      5.2157                 3.3290                 0.9349

                     52                     53                     54
                      A                      A                      A
 Frequencies --   1060.5589              1065.0604              1065.8884
 Red. masses --      2.0853                 2.2217                 2.1530
 Frc consts  --      1.3819                 1.4848                 1.4412
 IR Inten    --      9.3450                 2.1027                 3.8839

                     55                     56                     57
                      A                      A                      A
 Frequencies --   1072.4577              1081.2987              1081.7504
 Red. masses --      2.0916                 1.5954                 3.7301
 Frc consts  --      1.4174                 1.0990                 2.5717
 IR Inten    --     22.8749                 4.2975                84.6160

                     58                     59                     60
                      A                      A                      A
 Frequencies --   1087.1614              1112.2812              1120.5311
 Red. masses --      2.1226                 1.3849                 1.8703
 Frc consts  --      1.4781                 1.0095                 1.3836
 IR Inten    --      0.4180                 0.2021                 0.0798

                     61                     62                     63
                      A                      A                      A
 Frequencies --   1128.4409              1140.2364              1170.2629
 Red. masses --      2.0296                 1.4907                 2.4249
 Frc consts  --      1.5227                 1.1419                 1.9567
 IR Inten    --      1.4458                 5.6505                 0.8076

                     64                     65                     66
                      A                      A                      A
 Frequencies --   1185.5203              1195.6045              1231.9509
 Red. masses --      1.6327                 2.1797                 1.4122
 Frc consts  --      1.3520                 1.8358                 1.2628
 IR Inten    --      3.0651                 1.6741                 0.2058

                     67                     68                     69
                      A                      A                      A
 Frequencies --   1236.7826              1249.6469              1260.8454
 Red. masses --      1.3457                 1.4614                 1.3577
 Frc consts  --      1.2128                 1.3446                 1.2716
 IR Inten    --      1.2642                 1.6489                 6.2716

                     70                     71                     72
                      A                      A                      A
 Frequencies --   1269.4457              1281.5054              1298.6941
 Red. masses --      1.3041                 1.3040                 1.2722
 Frc consts  --      1.2382                 1.2617                 1.2642
 IR Inten    --      1.6021                 2.4696                 4.2222

                     73                     74                     75
                      A                      A                      A
 Frequencies --   1303.2114              1310.7139              1320.3172
 Red. masses --      1.2415                 1.2257                 1.1521
 Frc consts  --      1.2423                 1.2407                 1.1833
 IR Inten    --      2.0831                 0.5368                 2.6846

                     76                     77                     78
                      A                      A                      A
 Frequencies --   1326.3449              1328.6511              1331.9063
 Red. masses --      1.1239                 1.1379                 1.1935
 Frc consts  --      1.1649                 1.1835                 1.2475
 IR Inten    --      0.6486                 0.3334                 3.2784

                     79                     80                     81
                      A                      A                      A
 Frequencies --   1336.0446              1341.1500              1347.5484
 Red. masses --      1.1301                 1.2490                 1.2733
 Frc consts  --      1.1885                 1.3236                 1.3623
 IR Inten    --      0.9505                 0.7993                 0.1339

                     82                     83                     84
                      A                      A                      A
 Frequencies --   1361.8850              1374.1730              1376.0251
 Red. masses --      1.4279                 1.4244                 1.3727
 Frc consts  --      1.5604                 1.5848                 1.5314
 IR Inten    --      2.3294                 1.1054                 2.1810

                     85                     86                     87
                      A                      A                      A
 Frequencies --   1379.0200              1391.9206              1393.5866
 Red. masses --      1.3362                 1.4228                 1.5382
 Frc consts  --      1.4972                 1.6241                 1.7601
 IR Inten    --      0.2406                 3.0697                 1.3075

                     88                     89                     90
                      A                      A                      A
 Frequencies --   1396.7821              1401.0678              1402.3987
 Red. masses --      1.4996                 1.4726                 1.4984
 Frc consts  --      1.7238                 1.7031                 1.7362
 IR Inten    --      3.0824                 5.1300                 1.9546

                     91                     92                     93
                      A                      A                      A
 Frequencies --   1408.9885              1413.2867              1415.9959
 Red. masses --      1.2924                 1.2592                 1.3477
 Frc consts  --      1.5117                 1.4819                 1.5921
 IR Inten    --      2.5234                 1.2534                 2.8285

                     94                     95                     96
                      A                      A                      A
 Frequencies --   1424.2910              1473.1871              1482.5496
 Red. masses --      1.2931                 1.0771                 1.0747
 Frc consts  --      1.5455                 1.3773                 1.3918
 IR Inten    --     56.7921                 3.0451                 0.2742

                     97                     98                     99
                      A                      A                      A
 Frequencies --   1485.0294              1485.5884              1487.5233
 Red. masses --      1.0685                 1.0850                 1.0818
 Frc consts  --      1.3884                 1.4108                 1.4103
 IR Inten    --      0.1596                 1.5406                 0.7523

                    100                    101                    102
                      A                      A                      A
 Frequencies --   1489.3274              1492.4231              1497.7416
 Red. masses --      1.0838                 1.0651                 1.0645
 Frc consts  --      1.4164                 1.3977                 1.4069
 IR Inten    --      3.7507                 1.4736                 2.7690

                    103                    104                    105
                      A                      A                      A
 Frequencies --   1499.5085              1499.7466              1501.2983
 Red. masses --      1.0791                 1.0417                 1.0891
 Frc consts  --      1.4296                 1.3804                 1.4463
 IR Inten    --      2.0526                 4.4522                 1.5159

                    106                    107                    108
                      A                      A                      A
 Frequencies --   1506.9301              1509.8508              1514.2499
 Red. masses --      1.0701                 1.0768                 1.0885
 Frc consts  --      1.4318                 1.4463                 1.4706
 IR Inten    --      1.5258                 3.2718                 5.7576

                    109                    110                    111
                      A                      A                      A
 Frequencies --   1518.2922              2964.7673              2967.5726
 Red. masses --      1.0955                 1.0709                 1.0814
 Frc consts  --      1.4880                 5.5462                 5.6112
 IR Inten    --      3.0426                51.9606                 8.3513

                    112                    113                    114
                      A                      A                      A
 Frequencies --   2982.1604              2996.5907              3001.6385
 Red. masses --      1.0814                 1.0640                 1.0616
 Frc consts  --      5.6664                 5.6292                 5.6352
 IR Inten    --     22.6578                 8.4894                11.2044

                    115                    116                    117
                      A                      A                      A
 Frequencies --   3002.3104              3005.3300              3007.1487
 Red. masses --      1.0599                 1.0611                 1.0690
 Frc consts  --      5.6287                 5.6467                 5.6955
 IR Inten    --     11.2000                 1.9720                16.5714

                    118                    119                    120
                      A                      A                      A
 Frequencies --   3009.8101              3011.9075              3012.4999
 Red. masses --      1.0723                 1.0612                 1.0605
 Frc consts  --      5.7235                 5.6720                 5.6702
 IR Inten    --      3.6101                18.0145                22.4406

                    121                    122                    123
                      A                      A                      A
 Frequencies --   3015.0643              3015.7337              3024.7812
 Red. masses --      1.0663                 1.0676                 1.0512
 Frc consts  --      5.7110                 5.7206                 5.6668
 IR Inten    --     24.5655                77.5845                33.8497

                    124                    125                    126
                      A                      A                      A
 Frequencies --   3027.0043              3027.3185              3029.1311
 Red. masses --      1.0738                 1.0516                 1.0730
 Frc consts  --      5.7970                 5.6783                 5.8009
 IR Inten    --      3.6086                24.5607                10.0868

                    127                    128                    129
                      A                      A                      A
 Frequencies --   3034.7754              3038.4182              3043.5217
 Red. masses --      1.0739                 1.0951                 1.0953
 Frc consts  --      5.8270                 5.9564                 5.9778
 IR Inten    --     53.6788                15.4672                 6.7529

                    130                    131                    132
                      A                      A                      A
 Frequencies --   3049.6556              3051.8846              3053.1084
 Red. masses --      1.0989                 1.0932                 1.0935
 Frc consts  --      6.0214                 5.9991                 6.0056
 IR Inten    --     40.4575                48.0875                15.5870

                    133                    134                    135
                      A                      A                      A
 Frequencies --   3059.8704              3062.3523              3067.9664
 Red. masses --      1.1027                 1.1029                 1.1005
 Frc consts  --      6.0830                 6.0939                 6.1030
 IR Inten    --     41.5630               132.9528                 6.1150

                    136                    137                    138
                      A                      A                      A
 Frequencies --   3074.2142              3090.8127              3093.3432
 Red. masses --      1.1017                 1.1009                 1.1008
 Frc consts  --      6.1346                 6.1965                 6.2058
 IR Inten    --    137.0968                38.1562                36.3225

                    139                    140                    141
                      A                      A                      A
 Frequencies --   3093.7370              3099.4104              3814.4478
 Red. masses --      1.1020                 1.1009                 1.0661
 Frc consts  --      6.2145                 6.2310                 9.1390
 IR Inten    --     62.8662                39.7452                14.5640

 - Thermochemistry -
 -------------------
 Temperature   298.150 Kelvin.  Pressure   1.00000 Atm.
 Atom     1 has atomic number  6 and mass  12.00000

 Molecular mass:   240.24532 amu.
 Principal axes and moments of inertia in atomic units:
                           1         2         3
     Eigenvalues --  4631.523728023.75495**********
           X            0.99994   0.01121  -0.00159
           Y           -0.01120   0.99994   0.00151
           Z            0.00161  -0.00150   1.00000
 This molecule is an asymmetric top.
 Rotational symmetry number  1.
 Warning -- assumption of classical behavior for rotation
           may cause significant error
 Rotational temperatures (Kelvin)      0.01870     0.01079     0.00762
 Rotational constants (GHZ):           0.38966     0.22492     0.15881
 Zero-point vibrational energy    1200379.7 (Joules/Mol)
                                  286.89763 (Kcal/Mol)
 Warning -- explicit consideration of  31 degrees of freedom as
           vibrations may cause significant error
 Vibrational temperatures:     27.38    47.41    68.82    83.51    88.81
          (Kelvin)            107.32   120.90   162.71   182.30   186.51
                              223.00   235.84   265.92   302.01   345.25
                              355.48   365.17   398.27   406.24   431.71
                              440.24   479.64   497.76   581.50   612.58
                              647.37   679.74   711.28   768.50   809.37
                              888.00  1047.24  1054.04  1083.54  1112.65
                             1143.97  1168.96  1219.13  1253.99  1269.31
                             1305.37  1318.61  1336.74  1373.19  1401.13
                             1409.35  1422.48  1440.99  1445.90  1489.31
                             1498.34  1525.91  1532.38  1533.58  1543.03
                             1555.75  1556.40  1564.18  1600.32  1612.19
                             1623.57  1640.55  1683.75  1705.70  1720.21
                             1772.50  1779.45  1797.96  1814.08  1826.45
                             1843.80  1868.53  1875.03  1885.82  1899.64
                             1908.31  1911.63  1916.32  1922.27  1929.62
                             1938.82  1959.45  1977.13  1979.79  1984.10
                             2002.66  2005.06  2009.66  2015.82  2017.74
                             2027.22  2033.40  2037.30  2049.24  2119.59
                             2133.06  2136.63  2137.43  2140.21  2142.81
                             2147.26  2154.92  2157.46  2157.80  2160.03
                             2168.14  2172.34  2178.67  2184.48  4265.64
                             4269.68  4290.66  4311.43  4318.69  4319.65
                             4324.00  4326.62  4330.45  4333.46  4334.32
                             4338.01  4338.97  4351.99  4355.18  4355.64
                             4358.24  4366.36  4371.61  4378.95  4387.77
                             4390.98  4392.74  4402.47  4406.04  4414.12
                             4423.11  4446.99  4450.63  4451.20  4459.36
                             5488.14

 Zero-point correction=                           0.457200 (Hartree/Particle)
 Thermal correction to Energy=                    0.477952
 Thermal correction to Enthalpy=                  0.478896
 Thermal correction to Gibbs Free Energy=         0.406093
 Sum of electronic and zero-point Energies=           -703.816158
 Sum of electronic and thermal Energies=              -703.795407
 Sum of electronic and thermal Enthalpies=            -703.794463
 Sum of electronic and thermal Free Energies=         -703.867266

                     E (Thermal)             CV                S
                      KCal/Mol        Cal/Mol-Kelvin    Cal/Mol-Kelvin
 Total                  299.919             77.519            153.227
 Electronic               0.000              0.000              0.000
 Translational            0.889              2.981             42.331
 Rotational               0.889              2.981             34.401
 Vibrational            298.142             71.557             76.496
 Vibration     1          0.593              1.986              6.733
 Vibration     2          0.594              1.983              5.643
 Vibration     3          0.595              1.978              4.905
 Vibration     4          0.596              1.974              4.523
 Vibration     5          0.597              1.973              4.401
 Vibration     6          0.599              1.966              4.028
 Vibration     7          0.601              1.960              3.795
 Vibration     8          0.607              1.939              3.215
 Vibration     9          0.611              1.926              2.995
 Vibration    10          0.612              1.924              2.952
 Vibration    11          0.620              1.897              2.610
 Vibration    12          0.623              1.887              2.504
 Vibration    13          0.631              1.861              2.279
 Vibration    14          0.642              1.826              2.044
 Vibration    15          0.657              1.779              1.803
 Vibration    16          0.661              1.768              1.751
 Vibration    17          0.665              1.756              1.704
 Vibration    18          0.678              1.716              1.553
 Vibration    19          0.681              1.706              1.519
 Vibration    20          0.693              1.674              1.417
 Vibration    21          0.696              1.662              1.384
 Vibration    22          0.715              1.609              1.244
 Vibration    23          0.724              1.583              1.185
 Vibration    24          0.769              1.461              0.947
 Vibration    25          0.788              1.414              0.873
 Vibration    26          0.809              1.361              0.796
 Vibration    27          0.829              1.311              0.731
 Vibration    28          0.850              1.263              0.672
 Vibration    29          0.889              1.175              0.578
 Vibration    30          0.918              1.112              0.519
 Vibration    31          0.977              0.996              0.421

 Optimization completed.
    -- Stationary point found.
 Normal termination of Gaussian 16 at Mon May 22 22:09:50 2023.
