 Gaussian 16, Revision A.03,
 Gaussian 16:  ES64L-G16RevA.03 25-Dec-2016

 -----------------------------
 # opt freq b3lyp/6-31g(2df,p)
 -----------------------------

 -------------------
 Title Card Required
 -------------------
 Symbolic Z-matrix:
 Charge =  0 Multiplicity = 1

 SCF Done:  E(RB3LYP) =  -1039.38018188     A.U. after   13 cycles
 SCF Done:  E(RB3LYP) =  -1039.40660253     A.U. after   11 cycles
 SCF Done:  E(RB3LYP) =  -1039.41370089     A.U. after   11 cycles
 SCF Done:  E(RB3LYP) =  -1039.41834846     A.U. after   11 cycles
 SCF Done:  E(RB3LYP) =  -1039.41996319     A.U. after   10 cycles
 SCF Done:  E(RB3LYP) =  -1039.42170739     A.U. after   11 cycles
 SCF Done:  E(RB3LYP) =  -1039.42379935     A.U. after   12 cycles
 SCF Done:  E(RB3LYP) =  -1039.42449215     A.U. after   11 cycles
 SCF Done:  E(RB3LYP) =  -1039.42516439     A.U. after   11 cycles
 SCF Done:  E(RB3LYP) =  -1039.42551116     A.U. after   11 cycles
 SCF Done:  E(RB3LYP) =  -1039.42568806     A.U. after   11 cycles
 SCF Done:  E(RB3LYP) =  -1039.42693493     A.U. after   10 cycles
 SCF Done:  E(RB3LYP) =  -1039.42699706     A.U. after   10 cycles
 SCF Done:  E(RB3LYP) =  -1039.42700786     A.U. after    9 cycles
 SCF Done:  E(RB3LYP) =  -1039.42701148     A.U. after    7 cycles
 SCF Done:  E(RB3LYP) =  -1039.42701306     A.U. after    7 cycles
 SCF Done:  E(RB3LYP) =  -1039.42701351     A.U. after    7 cycles
 SCF Done:  E(RB3LYP) =  -1039.42701366     A.U. after    7 cycles
 SCF Done:  E(RB3LYP) =  -1039.42701368     A.U. after    6 cycles
 Optimization completed.
    -- Stationary point found.
 Normal termination of Gaussian 16 at Mon May 22 21:05:27 2023.

 ----------------------------------------------------------------------
 #N Geom=AllCheck Guess=TCheck SCRF=Check GenChk RB3LYP/6-31G(2df,p) Fr
 eq
 ----------------------------------------------------------------------

 Structure from the checkpoint file:  "CCCCCqCCrPqOrOC1qOCrCCC1.chk"
 -------------------
 Title Card Required
 -------------------
 Charge =  0 Multiplicity = 1

                         Standard orientation:
 ---------------------------------------------------------------------
 Center     Atomic      Atomic             Coordinates (Angstroms)
 Number     Number       Type             X           Y           Z
 ---------------------------------------------------------------------
      1          6           0        5.652904   -1.681581    0.606254
      2          6           0        4.815578   -0.775180   -0.300494
      3          6           0        3.455029   -0.412910    0.303909
      4          6           0        2.626660    0.514451   -0.594039
      5          6           0        1.238994    0.900383   -0.023519
      6          6           0        0.834860    2.347853   -0.377893
      7          6           0        1.618596    3.409241    0.402955
      8         15           0       -0.069292   -0.261221   -0.645505
      9          8           0        0.520159   -1.624343    0.080275
     10          8           0       -1.248791    0.225967    0.439933
     11          6           0       -2.567587   -0.169402    0.206920
     12          8           0       -2.519626   -1.581263    0.063024
     13          6           0       -3.729591   -2.270021   -0.174726
     14          6           0       -3.545873    0.387074    1.276609
     15          6           0       -4.465941    0.919440    0.140934
     16          6           0       -3.350374    0.611758   -0.898286
     17          1           0        6.616481   -1.928460    0.148964
     18          1           0        5.131209   -2.622492    0.813856
     19          1           0        5.855444   -1.199416    1.569310
     20          1           0        4.660886   -1.269621   -1.268992
     21          1           0        5.376748    0.144038   -0.517801
     22          1           0        3.609421    0.077515    1.275692
     23          1           0        2.885291   -1.324965    0.508430
     24          1           0        2.505834    0.049513   -1.583828
     25          1           0        3.203072    1.430238   -0.776955
     26          1           0        1.245232    0.796201    1.069498
     27          1           0       -0.232841    2.485177   -0.175162
     28          1           0        0.969451    2.506517   -1.456102
     29          1           0        1.445692    3.307120    1.479873
     30          1           0        1.309999    4.417801    0.109207
     31          1           0        2.697364    3.333819    0.232654
     32          1           0       -0.042573   -2.369683   -0.156720
     33          1           0       -3.475898   -3.331087   -0.231075
     34          1           0       -4.202658   -1.975740   -1.120430
     35          1           0       -4.452496   -2.131085    0.639822
     36          1           0       -3.059442    1.178987    1.848468
     37          1           0       -3.966044   -0.341103    1.973567
     38          1           0       -4.769504    1.964421    0.221542
     39          1           0       -5.363485    0.312942   -0.002801
     40          1           0       -2.790023    1.498663   -1.199080
     41          1           0       -3.631237    0.059477   -1.796973
 ---------------------------------------------------------------------

 SCF Done:  E(RB3LYP) =  -1039.42701368     A.U. after    1 cycles

 The electronic state is 1-A.
 Alpha  occ. eigenvalues --  -77.11639 -19.15329 -19.14035 -19.13816 -10.28671
 Alpha  occ. eigenvalues --  -10.23461 -10.18673 -10.18049 -10.18037 -10.17535
 Alpha  occ. eigenvalues --  -10.17392 -10.17115 -10.16852 -10.16782 -10.16308
 Alpha  occ. eigenvalues --  -10.16138  -6.57645  -4.74107  -4.73875  -4.73363
 Alpha  occ. eigenvalues --   -1.06896  -1.01433  -0.99146  -0.83118  -0.80147
 Alpha  occ. eigenvalues --   -0.77028  -0.72224  -0.71251  -0.67708  -0.67008
 Alpha  occ. eigenvalues --   -0.63852  -0.61136  -0.59712  -0.56593  -0.55186
 Alpha  occ. eigenvalues --   -0.54316  -0.51588  -0.50151  -0.47573  -0.46264
 Alpha  occ. eigenvalues --   -0.46009  -0.44832  -0.43992  -0.43644  -0.42588
 Alpha  occ. eigenvalues --   -0.42043  -0.40583  -0.39605  -0.39187  -0.38371
 Alpha  occ. eigenvalues --   -0.38333  -0.36918  -0.35614  -0.35066  -0.34478
 Alpha  occ. eigenvalues --   -0.34197  -0.34088  -0.33926  -0.32521  -0.32196
 Alpha  occ. eigenvalues --   -0.31800  -0.31364  -0.31226  -0.29859  -0.29387
 Alpha  occ. eigenvalues --   -0.28320  -0.25693  -0.21302
 Alpha virt. eigenvalues --    0.04415   0.05259   0.07322   0.07521   0.10045
 Alpha virt. eigenvalues --    0.10897   0.11446   0.12078   0.12563   0.13072
 Alpha virt. eigenvalues --    0.13493   0.14563   0.15050   0.15283   0.15836

 Mulliken charges:
               1
     1  C   -0.378790
     2  C   -0.163750
     3  C   -0.165099
     4  C   -0.227244
     5  C    0.035057
     6  C   -0.204551
     7  C   -0.392898
     8  P    0.096840
     9  O   -0.379129
    10  O   -0.295241
    11  C    0.513155
    12  O   -0.279664
    13  C   -0.252305
    14  C   -0.279235
    15  C   -0.225934
    16  C   -0.284731
    17  H    0.106489
    18  H    0.113432
    19  H    0.110936
    20  H    0.092101
    21  H    0.087983
    22  H    0.084944
    23  H    0.121930
    24  H    0.102081
    25  H    0.090359
    26  H    0.090735
    27  H    0.107588
    28  H    0.098934
    29  H    0.116400
    30  H    0.110499
    31  H    0.118109
    32  H    0.302895
    33  H    0.131600
    34  H    0.117412
    35  H    0.117108
    36  H    0.120109
    37  H    0.106545
    38  H    0.105537
    39  H    0.102150
    40  H    0.119741
    41  H    0.107904
 Sum of Mulliken charges =  -0.00000

 Dipole moment (field-independent basis, Debye):
    X=             -2.4984    Y=             -0.3262    Z=             -0.3041  Tot=              2.5378
 Quadrupole moment (field-independent basis, Debye-Ang):
   XX=            -98.0700   YY=           -101.3725   ZZ=           -109.5321
   XY=              4.9814   XZ=             -0.2892   YZ=              1.3653

  Exact polarizability: 200.172   1.290 164.741  -0.862   1.647 132.335
 Approx polarizability: 238.164   3.958 232.796  -2.106   2.426 210.561

                      1                      2                      3
                      A                      A                      A
 Frequencies --     21.1900                32.6654                40.2550
 Red. masses --      3.9776                 4.0417                 3.9371
 Frc consts  --      0.0011                 0.0025                 0.0038
 IR Inten    --      0.0999                 0.5244                 0.2098

                      4                      5                      6
                      A                      A                      A
 Frequencies --     50.6122                66.2756                81.2266
 Red. masses --      2.2385                 2.3796                 2.5686
 Frc consts  --      0.0034                 0.0062                 0.0100
 IR Inten    --      0.0876                 0.7703                 0.7490

                      7                      8                      9
                      A                      A                      A
 Frequencies --    101.0217               105.0447               115.8049
 Red. masses --      2.4063                 2.3037                 2.5259
 Frc consts  --      0.0145                 0.0150                 0.0200
 IR Inten    --      0.6186                 0.7438                 0.5410

                     10                     11                     12
                      A                      A                      A
 Frequencies --    131.3556               138.6550               158.9713
 Red. masses --      2.1707                 1.7604                 3.0670
 Frc consts  --      0.0221                 0.0199                 0.0457
 IR Inten    --      0.5893                 0.1286                 0.7420

                     13                     14                     15
                      A                      A                      A
 Frequencies --    194.5348               214.6780               221.5867
 Red. masses --      3.2259                 1.6219                 1.9474
 Frc consts  --      0.0719                 0.0440                 0.0563
 IR Inten    --      1.2625                 1.8874                 5.6108

                     16                     17                     18
                      A                      A                      A
 Frequencies --    232.4985               241.5847               268.5163
 Red. masses --      1.6255                 1.2935                 2.1393
 Frc consts  --      0.0518                 0.0445                 0.0909
 IR Inten    --      6.5007                 1.5507                 0.2098

                     19                     20                     21
                      A                      A                      A
 Frequencies --    292.3805               303.4559               328.3391
 Red. masses --      2.2044                 2.2239                 3.0099
 Frc consts  --      0.1110                 0.1207                 0.1912
 IR Inten    --      4.8377                10.7648                10.6667

                     22                     23                     24
                      A                      A                      A
 Frequencies --    338.5889               352.8650               374.3528
 Red. masses --      2.1492                 3.0175                 3.6387
 Frc consts  --      0.1452                 0.2214                 0.3004
 IR Inten    --     28.6628                15.3275                13.9380

                     25                     26                     27
                      A                      A                      A
 Frequencies --    421.7064               453.3148               479.3413
 Red. masses --      3.1645                 3.4181                 3.1552
 Frc consts  --      0.3316                 0.4138                 0.4271
 IR Inten    --      6.5427                13.9333                 0.8179

                     28                     29                     30
                      A                      A                      A
 Frequencies --    487.2844               498.5947               645.8954
 Red. masses --      2.7917                 5.4086                 5.8947
 Frc consts  --      0.3906                 0.7922                 1.4489
 IR Inten    --      2.6346                13.9398                16.1363

                     31                     32                     33
                      A                      A                      A
 Frequencies --    711.2719               715.7012               743.4809
 Red. masses --      1.3643                 1.6635                 1.3134
 Frc consts  --      0.4067                 0.5020                 0.4278
 IR Inten    --      7.5927                27.4158                 3.0102

                     34                     35                     36
                      A                      A                      A
 Frequencies --    754.5075               777.7985               781.7770
 Red. masses --      1.5273                 2.2092                 1.4335
 Frc consts  --      0.5123                 0.7874                 0.5162
 IR Inten    --     26.4307                92.4950                 9.7819

                     37                     38                     39
                      A                      A                      A
 Frequencies --    800.8612               811.3544               859.5044
 Red. masses --      2.6815                 2.5022                 2.3191
 Frc consts  --      1.0133                 0.9705                 1.0094
 IR Inten    --     91.2136                35.9982                 6.2526

                     40                     41                     42
                      A                      A                      A
 Frequencies --    883.5907               896.0063               912.5564
 Red. masses --      2.1076                 2.9695                 1.6760
 Frc consts  --      0.9695                 1.4046                 0.8223
 IR Inten    --     13.9728               107.0981                 2.3322

                     43                     44                     45
                      A                      A                      A
 Frequencies --    937.7640               944.0281               966.0835
 Red. masses --      2.6987                 1.3307                 2.5935
 Frc consts  --      1.3982                 0.6987                 1.4262
 IR Inten    --      0.6466                 0.4127                23.2123

                     46                     47                     48
                      A                      A                      A
 Frequencies --    973.1354              1019.4732              1027.7383
 Red. masses --      2.7879                 1.0803                 3.1393
 Frc consts  --      1.5555                 0.6615                 1.9537
 IR Inten    --     17.2268                 0.5015                 0.7094

                     49                     50                     51
                      A                      A                      A
 Frequencies --   1049.6030              1057.7216              1065.5750
 Red. masses --      1.4715                 1.9034                 2.1310
 Frc consts  --      0.9551                 1.2547                 1.4256
 IR Inten    --     18.2783                14.2457                 1.4387

                     52                     53                     54
                      A                      A                      A
 Frequencies --   1086.8913              1092.5932              1100.8063
 Red. masses --      4.2509                 1.6517                 1.8756
 Frc consts  --      2.9587                 1.1617                 1.3391
 IR Inten    --     18.6337                21.8484               101.5421

                     55                     56                     57
                      A                      A                      A
 Frequencies --   1113.8179              1135.0767              1155.8652
 Red. masses --      2.7406                 1.8400                 2.6304
 Frc consts  --      2.0032                 1.3967                 2.0705
 IR Inten    --     77.5296                 6.8700                60.3603

                     58                     59                     60
                      A                      A                      A
 Frequencies --   1158.5351              1180.2991              1183.5755
 Red. masses --      2.2601                 1.3046                 2.2986
 Frc consts  --      1.7873                 1.0708                 1.8972
 IR Inten    --      1.3214                 8.5754               166.8914

                     61                     62                     63
                      A                      A                      A
 Frequencies --   1198.4354              1211.4991              1233.4699
 Red. masses --      1.3392                 1.6535                 1.6265
 Frc consts  --      1.1333                 1.4299                 1.4580
 IR Inten    --      0.6578                 1.6375                22.1536

                     64                     65                     66
                      A                      A                      A
 Frequencies --   1244.4707              1253.1325              1255.1445
 Red. masses --      1.1782                 1.3841                 1.5178
 Frc consts  --      1.0750                 1.2806                 1.4088
 IR Inten    --      3.3899                 4.0711                91.6374

                     67                     68                     69
                      A                      A                      A
 Frequencies --   1265.2347              1273.7161              1301.7912
 Red. masses --      1.3086                 1.4838                 1.3212
 Frc consts  --      1.2342                 1.4184                 1.3192
 IR Inten    --      0.7853                 2.1573                28.9567

                     70                     71                     72
                      A                      A                      A
 Frequencies --   1306.9025              1322.2148              1334.3514
 Red. masses --      2.1220                 1.1687                 1.0703
 Frc consts  --      2.1355                 1.2038                 1.1228
 IR Inten    --    123.1651                 0.9298                 1.0939

                     73                     74                     75
                      A                      A                      A
 Frequencies --   1343.1971              1371.1991              1375.4785
 Red. masses --      1.1785                 1.4033                 1.3913
 Frc consts  --      1.2528                 1.5545                 1.5509
 IR Inten    --      2.1666                 3.9116                 0.4406

                     76                     77                     78
                      A                      A                      A
 Frequencies --   1399.3441              1410.6288              1412.3173
 Red. masses --      1.5572                 1.2293                 1.2421
 Frc consts  --      1.7966                 1.4412                 1.4597
 IR Inten    --      4.3527                 0.9962                 1.0290

                     79                     80                     81
                      A                      A                      A
 Frequencies --   1456.9205              1470.6865              1484.6391
 Red. masses --      1.0847                 1.1155                 1.1148
 Frc consts  --      1.3565                 1.4215                 1.4477
 IR Inten    --      3.2518                 5.3702                 0.9729

                     82                     83                     84
                      A                      A                      A
 Frequencies --   1486.0486              1486.9349              1489.2769
 Red. masses --      1.0660                 1.0613                 1.0620
 Frc consts  --      1.3870                 1.3825                 1.3878
 IR Inten    --      0.6461                 0.2677                 0.7041

                     85                     86                     87
                      A                      A                      A
 Frequencies --   1496.6237              1498.9669              1499.4279
 Red. masses --      1.0505                 1.0613                 1.0420
 Frc consts  --      1.3864                 1.4050                 1.3803
 IR Inten    --      8.4734                 2.9821                 4.3897

                     88                     89                     90
                      A                      A                      A
 Frequencies --   1504.8851              1505.5990              1506.3597
 Red. masses --      1.1232                 1.0723                 1.0561
 Frc consts  --      1.4987                 1.4322                 1.4119
 IR Inten    --      5.9603                 3.6050                 2.5879

                     91                     92                     93
                      A                      A                      A
 Frequencies --   1509.4125              1515.0765              2994.1572
 Red. masses --      1.0540                 1.0882                 1.0656
 Frc consts  --      1.4148                 1.4717                 5.6284
 IR Inten    --     11.6895                 4.7088                 6.0697

                     94                     95                     96
                      A                      A                      A
 Frequencies --   3004.8813              3005.0501              3012.2947
 Red. masses --      1.0349                 1.0618                 1.0686
 Frc consts  --      5.5055                 5.6496                 5.7131
 IR Inten    --     56.9425                 1.3083                45.7820

                     97                     98                     99
                      A                      A                      A
 Frequencies --   3016.2852              3026.9778              3027.2709
 Red. masses --      1.0701                 1.0569                 1.0519
 Frc consts  --      5.7364                 5.7058                 5.6795
 IR Inten    --      6.4414                 7.4699                58.4161

                    100                    101                    102
                      A                      A                      A
 Frequencies --   3030.6155              3035.1427              3038.4238
 Red. masses --      1.0481                 1.0848                 1.0922
 Frc consts  --      5.6719                 5.8880                 5.9408
 IR Inten    --     10.2758                19.9088                51.4532

                    103                    104                    105
                      A                      A                      A
 Frequencies --   3058.8967              3064.5064              3068.6986
 Red. masses --      1.1010                 1.0976                 1.0591
 Frc consts  --      6.0696                 6.0731                 5.8763
 IR Inten    --     19.3052                11.4780                38.2003

                    106                    107                    108
                      A                      A                      A
 Frequencies --   3075.8298              3080.6138              3086.8172
 Red. masses --      1.0606                 1.0619                 1.0959
 Frc consts  --      5.9119                 5.9375                 6.1526
 IR Inten    --     49.4590                 2.7480                 2.5274

                    109                    110                    111
                      A                      A                      A
 Frequencies --   3095.3825              3097.8890              3098.5040
 Red. masses --      1.1007                 1.1008                 1.1014
 Frc consts  --      6.2135                 6.2245                 6.2300
 IR Inten    --     64.1951                40.8912                37.2524

                    112                    113                    114
                      A                      A                      A
 Frequencies --   3102.9520              3112.6783              3116.6736
 Red. masses --      1.1012                 1.1072                 1.0986
 Frc consts  --      6.2468                 6.3204                 6.2876
 IR Inten    --     46.6565                 7.8398                25.9107

                    115                    116                    117
                      A                      A                      A
 Frequencies --   3132.2498              3139.1962              3830.5544
 Red. masses --      1.1075                 1.1068                 1.0657
 Frc consts  --      6.4018                 6.4262                 9.2129
 IR Inten    --      3.3172                39.2679                72.3439

 - Thermochemistry -
 -------------------
 Temperature   298.150 Kelvin.  Pressure   1.00000 Atm.
 Atom     1 has atomic number  6 and mass  12.00000

 Molecular mass:   248.15413 amu.
 Principal axes and moments of inertia in atomic units:
                           1         2         3
     Eigenvalues --  2220.272278193.551389766.96796
           X            0.99999  -0.00166   0.00291
           Y            0.00166   1.00000   0.00065
           Z           -0.00292  -0.00064   1.00000
 This molecule is an asymmetric top.
 Rotational symmetry number  1.
 Warning -- assumption of classical behavior for rotation
           may cause significant error
 Rotational temperatures (Kelvin)      0.03901     0.01057     0.00887
 Rotational constants (GHZ):           0.81285     0.22026     0.18478
 Zero-point vibrational energy     945441.7 (Joules/Mol)
                                  225.96600 (Kcal/Mol)
 Warning -- explicit consideration of  29 degrees of freedom as
           vibrations may cause significant error
 Vibrational temperatures:     30.49    47.00    57.92    72.82    95.36
          (Kelvin)            116.87   145.35   151.14   166.62   188.99
                              199.49   228.72   279.89   308.87   318.81
                              334.51   347.59   386.34   420.67   436.61
                              472.41   487.15   507.69   538.61   606.74
                              652.22   689.67   701.09   717.37   929.30
                             1023.36  1029.73  1069.70  1085.57  1119.08
                             1124.80  1152.26  1167.36  1236.64  1271.29
                             1289.15  1312.97  1349.23  1358.25  1389.98
                             1400.12  1466.79  1478.69  1510.14  1521.83
                             1533.12  1563.79  1572.00  1583.81  1602.54
                             1633.12  1663.03  1666.87  1698.19  1702.90
                             1724.28  1743.08  1774.69  1790.52  1802.98
                             1805.87  1820.39  1832.59  1872.99  1880.34
                             1902.37  1919.83  1932.56  1972.85  1979.01
                             2013.34  2029.58  2032.01  2096.18  2115.99
                             2136.06  2138.09  2139.37  2142.74  2153.31
                             2156.68  2157.34  2165.19  2166.22  2167.32
                             2171.71  2179.86  4307.92  4323.35  4323.60
                             4334.02  4339.76  4355.15  4355.57  4360.38
                             4366.89  4371.61  4401.07  4409.14  4415.17
                             4425.43  4432.32  4441.24  4453.56  4457.17
                             4458.06  4464.46  4478.45  4484.20  4506.61
                             4516.60  5511.31

 Zero-point correction=                           0.360100 (Hartree/Particle)
 Thermal correction to Energy=                    0.380638
 Thermal correction to Enthalpy=                  0.381582
 Thermal correction to Gibbs Free Energy=         0.309278
 Sum of electronic and zero-point Energies=          -1039.066914
 Sum of electronic and thermal Energies=             -1039.046376
 Sum of electronic and thermal Enthalpies=           -1039.045432
 Sum of electronic and thermal Free Energies=        -1039.117735

                     E (Thermal)             CV                S
                      KCal/Mol        Cal/Mol-Kelvin    Cal/Mol-Kelvin
 Total                  238.854             74.564            152.175
 Electronic               0.000              0.000              0.000
 Translational            0.889              2.981             42.427
 Rotational               0.889              2.981             33.540
 Vibrational            237.076             68.603             76.208
 Vibration     1          0.593              1.985              6.519
 Vibration     2          0.594              1.983              5.661
 Vibration     3          0.594              1.981              5.246
 Vibration     4          0.595              1.977              4.793
 Vibration     5          0.598              1.970              4.261
 Vibration     6          0.600              1.962              3.861
 Vibration     7          0.604              1.948              3.435
 Vibration     8          0.605              1.945              3.358
 Vibration     9          0.608              1.936              3.169
 Vibration    10          0.612              1.922              2.926
 Vibration    11          0.614              1.915              2.822
 Vibration    12          0.621              1.893              2.562
 Vibration    13          0.635              1.847              2.184
 Vibration    14          0.645              1.819              2.004
 Vibration    15          0.648              1.808              1.946
 Vibration    16          0.653              1.791              1.860
 Vibration    17          0.658              1.777              1.791
 Vibration    18          0.673              1.731              1.606
 Vibration    19          0.688              1.688              1.460
 Vibration    20          0.695              1.667              1.398
 Vibration    21          0.712              1.619              1.268
 Vibration    22          0.719              1.598              1.219
 Vibration    23          0.729              1.569              1.153
 Vibration    24          0.745              1.525              1.062
 Vibration    25          0.784              1.423              0.886
 Vibration    26          0.812              1.354              0.786
 Vibration    27          0.836              1.296              0.712
 Vibration    28          0.843              1.278              0.691
 Vibration    29          0.854              1.253              0.662

 Optimization completed.
    -- Stationary point found.
 Normal termination of Gaussian 16 at Tue May 23 00:57:52 2023.
