 Gaussian 16, Revision A.03,
 Gaussian 16:  ES64L-G16RevA.03 25-Dec-2016

 -----------------------------
 # opt freq b3lyp/6-31g(2df,p)
 -----------------------------

 -------------------
 Title Card Required
 -------------------
 Symbolic Z-matrix:
 Charge =  0 Multiplicity = 1

 SCF Done:  E(RB3LYP) =  -634.551909942     A.U. after   14 cycles
 SCF Done:  E(RB3LYP) =  -634.571626193     A.U. after   12 cycles
 SCF Done:  E(RB3LYP) =  -634.578015439     A.U. after   13 cycles
 SCF Done:  E(RB3LYP) =  -634.583173484     A.U. after   14 cycles
 SCF Done:  E(RB3LYP) =  -634.585882584     A.U. after   12 cycles
 SCF Done:  E(RB3LYP) =  -634.587970170     A.U. after   13 cycles
 SCF Done:  E(RB3LYP) =  -634.588799026     A.U. after   12 cycles
 SCF Done:  E(RB3LYP) =  -634.589316853     A.U. after   12 cycles
 SCF Done:  E(RB3LYP) =  -634.589551303     A.U. after   11 cycles
 SCF Done:  E(RB3LYP) =  -634.589608820     A.U. after   10 cycles
 SCF Done:  E(RB3LYP) =  -634.589633839     A.U. after   10 cycles
 SCF Done:  E(RB3LYP) =  -634.589640858     A.U. after   10 cycles
 SCF Done:  E(RB3LYP) =  -634.589648923     A.U. after   10 cycles
 SCF Done:  E(RB3LYP) =  -634.589652079     A.U. after    9 cycles
 SCF Done:  E(RB3LYP) =  -634.589652606     A.U. after    8 cycles
 SCF Done:  E(RB3LYP) =  -634.589652718     A.U. after    7 cycles
 SCF Done:  E(RB3LYP) =  -634.589652777     A.U. after    7 cycles
 SCF Done:  E(RB3LYP) =  -634.589652793     A.U. after    6 cycles
 Optimization completed.
    -- Stationary point found.
 Normal termination of Gaussian 16 at Sat May 27 18:03:21 2023.

 ----------------------------------------------------------------------
 #N Geom=AllCheck Guess=TCheck SCRF=Check GenChk RB3LYP/6-31G(2df,p) Fr
 eq
 ----------------------------------------------------------------------

 Structure from the checkpoint file:  "CCCCOC1dCCdCCqCdNrCO1.chk"
 -------------------
 Title Card Required
 -------------------
 Charge =  0 Multiplicity = 1

                         Standard orientation:
 ---------------------------------------------------------------------
 Center     Atomic      Atomic             Coordinates (Angstroms)
 Number     Number       Type             X           Y           Z
 ---------------------------------------------------------------------
      1          6           0        6.185400   -0.494375   -0.180197
      2          6           0        4.915158    0.348779   -0.040563
      3          6           0        3.638974   -0.499662   -0.032341
      4          6           0        2.382912    0.346792    0.106926
      5          8           0        1.260704   -0.534717    0.118171
      6          6           0        0.023344   -0.014540    0.076745
      7          6           0       -0.300748    1.294040    0.200476
      8          6           0       -1.599738    1.901761   -0.014325
      9          6           0       -2.799314    1.353428   -0.272080
     10          6           0       -3.133136   -0.116233   -0.314320
     11          6           0       -4.514297   -0.346108    0.277354
     12          7           0       -5.506121   -0.933630   -0.251278
     13          6           0       -2.122311   -0.971870    0.469337
     14          8           0       -0.830724   -1.028715   -0.137927
     15          1           0        7.081035    0.134088   -0.183489
     16          1           0        6.177445   -1.069607   -1.112357
     17          1           0        6.279971   -1.206582    0.646694
     18          1           0        4.865780    1.075127   -0.862463
     19          1           0        4.967501    0.939110    0.883782
     20          1           0        3.671592   -1.221086    0.792908
     21          1           0        3.568476   -1.084795   -0.956994
     22          1           0        2.282614    1.054445   -0.726836
     23          1           0        2.405069    0.926734    1.040132
     24          1           0        0.507697    1.977747    0.420200
     25          1           0       -1.571245    2.989331    0.010816
     26          1           0       -3.637003    2.025844   -0.436283
     27          1           0       -3.148521   -0.490288   -1.348484
     28          1           0       -4.652231    0.058076    1.287599
     29          1           0       -5.267083   -1.262638   -1.193179
     30          1           0       -2.457692   -2.011109    0.496201
     31          1           0       -2.027873   -0.603612    1.496667
 ---------------------------------------------------------------------

 SCF Done:  E(RB3LYP) =  -634.589652793     A.U. after    1 cycles

 The electronic state is 1-A.
 Alpha  occ. eigenvalues --  -19.17942 -19.17737 -14.31683 -10.29351 -10.24756
 Alpha  occ. eigenvalues --  -10.24472 -10.22828 -10.20171 -10.19141 -10.18960
 Alpha  occ. eigenvalues --  -10.18641 -10.18027 -10.17479 -10.17008  -1.10946
 Alpha  occ. eigenvalues --   -1.04525  -0.90322  -0.81420  -0.80914  -0.78313
 Alpha  occ. eigenvalues --   -0.73956  -0.70061  -0.68445  -0.64140  -0.59578
 Alpha  occ. eigenvalues --   -0.59188  -0.57024  -0.55431  -0.53814  -0.50304
 Alpha  occ. eigenvalues --   -0.49226  -0.47651  -0.45905  -0.45312  -0.44326
 Alpha  occ. eigenvalues --   -0.43975  -0.42801  -0.40951  -0.39749  -0.39466
 Alpha  occ. eigenvalues --   -0.37803  -0.37274  -0.35672  -0.35381  -0.34483
 Alpha  occ. eigenvalues --   -0.33622  -0.33322  -0.33038  -0.31642  -0.30065
 Alpha  occ. eigenvalues --   -0.28643  -0.25729  -0.19533
 Alpha virt. eigenvalues --   -0.01407   0.00273   0.08095   0.09044   0.09368
 Alpha virt. eigenvalues --    0.10540   0.11192   0.11412   0.11974   0.13126
 Alpha virt. eigenvalues --    0.13550   0.13821   0.15009   0.15972   0.16229

 Mulliken charges:
               1
     1  C   -0.380293
     2  C   -0.169997
     3  C   -0.186346
     4  C   -0.065185
     5  O   -0.231719
     6  C    0.430138
     7  C   -0.338949
     8  C   -0.060421
     9  C   -0.126361
    10  C   -0.121658
    11  C    0.060634
    12  N   -0.398786
    13  C   -0.108036
    14  O   -0.238315
    15  H    0.115002
    16  H    0.118378
    17  H    0.117977
    18  H    0.099937
    19  H    0.099189
    20  H    0.110826
    21  H    0.111698
    22  H    0.112976
    23  H    0.110198
    24  H    0.088634
    25  H    0.088925
    26  H    0.088562
    27  H    0.093021
    28  H    0.111520
    29  H    0.217107
    30  H    0.127197
    31  H    0.124151
 Sum of Mulliken charges =  -0.00000

 Dipole moment (field-independent basis, Debye):
    X=              3.5264    Y=              1.0570    Z=              0.1017  Tot=              3.6828
 Quadrupole moment (field-independent basis, Debye-Ang):
   XX=            -96.1751   YY=            -84.3019   ZZ=            -82.6141
   XY=             -0.3908   XZ=              2.2322   YZ=              0.9033

  Exact polarizability: 200.620   3.227 121.169   7.517   4.039  93.589
 Approx polarizability: 244.705   0.778 195.360  14.805  10.159 150.039

                      1                      2                      3
                      A                      A                      A
 Frequencies --     22.0662                46.8439                54.2095
 Red. masses --      5.2951                 4.0885                 2.5253
 Frc consts  --      0.0015                 0.0053                 0.0044
 IR Inten    --      0.0170                 0.3734                 0.0633

                      4                      5                      6
                      A                      A                      A
 Frequencies --     70.4628                74.5979               113.4505
 Red. masses --      2.3317                 3.0804                 2.8758
 Frc consts  --      0.0068                 0.0101                 0.0218
 IR Inten    --      0.2995                 0.2042                 1.2414

                      7                      8                      9
                      A                      A                      A
 Frequencies --    156.6499               184.6036               198.0129
 Red. masses --      2.0568                 3.8405                 3.7246
 Frc consts  --      0.0297                 0.0771                 0.0860
 IR Inten    --      2.6717                 0.7227                 3.5599

                     10                     11                     12
                      A                      A                      A
 Frequencies --    224.5504               247.7188               252.5258
 Red. masses --      3.5940                 1.4358                 2.1964
 Frc consts  --      0.1068                 0.0519                 0.0825
 IR Inten    --      1.1852                 1.3007                 1.4774

                     13                     14                     15
                      A                      A                      A
 Frequencies --    279.4783               326.7323               333.4385
 Red. masses --      2.6756                 2.3801                 4.8980
 Frc consts  --      0.1231                 0.1497                 0.3208
 IR Inten    --      5.7760                 0.6252                 1.5849

                     16                     17                     18
                      A                      A                      A
 Frequencies --    406.7639               422.9699               493.4557
 Red. masses --      4.0777                 3.6898                 3.4234
 Frc consts  --      0.3975                 0.3889                 0.4911
 IR Inten    --      1.5715                 0.0994                 8.1193

                     19                     20                     21
                      A                      A                      A
 Frequencies --    534.1480               564.7075               652.5833
 Red. masses --      4.5528                 4.8083                 3.4658
 Frc consts  --      0.7653                 0.9034                 0.8696
 IR Inten    --      0.5916                10.1108                 0.0966

                     22                     23                     24
                      A                      A                      A
 Frequencies --    707.9127               729.9203               746.5547
 Red. masses --      4.2960                 1.2697                 1.0844
 Frc consts  --      1.2685                 0.3986                 0.3561
 IR Inten    --     11.5843                40.1969                 0.8917

                     25                     26                     27
                      A                      A                      A
 Frequencies --    771.2614               800.4801               810.9022
 Red. masses --      3.4974                 1.4425                 2.3299
 Frc consts  --      1.2257                 0.5446                 0.9027
 IR Inten    --     29.7500                 4.4158                15.3781

                     28                     29                     30
                      A                      A                      A
 Frequencies --    827.7357               884.9639               906.1810
 Red. masses --      1.1987                 5.4311                 2.5315
 Frc consts  --      0.4839                 2.5061                 1.2248
 IR Inten    --      4.8508                10.4009                 5.5236

                     31                     32                     33
                      A                      A                      A
 Frequencies --    917.0559               956.5637               991.7180
 Red. masses --      2.0159                 1.1411                 1.2867
 Frc consts  --      0.9989                 0.6152                 0.7456
 IR Inten    --     21.5638                 0.0461                 0.4168

                     34                     35                     36
                      A                      A                      A
 Frequencies --   1012.3919              1036.8103              1041.8065
 Red. masses --      4.6703                 2.0966                 3.7127
 Frc consts  --      2.8203                 1.3279                 2.3742
 IR Inten    --     72.5424                 0.5220                51.7108

                     37                     38                     39
                      A                      A                      A
 Frequencies --   1054.0097              1072.4686              1073.6205
 Red. masses --      2.8883                 2.4341                 2.4543
 Frc consts  --      1.8905                 1.6495                 1.6668
 IR Inten    --     11.6452                 4.6229                32.1727

                     40                     41                     42
                      A                      A                      A
 Frequencies --   1110.9168              1142.9525              1151.8412
 Red. masses --      3.0121                 2.5058                 1.1378
 Frc consts  --      2.1902                 1.9287                 0.8894
 IR Inten    --      5.8158                14.8365                43.3667

                     43                     44                     45
                      A                      A                      A
 Frequencies --   1160.5397              1193.0013              1207.4079
 Red. masses --      2.7017                 1.6508                 1.2887
 Frc consts  --      2.1439                 1.3843                 1.1069
 IR Inten    --     17.2200                 3.8464                14.3138

                     46                     47                     48
                      A                      A                      A
 Frequencies --   1250.3593              1253.1283              1283.0017
 Red. masses --      1.4831                 1.3500                 1.5829
 Frc consts  --      1.3661                 1.2490                 1.5352
 IR Inten    --    187.4869                70.1094               179.9096

                     49                     50                     51
                      A                      A                      A
 Frequencies --   1294.4931              1303.8997              1308.4993
 Red. masses --      1.2900                 1.6687                 1.3469
 Frc consts  --      1.2736                 1.6716                 1.3588
 IR Inten    --     16.9578                70.1150               193.2814

                     52                     53                     54
                      A                      A                      A
 Frequencies --   1315.1295              1326.0033              1344.6444
 Red. masses --      1.1270                 1.0845                 1.2260
 Frc consts  --      1.1485                 1.1235                 1.3060
 IR Inten    --      1.7565                 0.1844                 9.3978

                     55                     56                     57
                      A                      A                      A
 Frequencies --   1371.9717              1388.0525              1413.4366
 Red. masses --      1.3573                 1.4512                 1.2678
 Frc consts  --      1.5053                 1.6474                 1.4923
 IR Inten    --     45.5092                 0.6407                 4.0048

                     58                     59                     60
                      A                      A                      A
 Frequencies --   1419.0413              1422.7100              1443.5890
 Red. masses --      1.2380                 1.3742                 1.5036
 Frc consts  --      1.4688                 1.6389                 1.8462
 IR Inten    --      5.5265                47.0486                28.2039

                     61                     62                     63
                      A                      A                      A
 Frequencies --   1449.4417              1488.1436              1495.9071
 Red. masses --      1.6204                 1.0634                 1.0771
 Frc consts  --      2.0057                 1.3875                 1.4201
 IR Inten    --     41.4760                 0.5098                 1.2779

                     64                     65                     66
                      A                      A                      A
 Frequencies --   1500.0859              1500.1357              1509.8248
 Red. masses --      1.0420                 1.1625                 1.0853
 Frc consts  --      1.3815                 1.5414                 1.4576
 IR Inten    --      5.3232                38.0940                 0.7075

                     67                     68                     69
                      A                      A                      A
 Frequencies --   1524.1840              1653.5416              1695.4670
 Red. masses --      1.1017                 8.5372                 6.0443
 Frc consts  --      1.5080                13.7530                10.2370
 IR Inten    --     13.3262               437.6176                40.7156

                     70                     71                     72
                      A                      A                      A
 Frequencies --   1727.1461              2993.9627              2999.1577
 Red. masses --      8.4287                 1.0819                 1.0559
 Frc consts  --     14.8138                 5.7139                 5.5959
 IR Inten    --     79.2452                20.8814                15.9605

                     73                     74                     75
                      A                      A                      A
 Frequencies --   3014.4747              3031.2200              3035.9898
 Red. masses --      1.0588                 1.0403                 1.0561
 Frc consts  --      5.6686                 5.6316                 5.7354
 IR Inten    --     19.7528                17.4581                44.6286

                     76                     77                     78
                      A                      A                      A
 Frequencies --   3039.3095              3042.1273              3045.6100
 Red. masses --      1.1001                 1.1032                 1.0613
 Frc consts  --      5.9873                 6.0156                 5.8001
 IR Inten    --     18.3261                 0.3404                19.4336

                     79                     80                     81
                      A                      A                      A
 Frequencies --   3061.6779              3081.0697              3100.3207
 Red. masses --      1.0855                 1.1056                 1.1024
 Frc consts  --      5.9952                 6.1840                 6.2430
 IR Inten    --     38.2130                29.1091                58.5003

                     82                     83                     84
                      A                      A                      A
 Frequencies --   3105.8006              3111.5906              3136.3662
 Red. masses --      1.1012                 1.1059                 1.0833
 Frc consts  --      6.2584                 6.3086                 6.2785
 IR Inten    --     34.2658                18.2320                 7.8600

                     85                     86                     87
                      A                      A                      A
 Frequencies --   3162.5778              3215.2750              3398.1622
 Red. masses --      1.0922                 1.0875                 1.0734
 Frc consts  --      6.4361                 6.6237                 7.3031
 IR Inten    --     22.1836                14.2474                 4.1752

 - Thermochemistry -
 -------------------
 Temperature   298.150 Kelvin.  Pressure   1.00000 Atm.
 Atom     1 has atomic number  6 and mass  12.00000

 Molecular mass:   195.12593 amu.
 Principal axes and moments of inertia in atomic units:
                           1         2         3
     Eigenvalues --   700.155538216.658958756.88111
           X            1.00000  -0.00180  -0.00066
           Y            0.00180   0.99998   0.00578
           Z            0.00065  -0.00578   0.99998
 This molecule is an asymmetric top.
 Rotational symmetry number  1.
 Warning -- assumption of classical behavior for rotation
           may cause significant error
 Rotational temperatures (Kelvin)      0.12371     0.01054     0.00989
 Rotational constants (GHZ):           2.57763     0.21964     0.20609
 Zero-point vibrational energy     701164.3 (Joules/Mol)
                                  167.58229 (Kcal/Mol)
 Warning -- explicit consideration of  20 degrees of freedom as
           vibrations may cause significant error
 Vibrational temperatures:     31.75    67.40    78.00   101.38   107.33
          (Kelvin)            163.23   225.38   265.60   284.90   323.08
                              356.41   363.33   402.11   470.09   479.74
                              585.24   608.56   709.97   768.52   812.49
                              938.92  1018.53  1050.19  1074.13  1109.67
                             1151.71  1166.71  1190.93  1273.27  1303.79
                             1319.44  1376.28  1426.86  1456.61  1491.74
                             1498.93  1516.48  1543.04  1544.70  1598.36
                             1644.45  1657.24  1669.76  1716.46  1737.19
                             1798.99  1802.97  1845.95  1862.49  1876.02
                             1882.64  1892.18  1907.82  1934.64  1973.96
                             1997.10  2033.62  2041.68  2046.96  2077.00
                             2085.42  2141.11  2152.28  2158.29  2158.36
                             2172.30  2192.96  2379.08  2439.40  2484.98
                             4307.64  4315.12  4337.16  4361.25  4368.11
                             4372.89  4376.94  4381.95  4405.07  4432.97
                             4460.67  4468.55  4476.88  4512.53  4550.24
                             4626.06  4889.20

 Zero-point correction=                           0.267059 (Hartree/Particle)
 Thermal correction to Energy=                    0.281914
 Thermal correction to Enthalpy=                  0.282858
 Thermal correction to Gibbs Free Energy=         0.223316
 Sum of electronic and zero-point Energies=           -634.322593
 Sum of electronic and thermal Energies=              -634.307739
 Sum of electronic and thermal Enthalpies=            -634.306795
 Sum of electronic and thermal Free Energies=         -634.366337

                     E (Thermal)             CV                S
                      KCal/Mol        Cal/Mol-Kelvin    Cal/Mol-Kelvin
 Total                  176.904             54.187            125.317
 Electronic               0.000              0.000              0.000
 Translational            0.889              2.981             41.711
 Rotational               0.889              2.981             32.288
 Vibrational            175.126             48.225             51.318
 Vibration     1          0.593              1.985              6.439
 Vibration     2          0.595              1.979              4.946
 Vibration     3          0.596              1.976              4.658
 Vibration     4          0.598              1.968              4.140
 Vibration     5          0.599              1.966              4.028
 Vibration     6          0.607              1.938              3.209
 Vibration     7          0.620              1.895              2.590
 Vibration     8          0.631              1.861              2.281
 Vibration     9          0.637              1.843              2.151
 Vibration    10          0.649              1.804              1.922
 Vibration    11          0.661              1.767              1.747
 Vibration    12          0.664              1.759              1.713
 Vibration    13          0.680              1.712              1.537
 Vibration    14          0.710              1.622              1.276
 Vibration    15          0.715              1.609              1.243
 Vibration    16          0.772              1.456              0.938
 Vibration    17          0.785              1.420              0.882
 Vibration    18          0.849              1.265              0.675
 Vibration    19          0.889              1.174              0.578
 Vibration    20          0.921              1.108              0.515

 Optimization completed.
    -- Stationary point found.
 Normal termination of Gaussian 16 at Sat May 27 19:38:13 2023.
