 Gaussian 16, Revision A.03,
 Gaussian 16:  ES64L-G16RevA.03 25-Dec-2016

 -----------------------------
 # opt freq b3lyp/6-31g(2df,p)
 -----------------------------

 -------------------
 Title Card Required
 -------------------
 Symbolic Z-matrix:
 Charge =  0 Multiplicity = 1

 SCF Done:  E(RB3LYP) =  -394.295733224     A.U. after   12 cycles
 SCF Done:  E(RB3LYP) =  -394.330716648     A.U. after   10 cycles
 SCF Done:  E(RB3LYP) =  -394.351968392     A.U. after   12 cycles
 SCF Done:  E(RB3LYP) =  -394.358615138     A.U. after    9 cycles
 SCF Done:  E(RB3LYP) =  -394.362528822     A.U. after   10 cycles
 SCF Done:  E(RB3LYP) =  -394.363076591     A.U. after   10 cycles
 SCF Done:  E(RB3LYP) =  -394.364664005     A.U. after   10 cycles
 SCF Done:  E(RB3LYP) =  -394.365407363     A.U. after    9 cycles
 SCF Done:  E(RB3LYP) =  -394.365960707     A.U. after    9 cycles
 SCF Done:  E(RB3LYP) =  -394.366019507     A.U. after    9 cycles
 SCF Done:  E(RB3LYP) =  -394.366033045     A.U. after    8 cycles
 SCF Done:  E(RB3LYP) =  -394.366035219     A.U. after    7 cycles
 SCF Done:  E(RB3LYP) =  -394.366035690     A.U. after    6 cycles
 SCF Done:  E(RB3LYP) =  -394.366035819     A.U. after    5 cycles
 SCF Done:  E(RB3LYP) =  -394.366035842     A.U. after    5 cycles
 SCF Done:  E(RB3LYP) =  -394.366035840     A.U. after    5 cycles
 Optimization completed.
    -- Stationary point found.
 Normal termination of Gaussian 16 at Sun May 28 11:41:36 2023.

 ----------------------------------------------------------------------
 #N Geom=AllCheck Guess=TCheck SCRF=Check GenChk RB3LYP/6-31G(2df,p) Fr
 eq
 ----------------------------------------------------------------------

 Structure from the checkpoint file:  "CCCCCCqCrCCC.chk"
 -------------------
 Title Card Required
 -------------------
 Charge =  0 Multiplicity = 1

                         Standard orientation:
 ---------------------------------------------------------------------
 Center     Atomic      Atomic             Coordinates (Angstroms)
 Number     Number       Type             X           Y           Z
 ---------------------------------------------------------------------
      1          6           0        4.987635   -0.621686   -0.350936
      2          6           0        3.865390    0.267805    0.190936
      3          6           0        2.464306   -0.250346   -0.151448
      4          6           0        1.335072    0.633503    0.388128
      5          6           0       -0.067082    0.117376    0.040630
      6          6           0       -1.178686    1.005603    0.617463
      7          6           0       -2.641653    0.709152    0.213005
      8          6           0       -2.897000    0.944179   -1.283445
      9          6           0       -3.188684   -0.653930    0.707460
     10          6           0       -2.889535   -1.893632   -0.147365
     11          1           0        5.974514   -0.225950   -0.090776
     12          1           0        4.938081   -0.700472   -1.442822
     13          1           0        4.918860   -1.637221    0.055068
     14          1           0        3.980925    1.285674   -0.204860
     15          1           0        3.961581    0.355896    1.281382
     16          1           0        2.349091   -1.269815    0.243218
     17          1           0        2.367649   -0.338466   -1.242919
     18          1           0        1.452991    1.653633   -0.003706
     19          1           0        1.430649    0.718412    1.479918
     20          1           0       -0.168601   -0.906032    0.421133
     21          1           0       -0.161252    0.049942   -1.050855
     22          1           0       -1.112887    0.975206    1.713871
     23          1           0       -0.964617    2.046996    0.337258
     24          1           0       -3.231417    1.466375    0.748939
     25          1           0       -3.956896    0.811242   -1.527147
     26          1           0       -2.327861    0.256718   -1.916448
     27          1           0       -2.616253    1.963602   -1.569288
     28          1           0       -4.279762   -0.564428    0.790375
     29          1           0       -2.827373   -0.822858    1.730350
     30          1           0       -3.320177   -1.804522   -1.149536
     31          1           0       -3.327048   -2.784402    0.315439
     32          1           0       -1.818773   -2.077669   -0.265163
 ---------------------------------------------------------------------

 SCF Done:  E(RB3LYP) =  -394.366035840     A.U. after    1 cycles

 The electronic state is 1-A.
 Alpha  occ. eigenvalues --  -10.17953 -10.17415 -10.17321 -10.17180 -10.17159
 Alpha  occ. eigenvalues --  -10.17102 -10.17059 -10.16852 -10.16665 -10.16635
 Alpha  occ. eigenvalues --   -0.81087  -0.79130  -0.75425  -0.72120  -0.69193
 Alpha  occ. eigenvalues --   -0.64904  -0.61891  -0.58145  -0.57019  -0.52953
 Alpha  occ. eigenvalues --   -0.47417  -0.45607  -0.44622  -0.44414  -0.41990
 Alpha  occ. eigenvalues --   -0.41227  -0.39804  -0.38681  -0.38132  -0.37580
 Alpha  occ. eigenvalues --   -0.36659  -0.35605  -0.34632  -0.33936  -0.32701
 Alpha  occ. eigenvalues --   -0.32278  -0.32184  -0.31557  -0.30715  -0.29886
 Alpha  occ. eigenvalues --   -0.28780
 Alpha virt. eigenvalues --    0.07745   0.09408   0.10978   0.11177   0.11705
 Alpha virt. eigenvalues --    0.13788   0.14477   0.14747   0.15389   0.15618
 Alpha virt. eigenvalues --    0.16122   0.16888   0.17570   0.18017   0.18998

 Mulliken charges:
               1
     1  C   -0.378939
     2  C   -0.162110
     3  C   -0.161906
     4  C   -0.171626
     5  C   -0.180795
     6  C   -0.190783
     7  C    0.030273
     8  C   -0.392519
     9  C   -0.178170
    10  C   -0.377531
    11  H    0.109301
    12  H    0.112234
    13  H    0.112204
    14  H    0.092692
    15  H    0.092649
    16  H    0.089139
    17  H    0.089486
    18  H    0.090027
    19  H    0.089830
    20  H    0.097951
    21  H    0.092459
    22  H    0.086418
    23  H    0.085657
    24  H    0.068168
    25  H    0.107737
    26  H    0.118783
    27  H    0.106719
    28  H    0.091016
    29  H    0.088637
    30  H    0.115481
    31  H    0.108177
    32  H    0.119340
 Sum of Mulliken charges =  -0.00000

 Dipole moment (field-independent basis, Debye):
    X=             -0.0609    Y=              0.0867    Z=              0.0849  Tot=              0.1358
 Quadrupole moment (field-independent basis, Debye-Ang):
   XX=            -68.4300   YY=            -68.1719   ZZ=            -67.6990
   XY=              0.0809   XZ=             -0.0576   YZ=             -0.5401

  Exact polarizability: 132.203   0.202 104.251   0.274  -0.108  98.511
 Approx polarizability: 151.517   0.840 149.898   0.597  -0.903 149.243

                      1                      2                      3
                      A                      A                      A
 Frequencies --     37.3851                47.8681                67.6295
 Red. masses --      2.0138                 2.0582                 2.9480
 Frc consts  --      0.0017                 0.0028                 0.0079
 IR Inten    --      0.0037                 0.0024                 0.0087

                      4                      5                      6
                      A                      A                      A
 Frequencies --     81.5634               116.2659               132.6003
 Red. masses --      1.9962                 1.9577                 2.0397
 Frc consts  --      0.0078                 0.0156                 0.0211
 IR Inten    --      0.0156                 0.0305                 0.0059

                      7                      8                      9
                      A                      A                      A
 Frequencies --    152.7184               183.5810               215.6531
 Red. masses --      2.1931                 2.4511                 1.2679
 Frc consts  --      0.0301                 0.0487                 0.0347
 IR Inten    --      0.0026                 0.0333                 0.0884

                     10                     11                     12
                      A                      A                      A
 Frequencies --    247.5711               250.7049               264.7450
 Red. masses --      1.1189                 2.3869                 1.4485
 Frc consts  --      0.0404                 0.0884                 0.0598
 IR Inten    --      0.0012                 0.0517                 0.2335

                     13                     14                     15
                      A                      A                      A
 Frequencies --    281.1514               365.3734               372.5854
 Red. masses --      1.8182                 1.9911                 2.7079
 Frc consts  --      0.0847                 0.1566                 0.2215
 IR Inten    --      0.0710                 0.1585                 0.0396

                     16                     17                     18
                      A                      A                      A
 Frequencies --    413.7833               467.4430               612.6413
 Red. masses --      2.5914                 2.6728                 2.2737
 Frc consts  --      0.2614                 0.3441                 0.5028
 IR Inten    --      0.2370                 0.2949                 1.7403

                     19                     20                     21
                      A                      A                      A
 Frequencies --    732.2944               741.8375               743.3779
 Red. masses --      1.0652                 2.2187                 1.2207
 Frc consts  --      0.3365                 0.7194                 0.3974
 IR Inten    --      3.8372                 0.5029                 0.1244

                     22                     23                     24
                      A                      A                      A
 Frequencies --    780.1234               796.3917               880.8493
 Red. masses --      1.2125                 1.2424                 1.4026
 Frc consts  --      0.4348                 0.4643                 0.6412
 IR Inten    --      1.0131                 1.9242                 0.1648

                     25                     26                     27
                      A                      A                      A
 Frequencies --    894.7515               914.2665               966.0071
 Red. masses --      1.8444                 2.0234                 1.7621
 Frc consts  --      0.8700                 0.9965                 0.9688
 IR Inten    --      1.1124                 0.4600                 0.7383

                     28                     29                     30
                      A                      A                      A
 Frequencies --    978.1164              1000.5121              1009.4485
 Red. masses --      1.3856                 1.8291                 1.9739
 Frc consts  --      0.7811                 1.0788                 1.1851
 IR Inten    --      0.7508                 0.2428                 0.8341

                     31                     32                     33
                      A                      A                      A
 Frequencies --   1025.3816              1041.4866              1059.8888
 Red. masses --      1.8544                 1.8393                 2.4051
 Frc consts  --      1.1487                 1.1755                 1.5919
 IR Inten    --      1.8501                 0.8787                 0.6011

                     34                     35                     36
                      A                      A                      A
 Frequencies --   1069.7815              1074.2178              1106.8188
 Red. masses --      2.2262                 1.4968                 1.7358
 Frc consts  --      1.5011                 1.0176                 1.2529
 IR Inten    --      0.0700                 0.0628                 3.5051

                     37                     38                     39
                      A                      A                      A
 Frequencies --   1146.0190              1187.5829              1197.0462
 Red. masses --      2.5241                 1.7717                 1.9665
 Frc consts  --      1.9532                 1.4722                 1.6602
 IR Inten    --      0.8632                 4.1037                 0.5126

                     40                     41                     42
                      A                      A                      A
 Frequencies --   1232.1044              1250.0427              1287.7046
 Red. masses --      1.5225                 1.3350                 1.2746
 Frc consts  --      1.3617                 1.2291                 1.2452
 IR Inten    --      0.2845                 2.2785                 0.2667

                     43                     44                     45
                      A                      A                      A
 Frequencies --   1300.4294              1315.6302              1324.7533
 Red. masses --      1.2186                 1.2787                 1.1746
 Frc consts  --      1.2142                 1.3041                 1.2145
 IR Inten    --      1.6837                 1.6728                 0.8630

                     46                     47                     48
                      A                      A                      A
 Frequencies --   1329.6757              1336.1792              1351.1695
 Red. masses --      1.0752                 1.1362                 1.4521
 Frc consts  --      1.1200                 1.1952                 1.5619
 IR Inten    --      0.0386                 0.4215                 0.4368

                     49                     50                     51
                      A                      A                      A
 Frequencies --   1373.8864              1380.5350              1385.3296
 Red. masses --      1.4212                 1.3903                 1.2595
 Frc consts  --      1.5806                 1.5612                 1.4242
 IR Inten    --      2.5320                 3.5046                 2.1586

                     52                     53                     54
                      A                      A                      A
 Frequencies --   1399.3756              1405.7558              1412.8657
 Red. masses --      1.6142                 1.3617                 1.2479
 Frc consts  --      1.8624                 1.5855                 1.4676
 IR Inten    --      2.0981                 4.6167                 1.5266

                     55                     56                     57
                      A                      A                      A
 Frequencies --   1416.8172              1418.1501              1476.8997
 Red. masses --      1.3520                 1.2488                 1.0822
 Frc consts  --      1.5990                 1.4797                 1.3908
 IR Inten    --      6.9428                 7.1547                 2.9001

                     58                     59                     60
                      A                      A                      A
 Frequencies --   1482.2566              1484.2099              1485.4369
 Red. masses --      1.0720                 1.0689                 1.0642
 Frc consts  --      1.3877                 1.3873                 1.3835
 IR Inten    --      0.0118                 0.4593                 0.2689

                     61                     62                     63
                      A                      A                      A
 Frequencies --   1492.8221              1498.5203              1499.8366
 Red. masses --      1.0650                 1.0570                 1.0403
 Frc consts  --      1.3983                 1.3984                 1.3788
 IR Inten    --      0.3172                 2.3412                 4.9130

                     64                     65                     66
                      A                      A                      A
 Frequencies --   1501.7892              1506.2662              1507.7504
 Red. masses --      1.0553                 1.0618                 1.0696
 Frc consts  --      1.4024                 1.4194                 1.4326
 IR Inten    --      4.2715                 2.7718                 0.9905

                     67                     68                     69
                      A                      A                      A
 Frequencies --   1514.0123              1515.9827              2986.0821
 Red. masses --      1.0734                 1.0782                 1.0745
 Frc consts  --      1.4496                 1.4600                 5.6449
 IR Inten    --      1.3740                 2.5301                 6.5142

                     70                     71                     72
                      A                      A                      A
 Frequencies --   2997.2868              3000.9873              3002.9993
 Red. masses --      1.0590                 1.0611                 1.0594
 Frc consts  --      5.6053                 5.6302                 5.6291
 IR Inten    --      3.1236                 1.8905                28.3216

                     73                     74                     75
                      A                      A                      A
 Frequencies --   3014.3350              3015.7090              3019.3549
 Red. masses --      1.0597                 1.0638                 1.0972
 Frc consts  --      5.6730                 5.7004                 5.8935
 IR Inten    --     34.7628                53.5957                 3.6185

                     76                     77                     78
                      A                      A                      A
 Frequencies --   3023.1933              3027.4394              3027.8178
 Red. masses --      1.0655                 1.0594                 1.0668
 Frc consts  --      5.7377                 5.7209                 5.7623
 IR Inten    --     59.3023                21.3379                55.5518

                     79                     80                     81
                      A                      A                      A
 Frequencies --   3030.6278              3033.7798              3041.1567
 Red. masses --      1.0390                 1.1018                 1.0619
 Frc consts  --      5.6223                 5.9748                 5.7865
 IR Inten    --     14.5647                 0.9863                15.6970

                     82                     83                     84
                      A                      A                      A
 Frequencies --   3043.6766              3052.8482              3071.0173
 Red. masses --      1.0760                 1.1042                 1.1043
 Frc consts  --      5.8731                 6.0636                 6.1363
 IR Inten    --     41.7211                15.9402                96.3825

                     85                     86                     87
                      A                      A                      A
 Frequencies --   3091.5949              3093.6667              3098.6837
 Red. masses --      1.1012                 1.1020                 1.1005
 Frc consts  --      6.2012                 6.2142                 6.2256
 IR Inten    --     37.9822                62.9508                35.9982

                     88                     89                     90
                      A                      A                      A
 Frequencies --   3098.9785              3105.3999              3121.8701
 Red. masses --      1.1009                 1.0992                 1.0994
 Frc consts  --      6.2295                 6.2452                 6.3127
 IR Inten    --     40.4615                36.3543                38.1686

 - Thermochemistry -
 -------------------
 Temperature   298.150 Kelvin.  Pressure   1.00000 Atm.
 Atom     1 has atomic number  6 and mass  12.00000

 Molecular mass:   142.17215 amu.
 Principal axes and moments of inertia in atomic units:
                           1         2         3
     Eigenvalues --   674.742704578.081334814.29725
           X            1.00000   0.00042   0.00139
           Y           -0.00043   0.99998   0.00613
           Z           -0.00139  -0.00613   0.99998
 This molecule is an asymmetric top.
 Rotational symmetry number  1.
 Warning -- assumption of classical behavior for rotation
           may cause significant error
 Rotational temperatures (Kelvin)      0.12837     0.01892     0.01799
 Rotational constants (GHZ):           2.67471     0.39421     0.37487
 Zero-point vibrational energy     792778.1 (Joules/Mol)
                                  189.47852 (Kcal/Mol)
 Warning -- explicit consideration of  18 degrees of freedom as
           vibrations may cause significant error
 Vibrational temperatures:     53.79    68.87    97.30   117.35   167.28
          (Kelvin)            190.78   219.73   264.13   310.28   356.20
                              360.71   380.91   404.51   525.69   536.07
                              595.34   672.55   881.45  1053.61  1067.34
                             1069.55  1122.42  1145.83  1267.35  1287.35
                             1315.43  1389.87  1407.29  1439.51  1452.37
                             1475.30  1498.47  1524.94  1539.18  1545.56
                             1592.47  1648.87  1708.67  1722.28  1772.72
                             1798.53  1852.72  1871.03  1892.90  1906.02
                             1913.11  1922.46  1944.03  1976.72  1986.28
                             1993.18  2013.39  2022.57  2032.80  2038.48
                             2040.40  2124.93  2132.64  2135.45  2137.21
                             2147.84  2156.04  2157.93  2160.74  2167.18
                             2169.32  2178.33  2181.16  4296.31  4312.43
                             4317.75  4320.65  4336.96  4338.93  4344.18
                             4349.70  4355.81  4356.35  4360.40  4364.93
                             4375.55  4379.17  4392.37  4418.51  4448.12
                             4451.10  4458.31  4458.74  4467.98  4491.67

 Zero-point correction=                           0.301953 (Hartree/Particle)
 Thermal correction to Energy=                    0.315688
 Thermal correction to Enthalpy=                  0.316632
 Thermal correction to Gibbs Free Energy=         0.260926
 Sum of electronic and zero-point Energies=           -394.064083
 Sum of electronic and thermal Energies=              -394.050348
 Sum of electronic and thermal Enthalpies=            -394.049404
 Sum of electronic and thermal Free Energies=         -394.105110

                     E (Thermal)             CV                S
                      KCal/Mol        Cal/Mol-Kelvin    Cal/Mol-Kelvin
 Total                  198.097             49.427            117.242
 Electronic               0.000              0.000              0.000
 Translational            0.889              2.981             40.767
 Rotational               0.889              2.981             31.076
 Vibrational            196.319             43.465             45.400
 Vibration     1          0.594              1.982              5.393
 Vibration     2          0.595              1.978              4.904
 Vibration     3          0.598              1.970              4.221
 Vibration     4          0.600              1.962              3.853
 Vibration     5          0.608              1.936              3.162
 Vibration     6          0.613              1.921              2.908
 Vibration     7          0.619              1.900              2.638
 Vibration     8          0.631              1.862              2.292
 Vibration     9          0.645              1.817              1.995
 Vibration    10          0.661              1.767              1.748
 Vibration    11          0.663              1.762              1.726
 Vibration    12          0.671              1.738              1.630
 Vibration    13          0.681              1.709              1.527
 Vibration    14          0.739              1.544              1.099
 Vibration    15          0.744              1.528              1.069
 Vibration    16          0.777              1.440              0.913
 Vibration    17          0.825              1.322              0.745
 Vibration    18          0.972              1.005              0.428

 Optimization completed.
    -- Stationary point found.
 Normal termination of Gaussian 16 at Sun May 28 12:49:14 2023.
