 Gaussian 16, Revision A.03,
 Gaussian 16:  ES64L-G16RevA.03 25-Dec-2016

 -----------------------------
 # opt freq b3lyp/6-31g(2df,p)
 -----------------------------

 -------------------
 Title Card Required
 -------------------
 Symbolic Z-matrix:
 Charge =  0 Multiplicity = 1

 SCF Done:  E(RB3LYP) =  -546.999676413     A.U. after   12 cycles
 SCF Done:  E(RB3LYP) =  -547.004063561     A.U. after   10 cycles
 SCF Done:  E(RB3LYP) =  -547.004539203     A.U. after    9 cycles
 SCF Done:  E(RB3LYP) =  -547.004700326     A.U. after    9 cycles
 SCF Done:  E(RB3LYP) =  -547.004767376     A.U. after    9 cycles
 SCF Done:  E(RB3LYP) =  -547.004757978     A.U. after    8 cycles
 SCF Done:  E(RB3LYP) =  -547.004877829     A.U. after    8 cycles
 SCF Done:  E(RB3LYP) =  -547.005212526     A.U. after   11 cycles
 SCF Done:  E(RB3LYP) =  -547.005282715     A.U. after   10 cycles
 SCF Done:  E(RB3LYP) =  -547.005421953     A.U. after   10 cycles
 SCF Done:  E(RB3LYP) =  -547.005876664     A.U. after   10 cycles
 SCF Done:  E(RB3LYP) =  -547.006001548     A.U. after   10 cycles
 SCF Done:  E(RB3LYP) =  -547.006001228     A.U. after   10 cycles
 SCF Done:  E(RB3LYP) =  -547.006018794     A.U. after    9 cycles
 SCF Done:  E(RB3LYP) =  -547.006022680     A.U. after    8 cycles
 SCF Done:  E(RB3LYP) =  -547.006008718     A.U. after    9 cycles
 SCF Done:  E(RB3LYP) =  -547.006022910     A.U. after    9 cycles
 SCF Done:  E(RB3LYP) =  -547.006022718     A.U. after    7 cycles
 SCF Done:  E(RB3LYP) =  -547.006022862     A.U. after    6 cycles
 Optimization completed on the basis of negligible forces.
    -- Stationary point found.
 Normal termination of Gaussian 16 at Tue May 23 09:30:12 2023.

 ----------------------------------------------------------------------
 #N Geom=AllCheck Guess=TCheck SCRF=Check GenChk RB3LYP/6-31G(2df,p) Fr
 eq
 ----------------------------------------------------------------------

 Structure from the checkpoint file:  "CCCCOCC1CCCqCCrC1.chk"
 -------------------
 Title Card Required
 -------------------
 Charge =  0 Multiplicity = 1

                         Standard orientation:
 ---------------------------------------------------------------------
 Center     Atomic      Atomic             Coordinates (Angstroms)
 Number     Number       Type             X           Y           Z
 ---------------------------------------------------------------------
      1          6           0        5.130353    1.533556    0.616340
      2          6           0        4.430976    0.354042   -0.064722
      3          6           0        2.917020    0.343008    0.168887
      4          6           0        2.221755   -0.829919   -0.508530
      5          8           0        0.838134   -0.757745   -0.240348
      6          6           0        0.090416   -1.806692   -0.822287
      7          6           0       -1.382408   -1.629741   -0.465537
      8          6           0       -1.644725   -1.709387    1.065225
      9          6           0       -2.700026   -0.630864    1.347946
     10          6           0       -2.328239    0.504473    0.378123
     11          6           0       -3.406464    1.578841    0.218935
     12          6           0       -2.998085    2.744401   -0.688414
     13          6           0       -1.964241   -0.255451   -0.916541
     14          1           0        6.209341    1.517565    0.433856
     15          1           0        4.974950    1.512655    1.700639
     16          1           0        4.743487    2.489519    0.246539
     17          1           0        4.863586   -0.587127    0.299849
     18          1           0        4.633786    0.382525   -1.143567
     19          1           0        2.472237    1.274690   -0.202221
     20          1           0        2.702619    0.302916    1.244078
     21          1           0        2.633069   -1.785860   -0.139173
     22          1           0        2.401436   -0.805979   -1.597873
     23          1           0        0.457934   -2.782181   -0.457743
     24          1           0        0.221939   -1.800030   -1.918272
     25          1           0       -1.920070   -2.437533   -0.974696
     26          1           0       -0.720265   -1.464874    1.598132
     27          1           0       -1.953935   -2.709392    1.383599
     28          1           0       -2.717864   -0.310597    2.394788
     29          1           0       -3.705147   -1.004330    1.106219
     30          1           0       -1.411759    0.979463    0.756084
     31          1           0       -3.669193    1.970248    1.210693
     32          1           0       -4.320237    1.110825   -0.174089
     33          1           0       -2.095577    3.239267   -0.312055
     34          1           0       -3.789885    3.498012   -0.747994
     35          1           0       -2.786853    2.404925   -1.707714
     36          1           0       -1.256282    0.299345   -1.537090
     37          1           0       -2.870372   -0.409689   -1.515762
 ---------------------------------------------------------------------

 SCF Done:  E(RB3LYP) =  -547.006022862     A.U. after    1 cycles

 The electronic state is 1-A.
 Alpha  occ. eigenvalues --  -19.13406 -10.22186 -10.21874 -10.18080 -10.17675
 Alpha  occ. eigenvalues --  -10.17537 -10.17244 -10.16912 -10.16874 -10.16513
 Alpha  occ. eigenvalues --  -10.16481 -10.16476 -10.16429  -1.02766  -0.83085
 Alpha  occ. eigenvalues --   -0.79350  -0.76470  -0.73267  -0.70328  -0.68718
 Alpha  occ. eigenvalues --   -0.64552  -0.61465  -0.59433  -0.57883  -0.55175
 Alpha  occ. eigenvalues --   -0.53335  -0.48909  -0.48508  -0.47029  -0.45055
 Alpha  occ. eigenvalues --   -0.44540  -0.43924  -0.41955  -0.40935  -0.40043
 Alpha  occ. eigenvalues --   -0.39460  -0.39126  -0.38636  -0.36076  -0.35710
 Alpha  occ. eigenvalues --   -0.34579  -0.33570  -0.33310  -0.32590  -0.32484
 Alpha  occ. eigenvalues --   -0.31504  -0.30771  -0.30726  -0.30071  -0.29909
 Alpha  occ. eigenvalues --   -0.29536  -0.24923
 Alpha virt. eigenvalues --    0.08506   0.09126   0.09727   0.10502   0.12141
 Alpha virt. eigenvalues --    0.12639   0.13090   0.14274   0.14378   0.14703
 Alpha virt. eigenvalues --    0.15144   0.15981   0.16506   0.17232   0.17870

 Mulliken charges:
               1
     1  C   -0.379073
     2  C   -0.164802
     3  C   -0.179743
     4  C   -0.043996
     5  O   -0.246253
     6  C   -0.081100
     7  C    0.000821
     8  C   -0.225456
     9  C   -0.221143
    10  C    0.071829
    11  C   -0.190837
    12  C   -0.382561
    13  C   -0.219066
    14  H    0.111113
    15  H    0.115188
    16  H    0.115223
    17  H    0.095933
    18  H    0.095936
    19  H    0.102547
    20  H    0.102307
    21  H    0.081649
    22  H    0.081448
    23  H    0.080191
    24  H    0.080501
    25  H    0.065057
    26  H    0.108781
    27  H    0.084539
    28  H    0.087049
    29  H    0.085466
    30  H    0.075991
    31  H    0.088063
    32  H    0.086598
    33  H    0.112177
    34  H    0.106887
    35  H    0.116265
    36  H    0.098678
    37  H    0.083795
 Sum of Mulliken charges =  -0.00000

 Dipole moment (field-independent basis, Debye):
    X=              0.7226    Y=             -0.5696    Z=             -0.4338  Tot=              1.0172
 Quadrupole moment (field-independent basis, Debye-Ang):
   XX=            -81.8614   YY=            -83.4105   ZZ=            -83.8348
   XY=              0.2709   XZ=             -0.0431   YZ=              0.9868

  Exact polarizability: 149.846  -0.152 133.608  -1.214  -0.198 119.107
 Approx polarizability: 184.213   0.576 180.992   0.045   0.741 179.212

                      1                      2                      3
                      A                      A                      A
 Frequencies --     17.5428                34.8380                45.2296
 Red. masses --      3.4586                 2.6408                 1.6608
 Frc consts  --      0.0006                 0.0019                 0.0020
 IR Inten    --      0.0225                 0.0163                 0.3164

                      4                      5                      6
                      A                      A                      A
 Frequencies --     79.2158                86.0430               112.1068
 Red. masses --      3.4550                 2.4820                 2.3534
 Frc consts  --      0.0128                 0.0108                 0.0174
 IR Inten    --      0.0587                 0.0874                 0.0627

                      7                      8                      9
                      A                      A                      A
 Frequencies --    126.7175               147.0013               169.9181
 Red. masses --      1.8931                 2.8167                 2.6834
 Frc consts  --      0.0179                 0.0359                 0.0456
 IR Inten    --      0.2748                 1.2881                 1.1032

                     10                     11                     12
                      A                      A                      A
 Frequencies --    186.1561               204.3928               249.1707
 Red. masses --      2.4562                 1.6924                 1.1229
 Frc consts  --      0.0502                 0.0417                 0.0411
 IR Inten    --      1.6916                 0.1486                 0.0567

                     13                     14                     15
                      A                      A                      A
 Frequencies --    256.9107               276.8192               330.7587
 Red. masses --      1.3742                 3.5106                 2.1865
 Frc consts  --      0.0534                 0.1585                 0.1409
 IR Inten    --      0.0043                 0.1325                 0.1685

                     16                     17                     18
                      A                      A                      A
 Frequencies --    374.5369               400.5584               421.2803
 Red. masses --      3.5103                 2.9857                 1.8169
 Frc consts  --      0.2901                 0.2822                 0.1900
 IR Inten    --      2.3708                 0.5805                 0.7301

                     19                     20                     21
                      A                      A                      A
 Frequencies --    456.4786               527.5610               597.0776
 Red. masses --      2.7701                 2.4295                 2.8500
 Frc consts  --      0.3401                 0.3984                 0.5986
 IR Inten    --      1.4253                 0.0774                 2.1080

                     22                     23                     24
                      A                      A                      A
 Frequencies --    635.5780               744.2690               773.9485
 Red. masses --      2.9120                 1.0723                 1.3181
 Frc consts  --      0.6931                 0.3500                 0.4652
 IR Inten    --      0.6930                 2.5304                 1.6732

                     25                     26                     27
                      A                      A                      A
 Frequencies --    794.6269               814.0459               837.4669
 Red. masses --      1.8026                 1.1325                 2.3176
 Frc consts  --      0.6706                 0.4422                 0.9577
 IR Inten    --      0.2335                 0.4098                 0.1392

                     28                     29                     30
                      A                      A                      A
 Frequencies --    868.1905               904.5506               917.9029
 Red. masses --      2.2603                 1.9253                 1.9626
 Frc consts  --      1.0038                 0.9281                 0.9743
 IR Inten    --      0.2745                 4.1854                 0.9326

                     31                     32                     33
                      A                      A                      A
 Frequencies --    938.6958               952.2297               953.1218
 Red. masses --      1.5883                 1.6393                 1.2259
 Frc consts  --      0.8246                 0.8758                 0.6562
 IR Inten    --      4.5002                 3.3713                 0.9605

                     34                     35                     36
                      A                      A                      A
 Frequencies --    982.0682               988.3583              1004.3619
 Red. masses --      1.7786                 1.8264                 1.9558
 Frc consts  --      1.0107                 1.0512                 1.1624
 IR Inten    --      3.4337                 6.7688                 1.4275

                     37                     38                     39
                      A                      A                      A
 Frequencies --   1026.0793              1035.8518              1053.5554
 Red. masses --      2.8968                 2.2462                 1.7974
 Frc consts  --      1.7969                 1.4200                 1.1755
 IR Inten    --      4.9008                 2.8130                 2.4484

                     40                     41                     42
                      A                      A                      A
 Frequencies --   1070.4538              1081.3921              1114.7672
 Red. masses --      2.2480                 2.0468                 1.7979
 Frc consts  --      1.5177                 1.4102                 1.3164
 IR Inten    --      0.3856                14.0180                 1.5542

                     43                     44                     45
                      A                      A                      A
 Frequencies --   1134.9453              1144.8433              1150.9915
 Red. masses --      1.9611                 2.4968                 2.5119
 Frc consts  --      1.4884                 1.9281                 1.9606
 IR Inten    --     23.3343                20.0187                34.3870

                     46                     47                     48
                      A                      A                      A
 Frequencies --   1159.8132              1185.2260              1197.5449
 Red. masses --      3.6021                 1.8548                 1.7076
 Frc consts  --      2.8548                 1.5352                 1.4429
 IR Inten    --    137.7458                31.9512                 2.8779

                     49                     50                     51
                      A                      A                      A
 Frequencies --   1218.8674              1247.0040              1252.8103
 Red. masses --      1.5342                 1.3299                 1.3025
 Frc consts  --      1.3429                 1.2184                 1.2044
 IR Inten    --      0.9767                 2.4817                 2.6984

                     52                     53                     54
                      A                      A                      A
 Frequencies --   1268.9431              1285.0938              1292.8191
 Red. masses --      1.1296                 1.3360                 1.3288
 Frc consts  --      1.0717                 1.3000                 1.3085
 IR Inten    --      2.8788                 1.8365                 5.0461

                     55                     56                     57
                      A                      A                      A
 Frequencies --   1301.1471              1310.3156              1319.2718
 Red. masses --      1.2999                 1.1154                 1.2139
 Frc consts  --      1.2966                 1.1283                 1.2448
 IR Inten    --      1.0392                 0.0990                 2.4710

                     58                     59                     60
                      A                      A                      A
 Frequencies --   1323.6262              1326.4109              1330.1955
 Red. masses --      1.0918                 1.3673                 1.2802
 Frc consts  --      1.1270                 1.4174                 1.3347
 IR Inten    --      0.1917                 1.4551                 3.8017

                     61                     62                     63
                      A                      A                      A
 Frequencies --   1351.1300              1370.7620              1372.3032
 Red. masses --      1.2849                 1.4685                 1.4892
 Frc consts  --      1.3820                 1.6257                 1.6523
 IR Inten    --      3.6440                 2.0705                 0.7872

                     64                     65                     66
                      A                      A                      A
 Frequencies --   1384.0972              1394.4933              1401.6511
 Red. masses --      1.3939                 1.5853                 1.4520
 Frc consts  --      1.5733                 1.8163                 1.6807
 IR Inten    --     11.0641                 7.0496                40.0976

                     67                     68                     69
                      A                      A                      A
 Frequencies --   1411.1587              1413.0800              1448.3519
 Red. masses --      1.2384                 1.2363                 1.4720
 Frc consts  --      1.4530                 1.4544                 1.8193
 IR Inten    --      1.6643                 1.9770                 6.5197

                     70                     71                     72
                      A                      A                      A
 Frequencies --   1483.2493              1484.9025              1487.5621
 Red. masses --      1.0791                 1.0849                 1.0649
 Frc consts  --      1.3987                 1.4094                 1.3884
 IR Inten    --      1.7503                 0.5825                 0.3547

                     73                     74                     75
                      A                      A                      A
 Frequencies --   1491.2473              1495.5351              1499.8768
 Red. masses --      1.0789                 1.0727                 1.0401
 Frc consts  --      1.4137                 1.4136                 1.3786
 IR Inten    --      3.1863                 0.1253                 5.2608

                     76                     77                     78
                      A                      A                      A
 Frequencies --   1500.3250              1504.3799              1506.9770
 Red. masses --      1.0451                 1.0920                 1.0777
 Frc consts  --      1.3860                 1.4561                 1.4420
 IR Inten    --      3.3567                 0.5138                 5.3105

                     79                     80                     81
                      A                      A                      A
 Frequencies --   1508.1575              1513.8373              1534.6777
 Red. masses --      1.0761                 1.0894                 1.0969
 Frc consts  --      1.4421                 1.4710                 1.5222
 IR Inten    --      8.5675                 2.9892                 1.2424

                     82                     83                     84
                      A                      A                      A
 Frequencies --   2936.0165              2948.6315              2965.9810
 Red. masses --      1.0538                 1.0546                 1.1042
 Frc consts  --      5.3520                 5.4023                 5.7230
 IR Inten    --     13.3381               100.3670                65.8072

                     85                     86                     87
                      A                      A                      A
 Frequencies --   2969.9803              2999.4133              3003.6010
 Red. masses --      1.1061                 1.0754                 1.0641
 Frc consts  --      5.7486                 5.7005                 5.6563
 IR Inten    --     33.4306                 6.3641                 3.5957

                     88                     89                     90
                      A                      A                      A
 Frequencies --   3012.3792              3012.9811              3022.3724
 Red. masses --      1.0587                 1.0684                 1.0738
 Frc consts  --      5.6602                 5.7146                 5.7793
 IR Inten    --     19.5284                44.9439                39.3588

                     91                     92                     93
                      A                      A                      A
 Frequencies --   3027.0682              3029.5940              3031.3837
 Red. masses --      1.0504                 1.0365                 1.0435
 Frc consts  --      5.6710                 5.6053                 5.6496
 IR Inten    --     19.4351                26.7851                47.8250

                     94                     95                     96
                      A                      A                      A
 Frequencies --   3038.2207              3038.3538              3040.6798
 Red. masses --      1.1008                 1.0941                 1.0816
 Frc consts  --      5.9868                 5.9511                 5.8919
 IR Inten    --      4.0547                 1.5986                73.4683

                     97                     98                     99
                      A                      A                      A
 Frequencies --   3047.7569              3071.4982              3072.9000
 Red. masses --      1.0628                 1.1047                 1.0948
 Frc consts  --      5.8163                 6.1403                 6.0908
 IR Inten    --     29.5554                27.9301                41.7951

                    100                    101                    102
                      A                      A                      A
 Frequencies --   3092.6023              3095.0500              3095.6373
 Red. masses --      1.1004                 1.1010                 1.1020
 Frc consts  --      6.2006                 6.2139                 6.2222
 IR Inten    --      1.2811                21.1961                95.8847

                    103                    104                    105
                      A                      A                      A
 Frequencies --   3097.4097              3101.5842              3102.0445
 Red. masses --      1.1022                 1.1007                 1.1011
 Frc consts  --      6.2303                 6.2384                 6.2429
 IR Inten    --     56.4978                47.4505                34.5205

 - Thermochemistry -
 -------------------
 Temperature   298.150 Kelvin.  Pressure   1.00000 Atm.
 Atom     1 has atomic number  6 and mass  12.00000

 Molecular mass:   184.18272 amu.
 Principal axes and moments of inertia in atomic units:
                           1         2         3
     Eigenvalues --  1685.511905688.835366597.97203
           X            1.00000  -0.00030   0.00266
           Y            0.00031   1.00000  -0.00233
           Z           -0.00266   0.00233   0.99999
 This molecule is an asymmetric top.
 Rotational symmetry number  1.
 Warning -- assumption of classical behavior for rotation
           may cause significant error
 Rotational temperatures (Kelvin)      0.05139     0.01523     0.01313
 Rotational constants (GHZ):           1.07074     0.31724     0.27353
 Zero-point vibrational energy     899906.3 (Joules/Mol)
                                  215.08278 (Kcal/Mol)
 Warning -- explicit consideration of  21 degrees of freedom as
           vibrations may cause significant error
 Vibrational temperatures:     25.24    50.12    65.08   113.97   123.80
          (Kelvin)            161.30   182.32   211.50   244.47   267.84
                              294.08   358.50   369.64   398.28   475.89
                              538.88   576.31   606.13   656.77   759.04
                              859.06   914.45  1070.84  1113.54  1143.29
                             1171.23  1204.93  1249.13  1301.45  1320.66
                             1350.57  1370.05  1371.33  1412.98  1422.03
                             1445.05  1476.30  1490.36  1515.83  1540.14
                             1555.88  1603.90  1632.93  1647.17  1656.02
                             1668.71  1705.28  1723.00  1753.68  1794.16
                             1802.51  1825.73  1848.96  1860.08  1872.06
                             1885.25  1898.14  1904.40  1908.41  1913.85
                             1943.97  1972.22  1974.44  1991.41  2006.36
                             2016.66  2030.34  2033.11  2083.86  2134.06
                             2136.44  2140.27  2145.57  2151.74  2157.99
                             2158.63  2164.47  2168.20  2169.90  2178.07
                             2208.06  4224.27  4242.42  4267.39  4273.14
                             4315.49  4321.51  4334.14  4335.01  4348.52
                             4355.28  4358.91  4361.48  4371.32  4371.51
                             4374.86  4385.04  4419.20  4421.22  4449.56
                             4453.09  4453.93  4456.48  4462.49  4463.15

 Zero-point correction=                           0.342756 (Hartree/Particle)
 Thermal correction to Energy=                    0.358409
 Thermal correction to Enthalpy=                  0.359353
 Thermal correction to Gibbs Free Energy=         0.297700
 Sum of electronic and zero-point Energies=           -546.663267
 Sum of electronic and thermal Energies=              -546.647614
 Sum of electronic and thermal Enthalpies=            -546.646670
 Sum of electronic and thermal Free Energies=         -546.708323

                     E (Thermal)             CV                S
                      KCal/Mol        Cal/Mol-Kelvin    Cal/Mol-Kelvin
 Total                  224.905             57.272            129.760
 Electronic               0.000              0.000              0.000
 Translational            0.889              2.981             41.539
 Rotational               0.889              2.981             32.514
 Vibrational            223.127             51.311             55.707
 Vibration     1          0.593              1.986              6.895
 Vibration     2          0.594              1.983              5.533
 Vibration     3          0.595              1.979              5.016
 Vibration     4          0.600              1.963              3.910
 Vibration     5          0.601              1.959              3.748
 Vibration     6          0.607              1.939              3.232
 Vibration     7          0.611              1.926              2.995
 Vibration     8          0.617              1.906              2.711
 Vibration     9          0.625              1.880              2.436
 Vibration    10          0.632              1.859              2.266
 Vibration    11          0.640              1.834              2.093
 Vibration    12          0.662              1.764              1.736
 Vibration    13          0.666              1.751              1.683
 Vibration    14          0.678              1.716              1.553
 Vibration    15          0.713              1.614              1.256
 Vibration    16          0.746              1.524              1.061
 Vibration    17          0.766              1.469              0.961
 Vibration    18          0.784              1.424              0.888
 Vibration    19          0.815              1.347              0.776
 Vibration    20          0.883              1.189              0.593
 Vibration    21          0.955              1.038              0.455

 Optimization completed on the basis of negligible forces.
    -- Stationary point found.
 Normal termination of Gaussian 16 at Tue May 23 11:26:53 2023.
