 Gaussian 16, Revision A.03,
 Gaussian 16:  ES64L-G16RevA.03 25-Dec-2016

 -----------------------------
 # opt freq b3lyp/6-31g(2df,p)
 -----------------------------

 -------------------
 Title Card Required
 -------------------
 Symbolic Z-matrix:
 Charge =  0 Multiplicity = 1

 SCF Done:  E(RB3LYP) =  -276.420590482     A.U. after   12 cycles
 SCF Done:  E(RB3LYP) =  -276.421475126     A.U. after   10 cycles
 SCF Done:  E(RB3LYP) =  -276.421580377     A.U. after    8 cycles
 SCF Done:  E(RB3LYP) =  -276.421594536     A.U. after    8 cycles
 SCF Done:  E(RB3LYP) =  -276.421594979     A.U. after    6 cycles
 Optimization completed.
    -- Stationary point found.
 Normal termination of Gaussian 16 at Sun May 28 07:06:42 2023.

 ----------------------------------------------------------------------
 #N Geom=AllCheck Guess=TCheck SCRF=Check GenChk RB3LYP/6-31G(2df,p) Fr
 eq
 ----------------------------------------------------------------------

 Structure from the checkpoint file:  "CCCCqCrqCrC.chk"
 -------------------
 Title Card Required
 -------------------
 Charge =  0 Multiplicity = 1

                         Standard orientation:
 ---------------------------------------------------------------------
 Center     Atomic      Atomic             Coordinates (Angstroms)
 Number     Number       Type             X           Y           Z
 ---------------------------------------------------------------------
      1          6           0       -3.028173    0.247768    0.000000
      2          6           0       -1.654068   -0.430729    0.000000
      3          6           0       -0.504797    0.585709    0.000004
      4          6           0        0.940748    0.026833    0.000000
      5          6           0        1.202410   -0.822380    1.257940
      6          6           0        1.202403   -0.822380   -1.257942
      7          6           0        1.909953    1.224398   -0.000003
      8          1           0       -3.838002   -0.488688   -0.000002
      9          1           0       -3.156119    0.883576   -0.883325
     10          1           0       -3.156121    0.883572    0.883328
     11          1           0       -1.577716   -1.084420   -0.876992
     12          1           0       -1.577718   -1.084423    0.876989
     13          1           0       -0.618912    1.239689    0.876354
     14          1           0       -0.618913    1.239695   -0.876342
     15          1           0        0.577085   -1.720045    1.282698
     16          1           0        1.003513   -0.249346    2.170766
     17          1           0        2.247245   -1.150343    1.293150
     18          1           0        0.577076   -1.720043   -1.282696
     19          1           0        2.247237   -1.150346   -1.293155
     20          1           0        1.003503   -0.249345   -2.170766
     21          1           0        1.762135    1.853554    0.884894
     22          1           0        1.762131    1.853553   -0.884900
     23          1           0        2.952726    0.888046   -0.000005
 ---------------------------------------------------------------------

 SCF Done:  E(RB3LYP) =  -276.421594979     A.U. after    1 cycles

 The electronic state is 1-A.
 Alpha  occ. eigenvalues --  -10.18862 -10.17381 -10.17023 -10.16905 -10.16582
 Alpha  occ. eigenvalues --  -10.16582 -10.16541  -0.81897  -0.76115  -0.67785
 Alpha  occ. eigenvalues --   -0.67762  -0.66884  -0.58682  -0.52381  -0.46020
 Alpha  occ. eigenvalues --   -0.45072  -0.43097  -0.42868  -0.40046  -0.38592
 Alpha  occ. eigenvalues --   -0.38289  -0.35907  -0.35884  -0.35598  -0.33992
 Alpha  occ. eigenvalues --   -0.32643  -0.30976  -0.30554  -0.29965
 Alpha virt. eigenvalues --    0.07611   0.10969   0.12575   0.12719   0.13651
 Alpha virt. eigenvalues --    0.14276   0.15679   0.16821   0.17147   0.18136
 Alpha virt. eigenvalues --    0.18682   0.19477   0.20110   0.20595   0.21967

 Mulliken charges:
               1
     1  C   -0.375872
     2  C   -0.185999
     3  C   -0.159676
     4  C    0.265138
     5  C   -0.399199
     6  C   -0.399199
     7  C   -0.401080
     8  H    0.108697
     9  H    0.112292
    10  H    0.112292
    11  H    0.096723
    12  H    0.096723
    13  H    0.083991
    14  H    0.083991
    15  H    0.110768
    16  H    0.105500
    17  H    0.106027
    18  H    0.110768
    19  H    0.106027
    20  H    0.105500
    21  H    0.105920
    22  H    0.105920
    23  H    0.104752
 Sum of Mulliken charges =  -0.00000

 Dipole moment (field-independent basis, Debye):
    X=             -0.0150    Y=             -0.0458    Z=              0.0000  Tot=              0.0482
 Quadrupole moment (field-independent basis, Debye-Ang):
   XX=            -48.6895   YY=            -48.3847   ZZ=            -48.0058
   XY=              0.0484   XZ=              0.0000   YZ=             -0.0000

  Exact polarizability:  87.410   0.235  73.247   0.000   0.000  72.945
 Approx polarizability: 107.908  -0.176 105.627  -0.000   0.000 106.237

                      1                      2                      3
                      A                      A                      A
 Frequencies --     64.6505               104.9203               182.8449
 Red. masses --      1.6234                 2.1714                 2.6384
 Frc consts  --      0.0040                 0.0141                 0.0520
 IR Inten    --      0.0174                 0.0017                 0.0425

                      4                      5                      6
                      A                      A                      A
 Frequencies --    219.8233               249.1746               262.6462
 Red. masses --      1.0485                 1.1170                 1.0537
 Frc consts  --      0.0299                 0.0409                 0.0428
 IR Inten    --      0.0020                 0.0034                 0.0656

                      7                      8                      9
                      A                      A                      A
 Frequencies --    271.8531               313.3987               331.2865
 Red. masses --      1.0601                 2.5578                 2.0438
 Frc consts  --      0.0462                 0.1480                 0.1322
 IR Inten    --      0.0001                 0.0078                 0.0081

                     10                     11                     12
                      A                      A                      A
 Frequencies --    338.2689               412.3094               422.8326
 Red. masses --      2.3676                 2.0555                 2.3423
 Frc consts  --      0.1596                 0.2059                 0.2467
 IR Inten    --      0.0425                 0.0176                 0.2542

                     13                     14                     15
                      A                      A                      A
 Frequencies --    493.4369               744.0501               744.6061
 Red. masses --      2.4363                 1.1122                 3.2357
 Frc consts  --      0.3495                 0.3628                 1.0570
 IR Inten    --      0.0621                 2.3639                 0.1768

                     16                     17                     18
                      A                      A                      A
 Frequencies --    866.6665               882.8035               931.0657
 Red. masses --      1.2872                 1.9858                 1.7270
 Frc consts  --      0.5696                 0.9118                 0.8821
 IR Inten    --      0.0456                 0.3662                 1.5858

                     19                     20                     21
                      A                      A                      A
 Frequencies --    935.1144               953.5531               957.7987
 Red. masses --      1.7049                 2.1048                 1.2038
 Frc consts  --      0.8784                 1.1276                 0.6507
 IR Inten    --      0.2042                 1.8729                 0.0053

                     22                     23                     24
                      A                      A                      A
 Frequencies --   1014.0454              1032.0611              1053.4746
 Red. masses --      1.2792                 1.4258                 2.5034
 Frc consts  --      0.7750                 0.8948                 1.6369
 IR Inten    --      0.0172                 0.1668                 0.1081

                     25                     26                     27
                      A                      A                      A
 Frequencies --   1112.8088              1117.3835              1229.6626
 Red. masses --      1.4048                 1.9348                 2.2772
 Frc consts  --      1.0250                 1.4233                 2.0287
 IR Inten    --      0.0100                 0.5052                 6.5279

                     28                     29                     30
                      A                      A                      A
 Frequencies --   1239.4964              1271.7591              1297.0813
 Red. masses --      1.9357                 2.7782                 1.4470
 Frc consts  --      1.7522                 2.6474                 1.4344
 IR Inten    --      1.6316                 8.0759                 1.5089

                     31                     32                     33
                      A                      A                      A
 Frequencies --   1325.2515              1346.4663              1393.0151
 Red. masses --      1.4340                 1.1673                 1.4908
 Frc consts  --      1.4839                 1.2469                 1.7044
 IR Inten    --      0.4629                 0.5465                 0.9553

                     34                     35                     36
                      A                      A                      A
 Frequencies --   1399.5825              1399.6524              1411.8621
 Red. masses --      1.2413                 1.2423                 1.2317
 Frc consts  --      1.4326                 1.4339                 1.4465
 IR Inten    --      5.8364                 3.4134                 1.1569

                     37                     38                     39
                      A                      A                      A
 Frequencies --   1432.1969              1475.6933              1480.9976
 Red. masses --      1.2359                 1.0751                 1.0484
 Frc consts  --      1.4936                 1.3794                 1.3548
 IR Inten    --      2.9615                 0.0593                 0.0477

                     40                     41                     42
                      A                      A                      A
 Frequencies --   1486.8390              1487.5809              1493.1058
 Red. masses --      1.0444                 1.0475                 1.0569
 Frc consts  --      1.3603                 1.3657                 1.3882
 IR Inten    --      0.1891                 0.1460                 0.5966

                     43                     44                     45
                      A                      A                      A
 Frequencies --   1499.5164              1507.4172              1508.1261
 Red. masses --      1.0406                 1.0643                 1.0606
 Frc consts  --      1.3785                 1.4249                 1.4213
 IR Inten    --      6.9193                 1.2209                 1.4689

                     46                     47                     48
                      A                      A                      A
 Frequencies --   1511.2430              1519.1432              2995.2253
 Red. masses --      1.0752                 1.0628                 1.0579
 Frc consts  --      1.4467                 1.4452                 5.5919
 IR Inten    --      5.1039                10.3026                22.0904

                     49                     50                     51
                      A                      A                      A
 Frequencies --   3019.4871              3022.6337              3026.4530
 Red. masses --      1.0349                 1.0361                 1.0407
 Frc consts  --      5.5590                 5.5772                 5.6161
 IR Inten    --     25.7375                34.9215                21.7070

                     52                     53                     54
                      A                      A                      A
 Frequencies --   3026.5433              3028.7437              3031.7600
 Red. masses --      1.1000                 1.0450                 1.0453
 Frc consts  --      5.9367                 5.6478                 5.6610
 IR Inten    --      8.3434                27.1816                25.8522

                     55                     56                     57
                      A                      A                      A
 Frequencies --   3062.6456              3086.5358              3086.7931
 Red. masses --      1.1023                 1.1016                 1.1015
 Frc consts  --      6.0916                 6.1835                 6.1840
 IR Inten    --     17.2215                 0.2951                 0.5168

                     58                     59                     60
                      A                      A                      A
 Frequencies --   3090.4948              3093.9461              3095.1714
 Red. masses --      1.1013                 1.1004                 1.1020
 Frc consts  --      6.1975                 6.2061                 6.2204
 IR Inten    --     18.2821                82.0167                94.2974

                     61                     62                     63
                      A                      A                      A
 Frequencies --   3099.0050              3099.7038              3103.0451
 Red. masses --      1.1009                 1.1008                 1.0992
 Frc consts  --      6.2296                 6.2316                 6.2362
 IR Inten    --     22.3652                 1.9565                80.7585

 - Thermochemistry -
 -------------------
 Temperature   298.150 Kelvin.  Pressure   1.00000 Atm.
 Atom     1 has atomic number  6 and mass  12.00000

 Molecular mass:   100.12520 amu.
 Principal axes and moments of inertia in atomic units:
                           1         2         3
     Eigenvalues --   448.096861300.121791316.74455
           X            1.00000  -0.00131   0.00000
           Y            0.00131   1.00000  -0.00000
           Z           -0.00000   0.00000   1.00000
 This molecule is an asymmetric top.
 Rotational symmetry number  1.
 Warning -- assumption of classical behavior for rotation
           may cause significant error
 Rotational temperatures (Kelvin)      0.19329     0.06662     0.06578
 Rotational constants (GHZ):           4.02757     1.38813     1.37061
 Zero-point vibrational energy     566412.4 (Joules/Mol)
                                  135.37580 (Kcal/Mol)
 Warning -- explicit consideration of  13 degrees of freedom as
           vibrations may cause significant error
 Vibrational temperatures:     93.02   150.96   263.07   316.28   358.51
          (Kelvin)            377.89   391.14   450.91   476.65   486.69
                              593.22   608.36   709.95  1070.52  1071.32
                             1246.94  1270.16  1339.60  1345.42  1371.95
                             1378.06  1458.99  1484.91  1515.71  1601.08
                             1607.67  1769.21  1783.36  1829.78  1866.21
                             1906.74  1937.26  2004.24  2013.69  2013.79
                             2031.35  2060.61  2123.19  2130.83  2139.23
                             2140.30  2148.25  2157.47  2168.84  2169.86
                             2174.34  2185.71  4309.46  4344.37  4348.90
                             4354.39  4354.52  4357.69  4362.03  4406.46
                             4440.84  4441.21  4446.53  4451.50  4453.26
                             4458.78  4459.78  4464.59

 Zero-point correction=                           0.215735 (Hartree/Particle)
 Thermal correction to Energy=                    0.225400
 Thermal correction to Enthalpy=                  0.226345
 Thermal correction to Gibbs Free Energy=         0.182119
 Sum of electronic and zero-point Energies=           -276.205860
 Sum of electronic and thermal Energies=              -276.196195
 Sum of electronic and thermal Enthalpies=            -276.195250
 Sum of electronic and thermal Free Energies=         -276.239476

                     E (Thermal)             CV                S
                      KCal/Mol        Cal/Mol-Kelvin    Cal/Mol-Kelvin
 Total                  141.441             35.887             93.081
 Electronic               0.000              0.000              0.000
 Translational            0.889              2.981             39.722
 Rotational               0.889              2.981             28.130
 Vibrational            139.663             29.925             25.229
 Vibration     1          0.597              1.971              4.310
 Vibration     2          0.605              1.945              3.361
 Vibration     3          0.630              1.863              2.299
 Vibration     4          0.647              1.811              1.961
 Vibration     5          0.662              1.764              1.736
 Vibration     6          0.670              1.741              1.644
 Vibration     7          0.675              1.725              1.584
 Vibration     8          0.701              1.648              1.344
 Vibration     9          0.714              1.613              1.254
 Vibration    10          0.719              1.599              1.220
 Vibration    11          0.776              1.444              0.918
 Vibration    12          0.785              1.421              0.882
 Vibration    13          0.849              1.265              0.675

 Optimization completed.
    -- Stationary point found.
 Normal termination of Gaussian 16 at Sun May 28 07:31:27 2023.
