 Gaussian 16, Revision A.03,
 Gaussian 16:  ES64L-G16RevA.03 25-Dec-2016

 -----------------------------
 # opt freq b3lyp/6-31g(2df,p)
 -----------------------------

 -------------------
 Title Card Required
 -------------------
 Symbolic Z-matrix:
 Charge =  0 Multiplicity = 1

 SCF Done:  E(RB3LYP) =  -704.190740710     A.U. after   12 cycles
 SCF Done:  E(RB3LYP) =  -704.208879827     A.U. after   10 cycles
 SCF Done:  E(RB3LYP) =  -704.220740910     A.U. after   10 cycles
 SCF Done:  E(RB3LYP) =  -704.225497783     A.U. after   11 cycles
 SCF Done:  E(RB3LYP) =  -704.227995431     A.U. after   11 cycles
 SCF Done:  E(RB3LYP) =  -704.229118363     A.U. after   10 cycles
 SCF Done:  E(RB3LYP) =  -704.230166287     A.U. after   10 cycles
 SCF Done:  E(RB3LYP) =  -704.230527062     A.U. after   10 cycles
 SCF Done:  E(RB3LYP) =  -704.231100847     A.U. after   10 cycles
 SCF Done:  E(RB3LYP) =  -704.232232717     A.U. after   11 cycles
 SCF Done:  E(RB3LYP) =  -704.250033636     A.U. after    8 cycles
 SCF Done:  E(RB3LYP) =  -704.250036307     A.U. after    5 cycles
 SCF Done:  E(RB3LYP) =  -704.250052795     A.U. after    8 cycles
 SCF Done:  E(RB3LYP) =  -704.250054848     A.U. after    6 cycles
 SCF Done:  E(RB3LYP) =  -704.250054929     A.U. after    6 cycles
 SCF Done:  E(RB3LYP) =  -704.250057296     A.U. after    7 cycles
 SCF Done:  E(RB3LYP) =  -704.250057465     A.U. after    6 cycles
 SCF Done:  E(RB3LYP) =  -704.250057514     A.U. after    5 cycles
 SCF Done:  E(RB3LYP) =  -704.250057522     A.U. after    5 cycles
 Optimization completed.
    -- Stationary point found.
 Normal termination of Gaussian 16 at Tue May 23 17:17:17 2023.

 ----------------------------------------------------------------------
 #N Geom=AllCheck Guess=TCheck SCRF=Check GenChk RB3LYP/6-31G(2df,p) Fr
 eq
 ----------------------------------------------------------------------

 Structure from the checkpoint file:  "CCCC1CqCrCCCCCCCqCCrC1O.chk"
 -------------------
 Title Card Required
 -------------------
 Charge =  0 Multiplicity = 1

                         Standard orientation:
 ---------------------------------------------------------------------
 Center     Atomic      Atomic             Coordinates (Angstroms)
 Number     Number       Type             X           Y           Z
 ---------------------------------------------------------------------
      1          6           0       -4.264056   -0.333583   -1.836863
      2          6           0       -3.401257   -0.717547   -0.630275
      3          6           0       -2.159340    0.175695   -0.494216
      4          6           0       -1.341394    0.035679    0.808656
      5          6           0       -0.579732   -1.309560    1.007493
      6          6           0       -1.450595   -2.419046    1.622746
      7          6           0        0.163130   -1.809357   -0.253466
      8          6           0        1.460030   -2.607967    0.026349
      9          6           0        2.589549   -2.363490   -0.996391
     10          6           0        3.440424   -1.084459   -0.824993
     11          6           0        2.718846    0.269275   -0.992457
     12          6           0        1.961690    0.742544    0.271145
     13          6           0        0.686140    1.582005   -0.003609
     14          6           0        1.041138    3.085211   -0.045327
     15          6           0        0.012863    3.974255   -0.751037
     16          6           0       -0.454394    1.308997    1.015945
     17          8           0        0.018621    1.399693    2.359547
     18          1           0       -5.139022   -0.985100   -1.926469
     19          1           0       -3.695756   -0.410115   -2.770827
     20          1           0       -4.623227    0.698382   -1.754383
     21          1           0       -3.104272   -1.767412   -0.727305
     22          1           0       -4.002022   -0.652003    0.286053
     23          1           0       -2.493911    1.220637   -0.562312
     24          1           0       -1.520142    0.019193   -1.371543
     25          1           0       -2.055366    0.104312    1.641220
     26          1           0        0.180859   -1.104019    1.772640
     27          1           0       -2.253218   -2.736956    0.951807
     28          1           0       -1.910020   -2.085662    2.559094
     29          1           0       -0.843360   -3.302781    1.848486
     30          1           0        0.406663   -0.961072   -0.892764
     31          1           0       -0.516552   -2.426964   -0.853829
     32          1           0        1.231759   -3.679630    0.045943
     33          1           0        1.836813   -2.374361    1.031301
     34          1           0        2.163313   -2.375730   -2.009500
     35          1           0        3.281712   -3.213688   -0.955663
     36          1           0        4.249267   -1.139101   -1.563978
     37          1           0        3.933823   -1.109942    0.157007
     38          1           0        2.027274    0.197919   -1.841555
     39          1           0        3.453655    1.030207   -1.279528
     40          1           0        2.647394    1.327457    0.896428
     41          1           0        1.717934   -0.137288    0.866673
     42          1           0        0.305699    1.309123   -0.995901
     43          1           0        2.007209    3.200653   -0.552607
     44          1           0        1.191503    3.428105    0.986002
     45          1           0       -0.122207    3.669728   -1.795286
     46          1           0        0.335109    5.020430   -0.750006
     47          1           0       -0.968636    3.938263   -0.267430
     48          1           0       -1.157531    2.146248    0.942403
     49          1           0        0.748028    0.781726    2.467252
 ---------------------------------------------------------------------

 SCF Done:  E(RB3LYP) =  -704.250057522     A.U. after    1 cycles

 The electronic state is 1-A.
 Alpha  occ. eigenvalues --  -19.12707 -10.21945 -10.18277 -10.17926 -10.17873
 Alpha  occ. eigenvalues --  -10.17853 -10.17815 -10.17738 -10.17658 -10.17655
 Alpha  occ. eigenvalues --  -10.17639 -10.17406 -10.17270 -10.17219 -10.17055
 Alpha  occ. eigenvalues --  -10.16879 -10.16764  -1.00840  -0.82575  -0.80292
 Alpha  occ. eigenvalues --   -0.79395  -0.77160  -0.74598  -0.72524  -0.71264
 Alpha  occ. eigenvalues --   -0.67882  -0.65591  -0.62680  -0.61960  -0.59566
 Alpha  occ. eigenvalues --   -0.58254  -0.56381  -0.55886  -0.53435  -0.48465
 Alpha  occ. eigenvalues --   -0.47311  -0.46947  -0.45564  -0.45363  -0.43839
 Alpha  occ. eigenvalues --   -0.43239  -0.42541  -0.41931  -0.41196  -0.40510
 Alpha  occ. eigenvalues --   -0.39743  -0.39478  -0.39197  -0.38239  -0.37224
 Alpha  occ. eigenvalues --   -0.36625  -0.35977  -0.35264  -0.35168  -0.34538
 Alpha  occ. eigenvalues --   -0.34121  -0.33460  -0.32915  -0.32563  -0.32224
 Alpha  occ. eigenvalues --   -0.32120  -0.31787  -0.30924  -0.30318  -0.29776
 Alpha  occ. eigenvalues --   -0.29671  -0.27654  -0.25244
 Alpha virt. eigenvalues --    0.06797   0.07624   0.08530   0.09040   0.09804
 Alpha virt. eigenvalues --    0.10755   0.11155   0.11598   0.12564   0.13413
 Alpha virt. eigenvalues --    0.13706   0.13983   0.14945   0.15238   0.15548

 Mulliken charges:
               1
     1  C   -0.380575
     2  C   -0.181841
     3  C   -0.170465
     4  C   -0.036713
     5  C    0.045181
     6  C   -0.424874
     7  C   -0.194911
     8  C   -0.192660
     9  C   -0.191917
    10  C   -0.192994
    11  C   -0.191226
    12  C   -0.224014
    13  C    0.037148
    14  C   -0.190464
    15  C   -0.392690
    16  C    0.065516
    17  O   -0.447834
    18  H    0.110165
    19  H    0.112447
    20  H    0.113712
    21  H    0.101920
    22  H    0.094725
    23  H    0.087532
    24  H    0.095441
    25  H    0.072247
    26  H    0.051640
    27  H    0.118118
    28  H    0.113616
    29  H    0.110282
    30  H    0.104027
    31  H    0.089671
    32  H    0.093297
    33  H    0.091276
    34  H    0.092408
    35  H    0.090899
    36  H    0.091481
    37  H    0.091275
    38  H    0.095821
    39  H    0.093880
    40  H    0.095904
    41  H    0.085215
    42  H    0.068093
    43  H    0.087326
    44  H    0.109940
    45  H    0.110980
    46  H    0.111847
    47  H    0.119666
    48  H    0.078233
    49  H    0.282253
 Sum of Mulliken charges =  -0.00000

 Dipole moment (field-independent basis, Debye):
    X=              0.6975    Y=             -0.9731    Z=             -1.1050  Tot=              1.6292
 Quadrupole moment (field-independent basis, Debye-Ang):
   XX=           -109.1194   YY=           -112.6307   ZZ=           -114.7600
   XY=              0.1022   XZ=              1.4495   YZ=             -2.9787

  Exact polarizability: 188.166  -0.760 184.338  -1.045  -3.017 153.537
 Approx polarizability: 247.304  -1.151 247.346   1.572  -0.182 244.901

                      1                      2                      3
                      A                      A                      A
 Frequencies --     37.5875                55.7939                68.1260
 Red. masses --      3.2867                 2.5385                 3.3434
 Frc consts  --      0.0027                 0.0047                 0.0091
 IR Inten    --      0.0124                 0.1292                 0.1337

                      4                      5                      6
                      A                      A                      A
 Frequencies --     81.1661                96.4785               121.6498
 Red. masses --      1.7468                 2.0712                 2.9119
 Frc consts  --      0.0068                 0.0114                 0.0254
 IR Inten    --      0.1359                 0.0233                 0.0535

                      7                      8                      9
                      A                      A                      A
 Frequencies --    132.0479               154.9817               163.6147
 Red. masses --      2.3399                 2.7192                 2.7176
 Frc consts  --      0.0240                 0.0385                 0.0429
 IR Inten    --      0.2471                 0.5240                 0.3321

                     10                     11                     12
                      A                      A                      A
 Frequencies --    179.3736               185.6659               209.0233
 Red. masses --      2.7291                 2.3745                 2.2615
 Frc consts  --      0.0517                 0.0482                 0.0582
 IR Inten    --      1.8530                 0.0647                 4.9427

                     13                     14                     15
                      A                      A                      A
 Frequencies --    227.7222               239.6932               251.7280
 Red. masses --      1.1835                 1.6317                 1.2771
 Frc consts  --      0.0362                 0.0552                 0.0477
 IR Inten    --      0.2437                 0.6555                 0.2030

                     16                     17                     18
                      A                      A                      A
 Frequencies --    260.4056               269.7349               274.2448
 Red. masses --      2.0752                 1.2145                 1.9234
 Frc consts  --      0.0829                 0.0521                 0.0852
 IR Inten    --      5.7528                57.0257                28.2885

                     19                     20                     21
                      A                      A                      A
 Frequencies --    291.8012               295.6865               299.2953
 Red. masses --      2.7116                 2.2853                 2.4354
 Frc consts  --      0.1360                 0.1177                 0.1285
 IR Inten    --     14.4472                 0.1982                 2.7688

                     22                     23                     24
                      A                      A                      A
 Frequencies --    311.6701               341.6201               353.2734
 Red. masses --      3.0026                 2.7155                 3.0832
 Frc consts  --      0.1718                 0.1867                 0.2267
 IR Inten    --      1.0647                 0.0473                 0.9784

                     25                     26                     27
                      A                      A                      A
 Frequencies --    372.0827               413.7435               458.5648
 Red. masses --      2.6875                 2.0190                 2.6936
 Frc consts  --      0.2192                 0.2036                 0.3337
 IR Inten    --      0.3956                 0.5037                 0.2357

                     28                     29                     30
                      A                      A                      A
 Frequencies --    466.5658               502.5350               579.4462
 Red. masses --      2.2851                 2.1593                 2.5199
 Frc consts  --      0.2931                 0.3213                 0.4985
 IR Inten    --      0.0930                 0.2691                 4.3564

                     31                     32                     33
                      A                      A                      A
 Frequencies --    610.7291               696.6773               731.9340
 Red. masses --      2.8376                 3.4908                 1.7195
 Frc consts  --      0.6236                 0.9983                 0.5427
 IR Inten    --      7.2927                 1.8701                 1.1153

                     34                     35                     36
                      A                      A                      A
 Frequencies --    744.5654               748.0936               784.4652
 Red. masses --      1.6867                 1.2629                 1.4050
 Frc consts  --      0.5509                 0.4164                 0.5094
 IR Inten    --      2.0348                 2.1635                 5.9968

                     37                     38                     39
                      A                      A                      A
 Frequencies --    796.1404               819.9857               839.0881
 Red. masses --      1.7373                 1.7377                 1.5877
 Frc consts  --      0.6488                 0.6884                 0.6586
 IR Inten    --      0.8939                 1.8787                 0.4665

                     40                     41                     42
                      A                      A                      A
 Frequencies --    857.0865               877.9120               897.3713
 Red. masses --      1.5702                 2.0506                 1.7526
 Frc consts  --      0.6796                 0.9312                 0.8315
 IR Inten    --      4.7825                 1.8147                 1.4509

                     43                     44                     45
                      A                      A                      A
 Frequencies --    905.4840               919.4521               942.0783
 Red. masses --      1.8705                 1.6943                 2.1835
 Frc consts  --      0.9036                 0.8439                 1.1418
 IR Inten    --      1.0797                 3.9141                 0.4009

                     46                     47                     48
                      A                      A                      A
 Frequencies --    956.9817               977.0350               998.1829
 Red. masses --      2.4262                 1.6653                 2.0288
 Frc consts  --      1.3091                 0.9366                 1.1910
 IR Inten    --      0.3715                 1.3921                 1.5376

                     49                     50                     51
                      A                      A                      A
 Frequencies --   1009.5767              1019.2074              1028.9915
 Red. masses --      2.0855                 1.9874                 2.7495
 Frc consts  --      1.2524                 1.2163                 1.7152
 IR Inten    --      6.3803                 7.2126                30.6627

                     52                     53                     54
                      A                      A                      A
 Frequencies --   1044.5205              1053.0623              1060.0310
 Red. masses --      2.2721                 2.3777                 2.0982
 Frc consts  --      1.4605                 1.5535                 1.3891
 IR Inten    --      1.4480                 2.7800                 5.6618

                     55                     56                     57
                      A                      A                      A
 Frequencies --   1066.9964              1070.6477              1076.4595
 Red. masses --      1.8768                 2.1949                 2.2243
 Frc consts  --      1.2589                 1.4824                 1.5186
 IR Inten    --      2.6701                15.8101                14.0369

                     58                     59                     60
                      A                      A                      A
 Frequencies --   1103.8850              1112.7982              1120.4675
 Red. masses --      2.2508                 1.6146                 1.8033
 Frc consts  --      1.6159                 1.1780                 1.3339
 IR Inten    --      1.8885                 4.4060                10.1492

                     61                     62                     63
                      A                      A                      A
 Frequencies --   1126.7856              1153.6482              1156.8388
 Red. masses --      1.7854                 2.2468                 2.3747
 Frc consts  --      1.3355                 1.7618                 1.8725
 IR Inten    --      1.2845                 1.9970                10.9342

                     64                     65                     66
                      A                      A                      A
 Frequencies --   1167.1964              1192.6261              1225.7158
 Red. masses --      2.0054                 1.6514                 1.3246
 Frc consts  --      1.6097                 1.3839                 1.1725
 IR Inten    --      9.7279                 1.8443                 4.1052

                     67                     68                     69
                      A                      A                      A
 Frequencies --   1235.8471              1253.1277              1257.9867
 Red. masses --      1.3107                 1.3501                 1.2706
 Frc consts  --      1.1795                 1.2492                 1.1847
 IR Inten    --     29.4915                 1.0783                 1.8387

                     70                     71                     72
                      A                      A                      A
 Frequencies --   1271.9596              1283.1087              1294.4637
 Red. masses --      1.3543                 1.2164                 1.2421
 Frc consts  --      1.2909                 1.1800                 1.2263
 IR Inten    --      4.4806                 0.5314                 1.6910

                     73                     74                     75
                      A                      A                      A
 Frequencies --   1304.2669              1309.8011              1312.8632
 Red. masses --      1.2477                 1.2414                 1.2104
 Frc consts  --      1.2506                 1.2548                 1.2292
 IR Inten    --      4.6547                 0.3236                 3.9112

                     76                     77                     78
                      A                      A                      A
 Frequencies --   1319.3832              1326.9663              1332.6650
 Red. masses --      1.1357                 1.1438                 1.1484
 Frc consts  --      1.1648                 1.1866                 1.2017
 IR Inten    --      0.6480                 1.6304                 1.0652

                     79                     80                     81
                      A                      A                      A
 Frequencies --   1341.2136              1350.4686              1364.3953
 Red. masses --      1.2395                 1.2462                 1.3492
 Frc consts  --      1.3137                 1.3391                 1.4798
 IR Inten    --      3.5443                 1.1591                 0.4867

                     82                     83                     84
                      A                      A                      A
 Frequencies --   1369.4752              1372.2781              1379.7451
 Red. masses --      1.3271                 1.3849                 1.4088
 Frc consts  --      1.4665                 1.5365                 1.5802
 IR Inten    --      0.9553                 5.4140                 0.5624

                     85                     86                     87
                      A                      A                      A
 Frequencies --   1381.9234              1388.6507              1391.2643
 Red. masses --      1.4110                 1.3642                 1.4072
 Frc consts  --      1.5876                 1.5499                 1.6048
 IR Inten    --      2.1297                 4.2871                 2.7270

                     88                     89                     90
                      A                      A                      A
 Frequencies --   1397.7796              1401.2935              1409.9064
 Red. masses --      1.3613                 1.4460                 1.2998
 Frc consts  --      1.5671                 1.6730                 1.5223
 IR Inten    --      0.1760                 2.0099                 2.4016

                     91                     92                     93
                      A                      A                      A
 Frequencies --   1411.8236              1413.2562              1420.8606
 Red. masses --      1.2433                 1.2450                 1.2790
 Frc consts  --      1.4602                 1.4651                 1.5214
 IR Inten    --      0.3473                 1.0480                 4.4324

                     94                     95                     96
                      A                      A                      A
 Frequencies --   1434.7898              1480.3278              1482.3384
 Red. masses --      1.1875                 1.0742                 1.0811
 Frc consts  --      1.4403                 1.3869                 1.3996
 IR Inten    --     40.5369                 1.4928                 1.5697

                     97                     98                     99
                      A                      A                      A
 Frequencies --   1486.6419              1486.9564              1491.5909
 Red. masses --      1.0754                 1.0855                 1.0650
 Frc consts  --      1.4003                 1.4141                 1.3960
 IR Inten    --      1.7230                 1.1760                 1.5464

                    100                    101                    102
                      A                      A                      A
 Frequencies --   1494.2561              1498.5690              1498.9801
 Red. masses --      1.0655                 1.0736                 1.0505
 Frc consts  --      1.4017                 1.4205                 1.3908
 IR Inten    --      9.7447                 0.3999                 0.3966

                    103                    104                    105
                      A                      A                      A
 Frequencies --   1499.9242              1500.9524              1502.3729
 Red. masses --      1.0472                 1.0510                 1.0513
 Frc consts  --      1.3881                 1.3950                 1.3981
 IR Inten    --      4.3465                 2.8144                 4.4472

                    106                    107                    108
                      A                      A                      A
 Frequencies --   1505.0905              1508.8708              1512.4112
 Red. masses --      1.0573                 1.0835                 1.0855
 Frc consts  --      1.4112                 1.4535                 1.4629
 IR Inten    --      4.9824                 6.9736                 4.6935

                    109                    110                    111
                      A                      A                      A
 Frequencies --   1516.4656              2993.0626              3002.9766
 Red. masses --      1.0731                 1.0796                 1.0759
 Frc consts  --      1.4540                 5.6984                 5.7164
 IR Inten    --      0.1864                23.6281                18.0247

                    112                    113                    114
                      A                      A                      A
 Frequencies --   3003.2495              3005.5652              3006.1328
 Red. masses --      1.0719                 1.0679                 1.0620
 Frc consts  --      5.6962                 5.6838                 5.6543
 IR Inten    --     14.0191                17.6219                11.9932

                    115                    116                    117
                      A                      A                      A
 Frequencies --   3013.0030              3016.0440              3019.9007
 Red. masses --      1.0645                 1.0688                 1.0633
 Frc consts  --      5.6935                 5.7283                 5.7135
 IR Inten    --     19.6921                 7.1636                17.4283

                    118                    119                    120
                      A                      A                      A
 Frequencies --   3022.2237              3023.1750              3027.0476
 Red. masses --      1.0718                 1.0636                 1.0422
 Frc consts  --      5.7680                 5.7274                 5.6263
 IR Inten    --      8.1535                 9.9852                49.1938

                    121                    122                    123
                      A                      A                      A
 Frequencies --   3027.7417              3029.1181              3031.6190
 Red. masses --      1.0713                 1.0390                 1.0794
 Frc consts  --      5.7860                 5.6168                 5.8451
 IR Inten    --      3.7988                10.5389                18.1169

                    124                    125                    126
                      A                      A                      A
 Frequencies --   3032.6186              3042.2574              3046.3577
 Red. masses --      1.0402                 1.0818                 1.0960
 Frc consts  --      5.6365                 5.8993                 5.9928
 IR Inten    --     32.8349                57.2420                38.0153

                    127                    128                    129
                      A                      A                      A
 Frequencies --   3047.7359              3051.8931              3056.9876
 Red. masses --      1.0884                 1.0991                 1.0956
 Frc consts  --      5.9566                 6.0313                 6.0324
 IR Inten    --     25.5635                50.2245                36.6098

                    130                    131                    132
                      A                      A                      A
 Frequencies --   3057.4998              3058.8995              3067.8559
 Red. masses --      1.0968                 1.0950                 1.0999
 Frc consts  --      6.0410                 6.0368                 6.0990
 IR Inten    --     59.8025                76.4873                23.4890

                    133                    134                    135
                      A                      A                      A
 Frequencies --   3093.2437              3095.5514              3096.0346
 Red. masses --      1.1005                 1.1022                 1.1010
 Frc consts  --      6.2040                 6.2228                 6.2177
 IR Inten    --     28.1482                30.8409                74.3919

                    136                    137                    138
                      A                      A                      A
 Frequencies --   3100.1752              3100.9535              3115.1529
 Red. masses --      1.1009                 1.1006                 1.0988
 Frc consts  --      6.2342                 6.2353                 6.2826
 IR Inten    --     50.6016                28.5769                35.0879

                    139                    140                    141
                      A                      A                      A
 Frequencies --   3119.1602              3125.8991              3821.2089
 Red. masses --      1.0857                 1.0860                 1.0653
 Frc consts  --      6.2236                 6.2524                 9.1652
 IR Inten    --     48.3202                 5.8241                10.3870

 - Thermochemistry -
 -------------------
 Temperature   298.150 Kelvin.  Pressure   1.00000 Atm.
 Atom     1 has atomic number  6 and mass  12.00000

 Molecular mass:   240.24532 amu.
 Principal axes and moments of inertia in atomic units:
                           1         2         3
     Eigenvalues --  4149.019204904.192536872.50889
           X            0.99993   0.00841   0.00808
           Y           -0.00824   0.99975  -0.02078
           Z           -0.00826   0.02071   0.99975
 This molecule is an asymmetric top.
 Rotational symmetry number  1.
 Warning -- assumption of classical behavior for rotation
           may cause significant error
 Rotational temperatures (Kelvin)      0.02088     0.01766     0.01260
 Rotational constants (GHZ):           0.43498     0.36800     0.26260
 Zero-point vibrational energy    1203058.6 (Joules/Mol)
                                  287.53791 (Kcal/Mol)
 Warning -- explicit consideration of  31 degrees of freedom as
           vibrations may cause significant error
 Vibrational temperatures:     54.08    80.27    98.02   116.78   138.81
          (Kelvin)            175.03   189.99   222.98   235.41   258.08
                              267.13   300.74   327.64   344.87   362.18
                              374.67   388.09   394.58   419.84   425.43
                              430.62   448.42   491.52   508.28   535.34
                              595.28   659.77   671.28   723.04   833.69
                              878.70  1002.36  1053.09  1071.26  1076.34
                             1128.67  1145.47  1179.78  1207.26  1233.16
                             1263.12  1291.12  1302.79  1322.89  1355.44
                             1376.88  1405.74  1436.16  1452.56  1466.41
                             1480.49  1502.83  1515.12  1525.15  1535.17
                             1540.42  1548.79  1588.24  1601.07  1612.10
                             1621.19  1659.84  1664.43  1679.34  1715.92
                             1763.53  1778.11  1802.97  1809.96  1830.07
                             1846.11  1862.44  1876.55  1884.51  1888.92
                             1898.30  1909.21  1917.41  1929.71  1943.02
                             1963.06  1970.37  1974.40  1985.15  1988.28
                             1997.96  2001.72  2011.09  2016.15  2028.54
                             2031.30  2033.36  2044.30  2064.34  2129.86
                             2132.75  2138.95  2139.40  2146.07  2149.90
                             2156.11  2156.70  2158.06  2159.54  2161.58
                             2165.49  2170.93  2176.02  2181.86  4306.35
                             4320.61  4321.01  4324.34  4325.15  4335.04
                             4339.41  4344.96  4348.31  4349.67  4355.25
                             4356.24  4358.23  4361.82  4363.26  4377.13
                             4383.03  4385.01  4390.99  4398.32  4399.06
                             4401.07  4413.96  4450.49  4453.81  4454.50
                             4460.46  4461.58  4482.01  4487.78  4497.47
                             5497.87

 Zero-point correction=                           0.458221 (Hartree/Particle)
 Thermal correction to Energy=                    0.478340
 Thermal correction to Enthalpy=                  0.479284
 Thermal correction to Gibbs Free Energy=         0.411173
 Sum of electronic and zero-point Energies=           -703.791837
 Sum of electronic and thermal Energies=              -703.771718
 Sum of electronic and thermal Enthalpies=            -703.770774
 Sum of electronic and thermal Free Energies=         -703.838885

                     E (Thermal)             CV                S
                      KCal/Mol        Cal/Mol-Kelvin    Cal/Mol-Kelvin
 Total                  300.163             78.051            143.352
 Electronic               0.000              0.000              0.000
 Translational            0.889              2.981             42.331
 Rotational               0.889              2.981             33.302
 Vibrational            298.385             72.089             67.719
 Vibration     1          0.594              1.982              5.382
 Vibration     2          0.596              1.975              4.601
 Vibration     3          0.598              1.969              4.207
 Vibration     4          0.600              1.962              3.862
 Vibration     5          0.603              1.952              3.524
 Vibration     6          0.609              1.931              3.074
 Vibration     7          0.612              1.921              2.916
 Vibration     8          0.620              1.897              2.610
 Vibration     9          0.623              1.887              2.508
 Vibration    10          0.629              1.868              2.335
 Vibration    11          0.632              1.859              2.271
 Vibration    12          0.642              1.827              2.052
 Vibration    13          0.651              1.799              1.897
 Vibration    14          0.657              1.780              1.805
 Vibration    15          0.664              1.760              1.718
 Vibration    16          0.668              1.745              1.659
 Vibration    17          0.674              1.729              1.598
 Vibration    18          0.677              1.721              1.569
 Vibration    19          0.687              1.689              1.463
 Vibration    20          0.690              1.682              1.441
 Vibration    21          0.692              1.675              1.421
 Vibration    22          0.700              1.651              1.353
 Vibration    23          0.721              1.592              1.205
 Vibration    24          0.729              1.569              1.152
 Vibration    25          0.744              1.529              1.071
 Vibration    26          0.777              1.440              0.913
 Vibration    27          0.817              1.342              0.770
 Vibration    28          0.824              1.324              0.747
 Vibration    29          0.858              1.244              0.652
 Vibration    30          0.936              1.076              0.486
 Vibration    31          0.970              1.009              0.432

 Optimization completed.
    -- Stationary point found.
 Normal termination of Gaussian 16 at Wed May 24 01:16:26 2023.
