 Gaussian 16, Revision A.03,
 Gaussian 16:  ES64L-G16RevA.03 25-Dec-2016

 -----------------------------
 # opt freq b3lyp/6-31g(2df,p)
 -----------------------------

 -------------------
 Title Card Required
 -------------------
 Symbolic Z-matrix:
 Charge =  0 Multiplicity = 1

 SCF Done:  E(RB3LYP) =  -353.803662158     A.U. after   12 cycles
 SCF Done:  E(RB3LYP) =  -353.810220599     A.U. after   10 cycles
 SCF Done:  E(RB3LYP) =  -353.811043800     A.U. after    9 cycles
 SCF Done:  E(RB3LYP) =  -353.811165160     A.U. after    8 cycles
 SCF Done:  E(RB3LYP) =  -353.811221470     A.U. after    8 cycles
 SCF Done:  E(RB3LYP) =  -353.811228721     A.U. after    8 cycles
 SCF Done:  E(RB3LYP) =  -353.811236061     A.U. after    8 cycles
 SCF Done:  E(RB3LYP) =  -353.811237482     A.U. after    7 cycles
 SCF Done:  E(RB3LYP) =  -353.811237842     A.U. after    6 cycles
 SCF Done:  E(RB3LYP) =  -353.811237871     A.U. after    5 cycles
 Optimization completed.
    -- Stationary point found.
 Normal termination of Gaussian 16 at Sun May 28 21:16:50 2023.

 ----------------------------------------------------------------------
 #N Geom=AllCheck Guess=TCheck SCRF=Check GenChk RB3LYP/6-31G(2df,p) Fr
 eq
 ----------------------------------------------------------------------

 Structure from the checkpoint file:  "CCCCCC1CCC1.chk"
 -------------------
 Title Card Required
 -------------------
 Charge =  0 Multiplicity = 1

                         Standard orientation:
 ---------------------------------------------------------------------
 Center     Atomic      Atomic             Coordinates (Angstroms)
 Number     Number       Type             X           Y           Z
 ---------------------------------------------------------------------
      1          6           0        4.489248   -0.195682    0.000026
      2          6           0        3.040350   -0.690667    0.000047
      3          6           0        2.013359    0.446704   -0.000046
      4          6           0        0.559536   -0.040137   -0.000010
      5          6           0       -0.453417    1.111526   -0.000063
      6          6           0       -1.932506    0.720989   -0.000084
      7          6           0       -2.521819   -0.230126   -1.083432
      8          6           0       -3.477497   -0.798159    0.000068
      9          6           0       -2.521832   -0.229903    1.083464
     10          1           0        5.198273   -1.029633    0.000042
     11          1           0        4.697806    0.418323    0.883403
     12          1           0        4.697795    0.418282   -0.883382
     13          1           0        2.871536   -1.330199    0.876748
     14          1           0        2.871555   -1.330332   -0.876560
     15          1           0        2.182610    1.087570   -0.876961
     16          1           0        2.182602    1.087704    0.876773
     17          1           0        0.398797   -0.680390    0.877220
     18          1           0        0.398773   -0.680499   -0.877155
     19          1           0       -0.262877    1.748433   -0.875938
     20          1           0       -0.262954    1.748423    0.875840
     21          1           0       -2.524258    1.644695   -0.000184
     22          1           0       -1.795789   -0.983251   -1.404086
     23          1           0       -2.962850    0.225384   -1.974094
     24          1           0       -3.663870   -1.874749    0.000171
     25          1           0       -4.440951   -0.279909    0.000022
     26          1           0       -1.795825   -0.982959    1.404326
     27          1           0       -2.962895    0.225831    1.973996
 ---------------------------------------------------------------------

 SCF Done:  E(RB3LYP) =  -353.811237871     A.U. after    1 cycles

 The electronic state is 1-A.
 Alpha  occ. eigenvalues --  -10.17860 -10.17448 -10.17380 -10.17233 -10.17184
 Alpha  occ. eigenvalues --  -10.17163 -10.17137 -10.17136 -10.16879  -0.83704
 Alpha  occ. eigenvalues --   -0.79415  -0.74822  -0.68824  -0.64851  -0.62702
 Alpha  occ. eigenvalues --   -0.58647  -0.57231  -0.52731  -0.47062  -0.47022
 Alpha  occ. eigenvalues --   -0.45293  -0.43087  -0.41722  -0.40011  -0.38355
 Alpha  occ. eigenvalues --   -0.37665  -0.37241  -0.35297  -0.33896  -0.32468
 Alpha  occ. eigenvalues --   -0.32198  -0.32142  -0.31653  -0.29470  -0.28907
 Alpha  occ. eigenvalues --   -0.28570
 Alpha virt. eigenvalues --    0.09111   0.09336   0.10265   0.11332   0.11714
 Alpha virt. eigenvalues --    0.13821   0.13862   0.14266   0.16509   0.16994
 Alpha virt. eigenvalues --    0.17409   0.18495   0.18977   0.19460   0.19594

 Mulliken charges:
               1
     1  C   -0.378679
     2  C   -0.166113
     3  C   -0.152557
     4  C   -0.179635
     5  C   -0.225692
     6  C    0.054477
     7  C   -0.225650
     8  C   -0.203611
     9  C   -0.225649
    10  H    0.109409
    11  H    0.112371
    12  H    0.112371
    13  H    0.092688
    14  H    0.092688
    15  H    0.089639
    16  H    0.089639
    17  H    0.094095
    18  H    0.094096
    19  H    0.090296
    20  H    0.090299
    21  H    0.065671
    22  H    0.099665
    23  H    0.089615
    24  H    0.092350
    25  H    0.098937
    26  H    0.099665
    27  H    0.089616
 Sum of Mulliken charges =  -0.00000

 Dipole moment (field-independent basis, Debye):
    X=              0.0289    Y=              0.0744    Z=              0.0000  Tot=              0.0798
 Quadrupole moment (field-independent basis, Debye-Ang):
   XX=            -60.7354   YY=            -59.4670   ZZ=            -59.3674
   XY=             -0.9103   XZ=              0.0001   YZ=             -0.0000

  Exact polarizability: 117.552   1.273  87.861  -0.000   0.000  86.956
 Approx polarizability: 133.256   0.229 130.801   0.000   0.000 131.612

                      1                      2                      3
                      A                      A                      A
 Frequencies --     40.0010                69.5426                83.5244
 Red. masses --      1.8129                 2.4000                 3.0204
 Frc consts  --      0.0017                 0.0068                 0.0124
 IR Inten    --      0.0098                 0.0002                 0.0116

                      4                      5                      6
                      A                      A                      A
 Frequencies --    128.0940               140.9799               149.0438
 Red. masses --      1.6871                 2.3393                 2.3213
 Frc consts  --      0.0163                 0.0274                 0.0304
 IR Inten    --      0.0001                 0.0081                 0.0094

                      7                      8                      9
                      A                      A                      A
 Frequencies --    227.2513               247.9375               308.8673
 Red. masses --      2.6471                 1.1196                 2.1442
 Frc consts  --      0.0805                 0.0406                 0.1205
 IR Inten    --      0.0122                 0.0007                 0.0328

                     10                     11                     12
                      A                      A                      A
 Frequencies --    343.7162               406.4720               540.3747
 Red. masses --      3.1522                 2.7268                 2.1025
 Frc consts  --      0.2194                 0.2654                 0.3617
 IR Inten    --      0.0245                 0.0413                 3.1833

                     13                     14                     15
                      A                      A                      A
 Frequencies --    634.4276               729.1622               745.4073
 Red. masses --      2.6231                 1.0897                 1.1540
 Frc consts  --      0.6221                 0.3414                 0.3778
 IR Inten    --      1.1618                 3.8135                 0.0960

                     16                     17                     18
                      A                      A                      A
 Frequencies --    748.8047               782.9406               838.0287
 Red. masses --      1.5924                 1.1942                 1.2788
 Frc consts  --      0.5261                 0.4313                 0.5292
 IR Inten    --      0.1326                 0.5269                 0.2387

                     19                     20                     21
                      A                      A                      A
 Frequencies --    892.8547               902.3655               923.2685
 Red. masses --      2.2150                 1.9026                 1.7548
 Frc consts  --      1.0404                 0.9128                 0.8813
 IR Inten    --      0.6325                 1.4379                 0.5475

                     22                     23                     24
                      A                      A                      A
 Frequencies --    933.4046               951.4489               968.1516
 Red. masses --      2.3637                 2.4202                 1.1050
 Frc consts  --      1.2134                 1.2909                 0.6102
 IR Inten    --      1.2771                 0.4330                 0.0988

                     25                     26                     27
                      A                      A                      A
 Frequencies --    995.4845              1021.2472              1033.0618
 Red. masses --      2.8566                 1.2226                 3.1151
 Frc consts  --      1.6679                 0.7513                 1.9587
 IR Inten    --      0.0707                 0.0265                 0.0220

                     28                     29                     30
                      A                      A                      A
 Frequencies --   1068.0618              1098.8773              1136.6112
 Red. masses --      2.3338                 1.6942                 2.4953
 Frc consts  --      1.5686                 1.2054                 1.8993
 IR Inten    --      0.0572                 1.7974                 1.2118

                     31                     32                     33
                      A                      A                      A
 Frequencies --   1153.9316              1154.2396              1206.9461
 Red. masses --      2.5943                 1.5057                 1.4998
 Frc consts  --      2.0353                 1.1819                 1.2873
 IR Inten    --      0.8550                 0.7968                 0.0704

                     34                     35                     36
                      A                      A                      A
 Frequencies --   1236.0868              1240.8991              1256.1450
 Red. masses --      1.4196                 1.3758                 1.2521
 Frc consts  --      1.2779                 1.2482                 1.1640
 IR Inten    --      0.0122                 0.3994                 0.3494

                     37                     38                     39
                      A                      A                      A
 Frequencies --   1264.2284              1266.4208              1278.8637
 Red. masses --      1.2672                 1.3403                 1.4713
 Frc consts  --      1.1933                 1.2665                 1.4178
 IR Inten    --      0.4558                 1.3755                 1.4263

                     40                     41                     42
                      A                      A                      A
 Frequencies --   1288.9304              1317.4486              1332.1808
 Red. masses --      1.2723                 1.2756                 1.0522
 Frc consts  --      1.2454                 1.3044                 1.1002
 IR Inten    --      0.0135                 0.0105                 0.2570

                     43                     44                     45
                      A                      A                      A
 Frequencies --   1337.6721              1345.6269              1375.3044
 Red. masses --      1.4811                 1.1671                 1.4976
 Frc consts  --      1.5614                 1.2451                 1.6689
 IR Inten    --      5.6335                 0.8472                 3.0455

                     46                     47                     48
                      A                      A                      A
 Frequencies --   1397.6259              1407.0453              1414.0663
 Red. masses --      1.5542                 1.3957                 1.2941
 Frc consts  --      1.7887                 1.6280                 1.5246
 IR Inten    --      2.7819                 9.0231                 4.2864

                     49                     50                     51
                      A                      A                      A
 Frequencies --   1476.2589              1479.4087              1483.0437
 Red. masses --      1.0813                 1.0910                 1.0723
 Frc consts  --      1.3884                 1.4069                 1.3895
 IR Inten    --      1.3255                 0.2686                 0.2211

                     52                     53                     54
                      A                      A                      A
 Frequencies --   1486.9527              1489.7359              1499.8748
 Red. masses --      1.0817                 1.0711                 1.0403
 Frc consts  --      1.4092                 1.4006                 1.3789
 IR Inten    --      1.9305                 0.1564                 4.8667

                     55                     56                     57
                      A                      A                      A
 Frequencies --   1502.9308              1512.0813              1514.1556
 Red. masses --      1.0798                 1.1324                 1.0996
 Frc consts  --      1.4371                 1.5255                 1.4853
 IR Inten    --      0.6696                 3.2337                 1.1563

                     58                     59                     60
                      A                      A                      A
 Frequencies --   2993.4895              3000.3856              3010.7048
 Red. masses --      1.0598                 1.0579                 1.0589
 Frc consts  --      5.5954                 5.6108                 5.6549
 IR Inten    --      9.9147                10.1537                 2.3107

                     61                     62                     63
                      A                      A                      A
 Frequencies --   3019.1636              3021.8982              3024.6847
 Red. masses --      1.0593                 1.0979                 1.0826
 Frc consts  --      5.6889                 5.9072                 5.8357
 IR Inten    --     77.2829                 9.0441                40.8986

                     64                     65                     66
                      A                      A                      A
 Frequencies --   3024.8510              3027.7602              3044.2654
 Red. masses --      1.1011                 1.0360                 1.0988
 Frc consts  --      5.9357                 5.5958                 5.9999
 IR Inten    --      5.5458                44.4959                 7.0202

                     67                     68                     69
                      A                      A                      A
 Frequencies --   3049.9727              3051.4143              3058.4002
 Red. masses --      1.0635                 1.0568                 1.0620
 Frc consts  --      5.8290                 5.7977                 5.8525
 IR Inten    --     27.6752                27.8271                20.9378

                     70                     71                     72
                      A                      A                      A
 Frequencies --   3064.7520              3092.8746              3093.8478
 Red. masses --      1.1022                 1.1061                 1.1020
 Frc consts  --      6.0999                 6.2338                 6.2149
 IR Inten    --    117.8960                20.4371                62.2894

                     73                     74                     75
                      A                      A                      A
 Frequencies --   3099.1282              3100.4796              3115.9105
 Red. masses --      1.1010                 1.1077                 1.1072
 Frc consts  --      6.2301                 6.2738                 6.3334
 IR Inten    --     38.3579                10.6199                82.3267

 - Thermochemistry -
 -------------------
 Temperature   298.150 Kelvin.  Pressure   1.00000 Atm.
 Atom     1 has atomic number  6 and mass  12.00000

 Molecular mass:   126.14085 amu.
 Principal axes and moments of inertia in atomic units:
                           1         2         3
     Eigenvalues --   389.995263428.954103477.76280
           X            1.00000   0.00042  -0.00000
           Y           -0.00042   1.00000   0.00000
           Z            0.00000  -0.00000   1.00000
 This molecule is an asymmetric top.
 Rotational symmetry number  1.
 Rotational temperatures (Kelvin)      0.22209     0.02526     0.02491
 Rotational constants (GHZ):           4.62760     0.52632     0.51894
 Zero-point vibrational energy     662142.0 (Joules/Mol)
                                  158.25574 (Kcal/Mol)
 Warning -- explicit consideration of  12 degrees of freedom as
           vibrations may cause significant error
 Vibrational temperatures:     57.55   100.06   120.17   184.30   202.84
          (Kelvin)            214.44   326.96   356.73   444.39   494.53
                              584.82   777.48   912.80  1049.10  1072.47
                             1077.36  1126.48  1205.74  1284.62  1298.30
                             1328.38  1342.96  1368.92  1392.95  1432.28
                             1469.35  1486.35  1536.70  1581.04  1635.33
                             1660.25  1660.69  1736.53  1778.45  1785.38
                             1807.31  1818.94  1822.10  1840.00  1854.48
                             1895.51  1916.71  1924.61  1936.06  1978.76
                             2010.87  2024.42  2034.53  2124.01  2128.54
                             2133.77  2139.39  2143.40  2157.99  2162.38
                             2175.55  2178.53  4306.96  4316.89  4331.73
                             4343.90  4347.84  4351.85  4352.09  4356.27
                             4380.02  4388.23  4390.30  4400.36  4409.49
                             4449.96  4451.36  4458.95  4460.90  4483.10

 Zero-point correction=                           0.252197 (Hartree/Particle)
 Thermal correction to Energy=                    0.263037
 Thermal correction to Enthalpy=                  0.263981
 Thermal correction to Gibbs Free Energy=         0.214973
 Sum of electronic and zero-point Energies=           -353.559041
 Sum of electronic and thermal Energies=              -353.548201
 Sum of electronic and thermal Enthalpies=            -353.547257
 Sum of electronic and thermal Free Energies=         -353.596265

                     E (Thermal)             CV                S
                      KCal/Mol        Cal/Mol-Kelvin    Cal/Mol-Kelvin
 Total                  165.058             39.725            103.145
 Electronic               0.000              0.000              0.000
 Translational            0.889              2.981             40.410
 Rotational               0.889              2.981             29.921
 Vibrational            163.281             33.764             32.814
 Vibration     1          0.594              1.981              5.259
 Vibration     2          0.598              1.969              4.166
 Vibration     3          0.600              1.961              3.806
 Vibration     4          0.611              1.925              2.974
 Vibration     5          0.615              1.912              2.791
 Vibration     6          0.618              1.904              2.684
 Vibration     7          0.651              1.799              1.901
 Vibration     8          0.662              1.766              1.745
 Vibration     9          0.698              1.657              1.368
 Vibration    10          0.722              1.588              1.195
 Vibration    11          0.771              1.456              0.939
 Vibration    12          0.895              1.161              0.564

 Optimization completed.
    -- Stationary point found.
 Normal termination of Gaussian 16 at Sun May 28 21:52:33 2023.
