 Gaussian 16, Revision A.03,
 Gaussian 16:  ES64L-G16RevA.03 25-Dec-2016

 -----------------------------
 # opt freq b3lyp/6-31g(2df,p)
 -----------------------------

 -------------------
 Title Card Required
 -------------------
 Symbolic Z-matrix:
 Charge =  0 Multiplicity = 1

 SCF Done:  E(RB3LYP) =  -622.220779744     A.U. after   14 cycles
 SCF Done:  E(RB3LYP) =  -622.229512170     A.U. after   13 cycles
 SCF Done:  E(RB3LYP) =  -622.230665222     A.U. after   11 cycles
 SCF Done:  E(RB3LYP) =  -622.230829754     A.U. after   11 cycles
 SCF Done:  E(RB3LYP) =  -622.230554375     A.U. after   11 cycles
 SCF Done:  E(RB3LYP) =  -622.230885485     A.U. after   11 cycles
 SCF Done:  E(RB3LYP) =  -622.230904613     A.U. after    9 cycles
 SCF Done:  E(RB3LYP) =  -622.230909175     A.U. after    9 cycles
 SCF Done:  E(RB3LYP) =  -622.230910222     A.U. after    8 cycles
 SCF Done:  E(RB3LYP) =  -622.230910358     A.U. after    7 cycles
 SCF Done:  E(RB3LYP) =  -622.230629666     A.U. after   12 cycles
 SCF Done:  E(RB3LYP) =  -622.230975441     A.U. after    9 cycles
 SCF Done:  E(RB3LYP) =  -622.230355187     A.U. after   12 cycles
 SCF Done:  E(RB3LYP) =  -622.230988628     A.U. after   12 cycles
 SCF Done:  E(RB3LYP) =  -622.230992819     A.U. after    9 cycles
 SCF Done:  E(RB3LYP) =  -622.230993472     A.U. after    7 cycles
 SCF Done:  E(RB3LYP) =  -622.230994283     A.U. after    8 cycles
 SCF Done:  E(RB3LYP) =  -622.230994557     A.U. after    7 cycles
 SCF Done:  E(RB3LYP) =  -622.230994592     A.U. after    7 cycles
 Optimization completed.
    -- Stationary point found.
 Normal termination of Gaussian 16 at Mon May 22 10:00:59 2023.

 ----------------------------------------------------------------------
 #N Geom=AllCheck Guess=TCheck SCRF=Check GenChk RB3LYP/6-31G(2df,p) Fr
 eq
 ----------------------------------------------------------------------

 Structure from the checkpoint file:  "CCCCCCqCrOCCqdOrCCC.chk"
 -------------------
 Title Card Required
 -------------------
 Charge =  0 Multiplicity = 1

                         Standard orientation:
 ---------------------------------------------------------------------
 Center     Atomic      Atomic             Coordinates (Angstroms)
 Number     Number       Type             X           Y           Z
 ---------------------------------------------------------------------
      1          6           0        6.770658   -1.232558    0.093678
      2          6           0        5.665677   -0.249181    0.488903
      3          6           0        4.301687   -0.600290   -0.114648
      4          6           0        3.189233    0.378981    0.277475
      5          6           0        1.833639    0.014580   -0.337246
      6          6           0        0.667298    0.898411    0.111934
      7          6           0        0.782085    2.348237   -0.366214
      8          8           0       -0.508092    0.270704   -0.399717
      9          6           0       -1.708994    0.674640    0.178806
     10          6           0       -2.835715   -0.286598   -0.201873
     11          8           0       -2.632575   -1.328978   -0.772100
     12          6           0       -4.231412    0.180194    0.196691
     13          6           0       -5.287464   -0.924479    0.138135
     14          6           0       -6.694199   -0.417880    0.463494
     15          1           0        7.731475   -0.956155    0.539225
     16          1           0        6.904029   -1.261907   -0.993544
     17          1           0        6.531393   -2.249912    0.422919
     18          1           0        5.949044    0.765150    0.177388
     19          1           0        5.579067   -0.215467    1.583232
     20          1           0        4.017295   -1.615469    0.195056
     21          1           0        4.386808   -0.633101   -1.209810
     22          1           0        3.484226    1.391627   -0.026460
     23          1           0        3.100379    0.404147    1.373004
     24          1           0        1.575159   -1.017928   -0.075943
     25          1           0        1.894542    0.048645   -1.432674
     26          1           0        0.618501    0.888255    1.215636
     27          1           0        0.824203    2.382270   -1.459789
     28          1           0        1.685442    2.819499    0.031219
     29          1           0       -0.069907    2.950335   -0.036610
     30          1           0       -2.010358    1.694777   -0.117251
     31          1           0       -1.648210    0.685506    1.284034
     32          1           0       -4.502101    1.002967   -0.482646
     33          1           0       -4.187689    0.638215    1.194838
     34          1           0       -5.006683   -1.724331    0.833051
     35          1           0       -5.265089   -1.377179   -0.857856
     36          1           0       -6.742922    0.013539    1.469857
     37          1           0       -7.426481   -1.229596    0.415343
     38          1           0       -7.011742    0.357969   -0.242485
 ---------------------------------------------------------------------

 SCF Done:  E(RB3LYP) =  -622.230994592     A.U. after    1 cycles

 The electronic state is 1-A.
 Alpha  occ. eigenvalues --  -19.13804 -19.12507 -10.26403 -10.23557 -10.23249
 Alpha  occ. eigenvalues --  -10.19110 -10.18099 -10.17770 -10.17629 -10.17545
 Alpha  occ. eigenvalues --  -10.17501 -10.17457 -10.17279 -10.16975  -1.04630
 Alpha  occ. eigenvalues --   -1.02452  -0.80813  -0.79516  -0.77862  -0.73852
 Alpha  occ. eigenvalues --   -0.72370  -0.68778  -0.67033  -0.61624  -0.59282
 Alpha  occ. eigenvalues --   -0.57392  -0.56982  -0.52633  -0.50044  -0.48258
 Alpha  occ. eigenvalues --   -0.47686  -0.46838  -0.45672  -0.44255  -0.43588
 Alpha  occ. eigenvalues --   -0.42545  -0.41266  -0.40820  -0.40173  -0.39550
 Alpha  occ. eigenvalues --   -0.39143  -0.38155  -0.36559  -0.35800  -0.35314
 Alpha  occ. eigenvalues --   -0.34750  -0.34498  -0.33938  -0.33068  -0.32693
 Alpha  occ. eigenvalues --   -0.32511  -0.31959  -0.31797  -0.30257  -0.25643
 Alpha  occ. eigenvalues --   -0.23968
 Alpha virt. eigenvalues --   -0.00607   0.07459   0.08926   0.09573   0.10805
 Alpha virt. eigenvalues --    0.11329   0.11505   0.12715   0.13487   0.13712
 Alpha virt. eigenvalues --    0.14664   0.15322   0.15594   0.15923   0.16493

 Mulliken charges:
               1
     1  C   -0.378990
     2  C   -0.165657
     3  C   -0.156999
     4  C   -0.192192
     5  C   -0.196675
     6  C    0.140130
     7  C   -0.402677
     8  O   -0.241659
     9  C   -0.166621
    10  C    0.349294
    11  O   -0.281290
    12  C   -0.289953
    13  C   -0.159576
    14  C   -0.386636
    15  H    0.109745
    16  H    0.113496
    17  H    0.113820
    18  H    0.092490
    19  H    0.092679
    20  H    0.094206
    21  H    0.093383
    22  H    0.095074
    23  H    0.090622
    24  H    0.108153
    25  H    0.101828
    26  H    0.060118
    27  H    0.124104
    28  H    0.121229
    29  H    0.112478
    30  H    0.101955
    31  H    0.103071
    32  H    0.124353
    33  H    0.108957
    34  H    0.106386
    35  H    0.120697
    36  H    0.111378
    37  H    0.116236
    38  H    0.113045
 Sum of Mulliken charges =  -0.00000

 Dipole moment (field-independent basis, Debye):
    X=             -0.1345    Y=              2.6445    Z=              1.7679  Tot=              3.1839
 Quadrupole moment (field-independent basis, Debye-Ang):
   XX=            -82.6354   YY=            -91.0650   ZZ=            -89.0754
   XY=             -4.4582   XZ=             -3.1085   YZ=             -2.5183

  Exact polarizability: 182.298  -1.467 127.473  -1.415   2.987 114.495
 Approx polarizability: 191.879  -1.397 193.450  -1.835   8.986 183.000

                      1                      2                      3
                      A                      A                      A
 Frequencies --     20.5664                21.9487                36.9824
 Red. masses --      4.1092                 2.5153                 2.7358
 Frc consts  --      0.0010                 0.0007                 0.0022
 IR Inten    --      0.6102                 1.6193                 0.2340

                      4                      5                      6
                      A                      A                      A
 Frequencies --     43.2889                57.3750                62.8608
 Red. masses --      1.8059                 2.8698                 2.4198
 Frc consts  --      0.0020                 0.0056                 0.0056
 IR Inten    --      0.1306                 0.2909                 0.5512

                      7                      8                      9
                      A                      A                      A
 Frequencies --     86.4108               107.6580               118.6743
 Red. masses --      3.2359                 3.2055                 2.4767
 Frc consts  --      0.0142                 0.0219                 0.0206
 IR Inten    --      1.1011                 1.4554                 0.8346

                     10                     11                     12
                      A                      A                      A
 Frequencies --    129.4619               140.0325               177.3577
 Red. masses --      1.7200                 2.1582                 3.2762
 Frc consts  --      0.0170                 0.0249                 0.0607
 IR Inten    --      0.1662                 0.5621                 2.7595

                     13                     14                     15
                      A                      A                      A
 Frequencies --    204.6392               234.9309               245.3925
 Red. masses --      3.9132                 1.2317                 1.2185
 Frc consts  --      0.0966                 0.0401                 0.0432
 IR Inten    --      0.1918                 0.6205                 0.5123

                     16                     17                     18
                      A                      A                      A
 Frequencies --    247.8045               253.4634               284.5210
 Red. masses --      1.1335                 2.3163                 3.6816
 Frc consts  --      0.0410                 0.0877                 0.1756
 IR Inten    --      0.0438                 2.7960                 1.7016

                     19                     20                     21
                      A                      A                      A
 Frequencies --    339.4111               369.3415               402.4663
 Red. masses --      3.9274                 2.8897                 3.0079
 Frc consts  --      0.2666                 0.2322                 0.2871
 IR Inten    --      3.6017                 0.2195                 0.0879

                     22                     23                     24
                      A                      A                      A
 Frequencies --    444.4649               476.1926               501.4259
 Red. masses --      2.6223                 2.2352                 2.9234
 Frc consts  --      0.3052                 0.2986                 0.4331
 IR Inten    --      2.1535                 3.0062                 0.6767

                     25                     26                     27
                      A                      A                      A
 Frequencies --    534.9086               699.0677               724.4520
 Red. masses --      3.0238                 4.2541                 1.1695
 Frc consts  --      0.5098                 1.2249                 0.3616
 IR Inten    --      0.5689                12.6683                 4.4560

                     28                     29                     30
                      A                      A                      A
 Frequencies --    733.1665               758.0277               819.4780
 Red. masses --      1.0689                 1.1438                 1.5872
 Frc consts  --      0.3385                 0.3872                 0.6280
 IR Inten    --      3.6428                 0.0683                 1.2599

                     31                     32                     33
                      A                      A                      A
 Frequencies --    832.6943               856.5755               887.3991
 Red. masses --      1.4298                 1.6060                 2.2119
 Frc consts  --      0.5841                 0.6943                 1.0263
 IR Inten    --      0.2129                 0.9784                 5.6278

                     34                     35                     36
                      A                      A                      A
 Frequencies --    901.9026               904.6435               941.1139
 Red. masses --      2.6599                 2.0065                 1.5760
 Frc consts  --      1.2748                 0.9675                 0.8224
 IR Inten    --      5.4982                 4.9528                 5.1239

                     37                     38                     39
                      A                      A                      A
 Frequencies --    952.0783               965.3226              1005.2516
 Red. masses --      1.5455                 1.4227                 3.3073
 Frc consts  --      0.8254                 0.7811                 1.9691
 IR Inten    --      5.8981                 0.8587                 2.8970

                     40                     41                     42
                      A                      A                      A
 Frequencies --   1027.4231              1039.6898              1051.7418
 Red. masses --      1.2938                 2.0271                 2.5762
 Frc consts  --      0.8046                 1.2910                 1.6790
 IR Inten    --      2.6707                91.9485                 0.9144

                     43                     44                     45
                      A                      A                      A
 Frequencies --   1054.0929              1066.7023              1092.6849
 Red. masses --      2.6820                 2.4267                 2.3579
 Frc consts  --      1.7557                 1.6268                 1.6587
 IR Inten    --      2.3976                17.7519                47.4720

                     46                     47                     48
                      A                      A                      A
 Frequencies --   1124.9274              1134.2739              1141.2857
 Red. masses --      1.8668                 2.0624                 2.3926
 Frc consts  --      1.3919                 1.5634                 1.8361
 IR Inten    --      3.8002                 9.0823               115.5698

                     49                     50                     51
                      A                      A                      A
 Frequencies --   1151.6538              1182.6332              1203.7703
 Red. masses --      2.6444                 3.9159                 2.2576
 Frc consts  --      2.0664                 3.2269                 1.9275
 IR Inten    --      7.9647               108.3261                37.4825

                     52                     53                     54
                      A                      A                      A
 Frequencies --   1238.2805              1240.0919              1260.8542
 Red. masses --      1.3476                 1.4740                 1.2821
 Frc consts  --      1.2174                 1.3356                 1.2009
 IR Inten    --      4.2477                 7.0046                 2.7823

                     55                     56                     57
                      A                      A                      A
 Frequencies --   1270.0855              1293.1378              1310.4147
 Red. masses --      1.1787                 1.2685                 1.3440
 Frc consts  --      1.1202                 1.2498                 1.3598
 IR Inten    --      1.6289                 3.4359                12.3669

                     58                     59                     60
                      A                      A                      A
 Frequencies --   1323.9034              1330.0379              1330.5303
 Red. masses --      1.2435                 1.1676                 1.1491
 Frc consts  --      1.2842                 1.2169                 1.1985
 IR Inten    --      1.1833                 2.3539                 0.3109

                     61                     62                     63
                      A                      A                      A
 Frequencies --   1331.9007              1362.9782              1377.1636
 Red. masses --      1.0726                 1.2988                 1.3315
 Frc consts  --      1.1210                 1.4216                 1.4879
 IR Inten    --      0.7953                25.1038                 6.5307

                     64                     65                     66
                      A                      A                      A
 Frequencies --   1388.1631              1393.5600              1400.6954
 Red. masses --      1.4981                 1.6300                 1.6155
 Frc consts  --      1.7008                 1.8650                 1.8674
 IR Inten    --      8.5294                 9.5143                 0.1794

                     67                     68                     69
                      A                      A                      A
 Frequencies --   1407.3972              1413.5645              1414.2819
 Red. masses --      1.2981                 1.2528                 1.2565
 Frc consts  --      1.5150                 1.4749                 1.4808
 IR Inten    --     20.2319                 1.4438                 1.4570

                     70                     71                     72
                      A                      A                      A
 Frequencies --   1417.4628              1452.8741              1479.2063
 Red. masses --      1.4901                 1.0868                 1.0706
 Frc consts  --      1.7639                 1.3516                 1.3802
 IR Inten    --     22.6409                 5.1549                 1.8116

                     73                     74                     75
                      A                      A                      A
 Frequencies --   1483.7751              1486.5683              1488.3989
 Red. masses --      1.0696                 1.0872                 1.0567
 Frc consts  --      1.3875                 1.4156                 1.3793
 IR Inten    --      1.1139                 7.0885                 1.8965

                     76                     77                     78
                      A                      A                      A
 Frequencies --   1491.4468              1494.0174              1499.8555
 Red. masses --      1.0761                 1.0613                 1.0403
 Frc consts  --      1.4104                 1.3957                 1.3788
 IR Inten    --      0.8560                 1.6736                 4.8539

                     79                     80                     81
                      A                      A                      A
 Frequencies --   1500.5154              1501.8127              1507.1920
 Red. masses --      1.0406                 1.0719                 1.0812
 Frc consts  --      1.3804                 1.4245                 1.4471
 IR Inten    --      5.3954                 3.7596                 1.8686

                     82                     83                     84
                      A                      A                      A
 Frequencies --   1508.3196              1514.8461              1828.8767
 Red. masses --      1.0757                 1.0938                11.4001
 Frc consts  --      1.4418                 1.4788                22.4661
 IR Inten    --      4.1071                 4.1918               112.9447

                     85                     86                     87
                      A                      A                      A
 Frequencies --   2928.3840              2940.1541              2961.9566
 Red. masses --      1.0633                 1.0813                 1.0910
 Frc consts  --      5.3722                 5.5072                 5.6396
 IR Inten    --     35.8765                51.5249                29.3991

                     88                     89                     90
                      A                      A                      A
 Frequencies --   3001.8027              3002.4695              3005.1070
 Red. masses --      1.0590                 1.0619                 1.0595
 Frc consts  --      5.6221                 5.6404                 5.6372
 IR Inten    --      0.7824                13.7254                 3.6685

                     91                     92                     93
                      A                      A                      A
 Frequencies --   3014.9580              3025.4213              3026.9726
 Red. masses --      1.0608                 1.0964                 1.0372
 Frc consts  --      5.6812                 5.9128                 5.5990
 IR Inten    --     49.7533                 0.7737                28.4445

                     94                     95                     96
                      A                      A                      A
 Frequencies --   3028.1839              3029.4040              3033.1270
 Red. masses --      1.0423                 1.0538                 1.0936
 Frc consts  --      5.6311                 5.6982                 5.9276
 IR Inten    --     16.7983                65.1213                14.9723

                     97                     98                     99
                      A                      A                      A
 Frequencies --   3037.3641              3040.6391              3045.8910
 Red. masses --      1.0821                 1.0521                 1.0650
 Frc consts  --      5.8818                 5.7310                 5.8212
 IR Inten    --      2.3867                 9.0451                19.9618

                    100                    101                    102
                      A                      A                      A
 Frequencies --   3056.5183              3076.7567              3077.1921
 Red. masses --      1.1038                 1.0982                 1.1030
 Frc consts  --      6.0757                 6.1254                 6.1539
 IR Inten    --     30.1187                 1.4986                57.0183

                    103                    104                    105
                      A                      A                      A
 Frequencies --   3094.8835              3099.9691              3100.5739
 Red. masses --      1.1020                 1.1010                 1.1025
 Frc consts  --      6.2190                 6.2339                 6.2449
 IR Inten    --     59.4002                39.2594                49.4799

                    106                    107                    108
                      A                      A                      A
 Frequencies --   3103.0371              3108.6535              3116.6219
 Red. masses --      1.0998                 1.1012                 1.1008
 Frc consts  --      6.2396                 6.2698                 6.2995
 IR Inten    --     38.8381                35.9985                25.3069

 - Thermochemistry -
 -------------------
 Temperature   298.150 Kelvin.  Pressure   1.00000 Atm.
 Atom     1 has atomic number  6 and mass  12.00000

 Molecular mass:   200.17763 amu.
 Principal axes and moments of inertia in atomic units:
                           1         2         3
     Eigenvalues --   864.71412********************
           X            0.99998  -0.00471  -0.00281
           Y            0.00468   0.99994  -0.01036
           Z            0.00286   0.01035   0.99994
 This molecule is an asymmetric top.
 Rotational symmetry number  1.
 Warning -- assumption of classical behavior for rotation
           may cause significant error
 Rotational temperatures (Kelvin)      0.10016     0.00747     0.00713
 Rotational constants (GHZ):           2.08710     0.15573     0.14864
 Zero-point vibrational energy     900141.3 (Joules/Mol)
                                  215.13895 (Kcal/Mol)
 Warning -- explicit consideration of  25 degrees of freedom as
           vibrations may cause significant error
 Vibrational temperatures:     29.59    31.58    53.21    62.28    82.55
          (Kelvin)             90.44   124.33   154.90   170.75   186.27
                              201.48   255.18   294.43   338.01   353.07
                              356.54   364.68   409.36   488.34   531.40
                              579.06   639.49   685.13   721.44   769.61
                             1005.80  1042.32  1054.86  1090.63  1179.05
                             1198.06  1232.42  1276.77  1297.64  1301.58
                             1354.05  1369.83  1388.88  1446.33  1478.23
                             1495.88  1513.22  1516.60  1534.75  1572.13
                             1618.52  1631.97  1642.06  1656.97  1701.55
                             1731.96  1781.61  1784.22  1814.09  1827.37
                             1860.54  1885.39  1904.80  1913.63  1914.34
                             1916.31  1961.02  1981.43  1997.26  2005.02
                             2015.29  2024.93  2033.80  2034.84  2039.41
                             2090.36  2128.25  2134.82  2138.84  2141.47
                             2145.86  2149.56  2157.96  2158.91  2160.77
                             2168.51  2170.14  2179.53  2631.35  4213.29
                             4230.23  4261.59  4318.92  4319.88  4323.68
                             4337.85  4352.91  4355.14  4356.88  4358.64
                             4363.99  4370.09  4374.80  4382.36  4397.65
                             4426.77  4427.39  4452.85  4460.16  4461.03
                             4464.58  4472.66  4484.12

 Zero-point correction=                           0.342846 (Hartree/Particle)
 Thermal correction to Energy=                    0.361345
 Thermal correction to Enthalpy=                  0.362289
 Thermal correction to Gibbs Free Energy=         0.292818
 Sum of electronic and zero-point Energies=           -621.888149
 Sum of electronic and thermal Energies=              -621.869650
 Sum of electronic and thermal Enthalpies=            -621.868706
 Sum of electronic and thermal Free Energies=         -621.938177

                     E (Thermal)             CV                S
                      KCal/Mol        Cal/Mol-Kelvin    Cal/Mol-Kelvin
 Total                  226.747             64.607            146.213
 Electronic               0.000              0.000              0.000
 Translational            0.889              2.981             41.787
 Rotational               0.889              2.981             33.164
 Vibrational            224.970             58.646             71.262
 Vibration     1          0.593              1.986              6.579
 Vibration     2          0.593              1.985              6.450
 Vibration     3          0.594              1.982              5.415
 Vibration     4          0.595              1.980              5.103
 Vibration     5          0.596              1.975              4.545
 Vibration     6          0.597              1.972              4.365
 Vibration     7          0.601              1.959              3.740
 Vibration     8          0.606              1.943              3.311
 Vibration     9          0.609              1.934              3.122
 Vibration    10          0.612              1.924              2.954
 Vibration    11          0.615              1.913              2.803
 Vibration    12          0.628              1.870              2.356
 Vibration    13          0.640              1.833              2.091
 Vibration    14          0.655              1.787              1.841
 Vibration    15          0.660              1.770              1.763
 Vibration    16          0.661              1.766              1.746
 Vibration    17          0.665              1.757              1.706
 Vibration    18          0.683              1.702              1.506
 Vibration    19          0.719              1.597              1.215
 Vibration    20          0.742              1.535              1.083
 Vibration    21          0.768              1.465              0.954
 Vibration    22          0.804              1.373              0.813
 Vibration    23          0.833              1.303              0.720
 Vibration    24          0.857              1.247              0.655
 Vibration    25          0.890              1.173              0.576

 Optimization completed.
    -- Stationary point found.
 Normal termination of Gaussian 16 at Mon May 22 11:49:06 2023.
