 Gaussian 16, Revision A.03,
 Gaussian 16:  ES64L-G16RevA.03 25-Dec-2016

 -----------------------------
 # opt freq b3lyp/6-31g(2df,p)
 -----------------------------

 -------------------
 Title Card Required
 -------------------
 Symbolic Z-matrix:
 Charge =  0 Multiplicity = 1

 SCF Done:  E(RB3LYP) =  -622.202838279     A.U. after   12 cycles
 SCF Done:  E(RB3LYP) =  -622.214126722     A.U. after   11 cycles
 SCF Done:  E(RB3LYP) =  -622.217858024     A.U. after   10 cycles
 SCF Done:  E(RB3LYP) =  -622.219114914     A.U. after   11 cycles
 SCF Done:  E(RB3LYP) =  -622.220237292     A.U. after   10 cycles
 SCF Done:  E(RB3LYP) =  -622.221090172     A.U. after   11 cycles
 SCF Done:  E(RB3LYP) =  -622.221721315     A.U. after   11 cycles
 SCF Done:  E(RB3LYP) =  -622.221825582     A.U. after   11 cycles
 SCF Done:  E(RB3LYP) =  -622.222420116     A.U. after   11 cycles
 SCF Done:  E(RB3LYP) =  -622.222461600     A.U. after    9 cycles
 SCF Done:  E(RB3LYP) =  -622.222752759     A.U. after    9 cycles
 SCF Done:  E(RB3LYP) =  -622.222753408     A.U. after    6 cycles
 SCF Done:  E(RB3LYP) =  -622.222754877     A.U. after    7 cycles
 SCF Done:  E(RB3LYP) =  -622.222755781     A.U. after    8 cycles
 SCF Done:  E(RB3LYP) =  -622.222758305     A.U. after    8 cycles
 SCF Done:  E(RB3LYP) =  -622.222759798     A.U. after    8 cycles
 SCF Done:  E(RB3LYP) =  -622.222760447     A.U. after    8 cycles
 SCF Done:  E(RB3LYP) =  -622.222760520     A.U. after    6 cycles
 SCF Done:  E(RB3LYP) =  -622.222760521     A.U. after    5 cycles
 Optimization completed.
    -- Stationary point found.
 Normal termination of Gaussian 16 at Wed May 24 23:26:18 2023.

 ----------------------------------------------------------------------
 #N Geom=AllCheck Guess=TCheck SCRF=Check GenChk RB3LYP/6-31G(2df,p) Fr
 eq
 ----------------------------------------------------------------------

 Structure from the checkpoint file:  "CCCCqOCrOCqCrC1CCCC1.chk"
 -------------------
 Title Card Required
 -------------------
 Charge =  0 Multiplicity = 1

                         Standard orientation:
 ---------------------------------------------------------------------
 Center     Atomic      Atomic             Coordinates (Angstroms)
 Number     Number       Type             X           Y           Z
 ---------------------------------------------------------------------
      1          6           0       -4.097882   -2.357206    0.387877
      2          6           0       -3.401413   -1.105643   -0.153236
      3          6           0       -1.966479   -0.959869    0.358905
      4          6           0       -1.254806    0.283587   -0.165526
      5          8           0       -1.952000    1.441251    0.274957
      6          6           0       -2.329316    2.358389   -0.732563
      7          8           0        0.049753    0.240268    0.333912
      8          6           0        0.985324    1.205116   -0.162772
      9          6           0        1.065657    2.409111    0.778074
     10          6           0        2.336611    0.497112   -0.343860
     11          6           0        2.901167   -0.121291    0.964784
     12          6           0        3.620764   -1.403518    0.518452
     13          6           0        2.703965   -1.943876   -0.588748
     14          6           0        2.283000   -0.680497   -1.367435
     15          1           0       -5.122144   -2.437876    0.010669
     16          1           0       -4.146142   -2.339612    1.482267
     17          1           0       -3.562666   -3.267926    0.096653
     18          1           0       -3.970492   -0.213462    0.130238
     19          1           0       -3.398690   -1.137422   -1.251563
     20          1           0       -1.368770   -1.834904    0.079512
     21          1           0       -1.958397   -0.902302    1.453706
     22          1           0       -1.233045    0.290432   -1.270668
     23          1           0       -2.890833    3.156605   -0.240245
     24          1           0       -2.976048    1.894909   -1.490737
     25          1           0       -1.462124    2.804151   -1.240554
     26          1           0        0.645696    1.542691   -1.154804
     27          1           0        1.402600    2.095506    1.770256
     28          1           0        0.086089    2.876306    0.890327
     29          1           0        1.773523    3.151436    0.393595
     30          1           0        3.035346    1.257499   -0.711947
     31          1           0        2.069803   -0.383965    1.627136
     32          1           0        3.552619    0.567517    1.509707
     33          1           0        3.777939   -2.112713    1.336827
     34          1           0        4.607755   -1.160815    0.103165
     35          1           0        1.822106   -2.409375   -0.133618
     36          1           0        3.182268   -2.696312   -1.222732
     37          1           0        1.289990   -0.788235   -1.812452
     38          1           0        2.982037   -0.492774   -2.189394
 ---------------------------------------------------------------------

 SCF Done:  E(RB3LYP) =  -622.222760521     A.U. after    1 cycles

 The electronic state is 1-A.
 Alpha  occ. eigenvalues --  -19.13834 -19.13448 -10.27141 -10.22662 -10.22628
 Alpha  occ. eigenvalues --  -10.17653 -10.17576 -10.17194 -10.17023 -10.16860
 Alpha  occ. eigenvalues --  -10.16852 -10.16771 -10.16550 -10.16415  -1.05747
 Alpha  occ. eigenvalues --   -1.00136  -0.82778  -0.79175  -0.76075  -0.71576
 Alpha  occ. eigenvalues --   -0.69826  -0.68683  -0.67587  -0.62304  -0.59438
 Alpha  occ. eigenvalues --   -0.57738  -0.56032  -0.54112  -0.50510  -0.49802
 Alpha  occ. eigenvalues --   -0.47653  -0.46858  -0.45287  -0.44660  -0.42949
 Alpha  occ. eigenvalues --   -0.42003  -0.41033  -0.40926  -0.39969  -0.39315
 Alpha  occ. eigenvalues --   -0.38146  -0.37461  -0.36608  -0.35297  -0.33291
 Alpha  occ. eigenvalues --   -0.33027  -0.32762  -0.32463  -0.32199  -0.31891
 Alpha  occ. eigenvalues --   -0.31271  -0.30808  -0.30568  -0.29600  -0.26992
 Alpha  occ. eigenvalues --   -0.24909
 Alpha virt. eigenvalues --    0.07487   0.08903   0.09138   0.10056   0.11642
 Alpha virt. eigenvalues --    0.12006   0.13363   0.13913   0.14153   0.14785
 Alpha virt. eigenvalues --    0.15537   0.15706   0.15980   0.16569   0.17254

 Mulliken charges:
               1
     1  C   -0.380657
     2  C   -0.170360
     3  C   -0.198322
     4  C    0.197419
     5  O   -0.244624
     6  C   -0.242167
     7  O   -0.258540
     8  C    0.095315
     9  C   -0.401534
    10  C    0.046388
    11  C   -0.210898
    12  C   -0.203164
    13  C   -0.188787
    14  C   -0.224973
    15  H    0.109715
    16  H    0.116407
    17  H    0.112836
    18  H    0.109452
    19  H    0.087492
    20  H    0.100760
    21  H    0.111481
    22  H    0.051499
    23  H    0.128971
    24  H    0.111981
    25  H    0.109585
    26  H    0.060969
    27  H    0.124983
    28  H    0.130248
    29  H    0.103459
    30  H    0.062286
    31  H    0.116607
    32  H    0.086945
    33  H    0.089369
    34  H    0.089624
    35  H    0.103323
    36  H    0.085539
    37  H    0.091564
    38  H    0.089808
 Sum of Mulliken charges =  -0.00000

 Dipole moment (field-independent basis, Debye):
    X=             -0.2183    Y=              0.6221    Z=             -1.5211  Tot=              1.6578
 Quadrupole moment (field-independent basis, Debye-Ang):
   XX=            -87.1400   YY=            -87.0780   ZZ=            -89.2285
   XY=              0.1686   XZ=              1.8098   YZ=             -2.2790

  Exact polarizability: 153.326  -0.821 140.424   2.599  -0.149 117.650
 Approx polarizability: 190.345  -0.884 187.169   0.840  -1.752 183.702

                      1                      2                      3
                      A                      A                      A
 Frequencies --     22.4266                26.6919                33.1363
 Red. masses --      2.7207                 1.9482                 3.1472
 Frc consts  --      0.0008                 0.0008                 0.0020
 IR Inten    --      0.1854                 2.1157                 0.0514

                      4                      5                      6
                      A                      A                      A
 Frequencies --     56.3058                69.9821                85.2412
 Red. masses --      3.1179                 2.8298                 1.7357
 Frc consts  --      0.0058                 0.0082                 0.0074
 IR Inten    --      0.7314                 0.0302                 0.0738

                      7                      8                      9
                      A                      A                      A
 Frequencies --    104.3858               121.4304               151.4533
 Red. masses --      2.8096                 1.9573                 1.6258
 Frc consts  --      0.0180                 0.0170                 0.0220
 IR Inten    --      0.4340                 0.6973                 1.2884

                     10                     11                     12
                      A                      A                      A
 Frequencies --    195.0378               212.4489               216.8609
 Red. masses --      2.9506                 1.7246                 1.5042
 Frc consts  --      0.0661                 0.0459                 0.0417
 IR Inten    --      2.2732                 2.3286                 0.1043

                     13                     14                     15
                      A                      A                      A
 Frequencies --    248.4327               256.4069               270.7239
 Red. masses --      1.1642                 2.4267                 1.8852
 Frc consts  --      0.0423                 0.0940                 0.0814
 IR Inten    --      0.3435                 1.7786                 0.5673

                     16                     17                     18
                      A                      A                      A
 Frequencies --    291.4150               333.2422               348.1513
 Red. masses --      3.1703                 2.8644                 3.1811
 Frc consts  --      0.1586                 0.1874                 0.2272
 IR Inten    --      2.3687                 1.9769                 1.0547

                     19                     20                     21
                      A                      A                      A
 Frequencies --    398.1903               459.9535               526.4231
 Red. masses --      3.2668                 2.9732                 2.6960
 Frc consts  --      0.3052                 0.3706                 0.4402
 IR Inten    --      0.9331                 1.0367                 6.0433

                     22                     23                     24
                      A                      A                      A
 Frequencies --    544.9196               559.2909               620.7724
 Red. masses --      2.6295                 2.3141                 2.4806
 Frc consts  --      0.4600                 0.4265                 0.5632
 IR Inten    --      7.0141                 0.9637                 0.2986

                     25                     26                     27
                      A                      A                      A
 Frequencies --    671.9117               746.6753               755.0498
 Red. masses --      3.5875                 1.1654                 1.8433
 Frc consts  --      0.9543                 0.3828                 0.6192
 IR Inten    --      1.5170                 0.5063                 1.1750

                     28                     29                     30
                      A                      A                      A
 Frequencies --    831.5742               839.3037               868.2820
 Red. masses --      1.6875                 1.9347                 2.0242
 Frc consts  --      0.6875                 0.8030                 0.8991
 IR Inten    --     25.9086                 1.7707                 0.1722

                     31                     32                     33
                      A                      A                      A
 Frequencies --    872.5752               911.9648               920.7688
 Red. masses --      2.4193                 2.3536                 1.8545
 Frc consts  --      1.0853                 1.1533                 0.9263
 IR Inten    --      3.7280                 0.6706                 2.4551

                     34                     35                     36
                      A                      A                      A
 Frequencies --    923.6689               934.7304               954.6491
 Red. masses --      1.8628                 1.5912                 1.6083
 Frc consts  --      0.9364                 0.8191                 0.8636
 IR Inten    --      3.4084                32.0314                 2.9799

                     37                     38                     39
                      A                      A                      A
 Frequencies --    973.9638              1015.4457              1029.2293
 Red. masses --      1.8718                 1.5080                 2.2602
 Frc consts  --      1.0461                 0.9161                 1.4106
 IR Inten    --      3.9255                 4.6084                 8.8599

                     40                     41                     42
                      A                      A                      A
 Frequencies --   1033.8604              1042.1079              1060.2267
 Red. masses --      2.0892                 1.9119                 2.0239
 Frc consts  --      1.3157                 1.2233                 1.3404
 IR Inten    --     14.4039                 4.7467                 1.3781

                     43                     44                     45
                      A                      A                      A
 Frequencies --   1073.2297              1098.0609              1126.6293
 Red. masses --      2.3016                 6.5076                 2.0599
 Frc consts  --      1.5619                 4.6230                 1.5405
 IR Inten    --     12.1712               297.6602                31.7246

                     46                     47                     48
                      A                      A                      A
 Frequencies --   1132.8826              1142.6029              1163.0637
 Red. masses --      2.8299                 2.0303                 2.4152
 Frc consts  --      2.1399                 1.5617                 1.9249
 IR Inten    --     63.4862                21.0999                79.8554

                     49                     50                     51
                      A                      A                      A
 Frequencies --   1166.8307              1178.8606              1188.9704
 Red. masses --      1.7455                 1.2779                 2.0169
 Frc consts  --      1.4002                 1.0463                 1.6799
 IR Inten    --     12.4744                 5.8623                43.1635

                     52                     53                     54
                      A                      A                      A
 Frequencies --   1192.0087              1223.9295              1244.9181
 Red. masses --      1.6513                 1.6564                 1.3988
 Frc consts  --      1.3824                 1.4619                 1.2773
 IR Inten    --     12.3761                13.3467                 0.4839

                     55                     56                     57
                      A                      A                      A
 Frequencies --   1259.5438              1268.4450              1289.4356
 Red. masses --      1.2877                 1.4014                 1.3002
 Frc consts  --      1.2036                 1.3285                 1.2737
 IR Inten    --      2.4882                 5.1828                 5.0580

                     58                     59                     60
                      A                      A                      A
 Frequencies --   1306.9934              1319.5653              1322.4375
 Red. masses --      1.3096                 1.2008                 1.0923
 Frc consts  --      1.3180                 1.2319                 1.1254
 IR Inten    --      2.8015                 1.0894                 2.1357

                     61                     62                     63
                      A                      A                      A
 Frequencies --   1331.9171              1333.6142              1347.5368
 Red. masses --      1.3040                 1.4093                 1.2777
 Frc consts  --      1.3630                 1.4768                 1.3670
 IR Inten    --      0.5375                 9.7034                 1.3586

                     64                     65                     66
                      A                      A                      A
 Frequencies --   1355.0593              1368.2601              1374.3114
 Red. masses --      1.2725                 1.4625                 1.5507
 Frc consts  --      1.3766                 1.6132                 1.7256
 IR Inten    --     26.1431                 2.4811                 6.7865

                     67                     68                     69
                      A                      A                      A
 Frequencies --   1389.7479              1402.7654              1407.8683
 Red. masses --      1.3780                 1.3374                 1.3418
 Frc consts  --      1.5681                 1.5505                 1.5670
 IR Inten    --     18.9900                28.7223                16.6075

                     70                     71                     72
                      A                      A                      A
 Frequencies --   1412.9093              1424.4242              1475.3981
 Red. masses --      1.2283                 1.2922                 1.0866
 Frc consts  --      1.4447                 1.5448                 1.3936
 IR Inten    --      1.0130                 3.0206                 2.2952

                     73                     74                     75
                      A                      A                      A
 Frequencies --   1480.1741              1483.0313              1486.0134
 Red. masses --      1.0984                 1.0884                 1.0841
 Frc consts  --      1.4179                 1.4103                 1.4105
 IR Inten    --      2.0487                 1.0390                 1.7469

                     76                     77                     78
                      A                      A                      A
 Frequencies --   1489.3712              1491.2658              1492.2504
 Red. masses --      1.0921                 1.0495                 1.0848
 Frc consts  --      1.4273                 1.3751                 1.4232
 IR Inten    --      2.3162                 1.1891                 1.9861

                     79                     80                     81
                      A                      A                      A
 Frequencies --   1495.0898              1499.8708              1501.5277
 Red. masses --      1.0506                 1.0403                 1.0601
 Frc consts  --      1.3837                 1.3789                 1.4082
 IR Inten    --      2.3436                 5.7825                 2.1474

                     82                     83                     84
                      A                      A                      A
 Frequencies --   1509.0860              1511.9046              1513.0830
 Red. masses --      1.0668                 1.1096                 1.0839
 Frc consts  --      1.4315                 1.4943                 1.4621
 IR Inten    --      0.2895                 1.2292                 2.1987

                     85                     86                     87
                      A                      A                      A
 Frequencies --   2929.8700              2970.6298              2989.2124
 Red. masses --      1.0813                 1.0810                 1.0376
 Frc consts  --      5.4687                 5.6202                 5.4623
 IR Inten    --     23.6872                24.6849                63.5544

                     88                     89                     90
                      A                      A                      A
 Frequencies --   3012.3576              3021.0148              3023.6519
 Red. masses --      1.0662                 1.0674                 1.0808
 Frc consts  --      5.7003                 5.7396                 5.8220
 IR Inten    --     26.2987                34.9748                11.1913

                     91                     92                     93
                      A                      A                      A
 Frequencies --   3028.4811              3037.1032              3038.1661
 Red. masses --      1.0362                 1.0614                 1.0614
 Frc consts  --      5.5992                 5.7685                 5.7725
 IR Inten    --     28.9917                20.6891                27.6302

                     94                     95                     96
                      A                      A                      A
 Frequencies --   3040.3920              3041.7636              3045.3573
 Red. masses --      1.1004                 1.0426                 1.0643
 Frc consts  --      5.9931                 5.6834                 5.8155
 IR Inten    --     59.3882                17.0862                46.4780

                     97                     98                     99
                      A                      A                      A
 Frequencies --   3049.8715              3060.1573              3079.9147
 Red. masses --      1.0609                 1.0924                 1.0921
 Frc consts  --      5.8142                 6.0275                 6.1038
 IR Inten    --     20.0473                 3.5846                26.3428

                    100                    101                    102
                      A                      A                      A
 Frequencies --   3081.8231              3083.6544              3092.9582
 Red. masses --      1.0995                 1.1033                 1.1048
 Frc consts  --      6.1525                 6.1812                 6.2269
 IR Inten    --     33.1650                 8.4739                30.8396

                    103                    104                    105
                      A                      A                      A
 Frequencies --   3099.0435              3100.0191              3101.1381
 Red. masses --      1.1025                 1.1054                 1.1009
 Frc consts  --      6.2388                 6.2587                 6.2382
 IR Inten    --     67.1789                75.5376                31.0537

                    106                    107                    108
                      A                      A                      A
 Frequencies --   3110.8637              3111.4311              3141.1430
 Red. masses --      1.0975                 1.0992                 1.0997
 Frc consts  --      6.2578                 6.2696                 6.3930
 IR Inten    --     26.8766                26.7978                19.2451

 - Thermochemistry -
 -------------------
 Temperature   298.150 Kelvin.  Pressure   1.00000 Atm.
 Atom     1 has atomic number  6 and mass  12.00000

 Molecular mass:   200.17763 amu.
 Principal axes and moments of inertia in atomic units:
                           1         2         3
     Eigenvalues --  1973.766944753.739446033.47035
           X            0.99992   0.01232   0.00374
           Y           -0.01229   0.99989  -0.00828
           Z           -0.00385   0.00824   0.99996
 This molecule is an asymmetric top.
 Rotational symmetry number  1.
 Warning -- assumption of classical behavior for rotation
           may cause significant error
 Rotational temperatures (Kelvin)      0.04388     0.01822     0.01436
 Rotational constants (GHZ):           0.91436     0.37965     0.29912
 Zero-point vibrational energy     909785.2 (Joules/Mol)
                                  217.44389 (Kcal/Mol)
 Warning -- explicit consideration of  24 degrees of freedom as
           vibrations may cause significant error
 Vibrational temperatures:     32.27    38.40    47.68    81.01   100.69
          (Kelvin)            122.64   150.19   174.71   217.91   280.62
                              305.67   312.01   357.44   368.91   389.51
                              419.28   479.46   500.91   572.91   661.77
                              757.41   784.02   804.69   893.15   966.73
                             1074.30  1086.35  1196.45  1207.57  1249.26
                             1255.44  1312.11  1324.78  1328.95  1344.87
                             1373.53  1401.32  1461.00  1480.83  1487.49
                             1499.36  1525.43  1544.14  1579.86  1620.97
                             1629.97  1643.95  1673.39  1678.81  1696.12
                             1710.66  1715.03  1760.96  1791.16  1812.20
                             1825.01  1855.21  1880.47  1898.56  1902.69
                             1916.33  1918.77  1938.80  1949.63  1968.62
                             1977.33  1999.54  2018.27  2025.61  2032.86
                             2049.43  2122.77  2129.64  2133.75  2138.04
                             2142.87  2145.60  2147.02  2151.10  2157.98
                             2160.36  2171.24  2175.29  2176.99  4215.43
                             4274.07  4300.81  4334.11  4346.57  4350.36
                             4357.31  4369.71  4371.24  4374.45  4376.42
                             4381.59  4388.08  4402.88  4431.31  4434.06
                             4436.69  4450.08  4458.83  4460.24  4461.85
                             4475.84  4476.66  4519.40

 Zero-point correction=                           0.346519 (Hartree/Particle)
 Thermal correction to Energy=                    0.363460
 Thermal correction to Enthalpy=                  0.364404
 Thermal correction to Gibbs Free Energy=         0.299500
 Sum of electronic and zero-point Energies=           -621.876242
 Sum of electronic and thermal Energies=              -621.859301
 Sum of electronic and thermal Enthalpies=            -621.858356
 Sum of electronic and thermal Free Energies=         -621.923260

                     E (Thermal)             CV                S
                      KCal/Mol        Cal/Mol-Kelvin    Cal/Mol-Kelvin
 Total                  228.075             61.481            136.602
 Electronic               0.000              0.000              0.000
 Translational            0.889              2.981             41.787
 Rotational               0.889              2.981             32.404
 Vibrational            226.297             55.519             62.411
 Vibration     1          0.593              1.985              6.407
 Vibration     2          0.593              1.984              6.061
 Vibration     3          0.594              1.983              5.632
 Vibration     4          0.596              1.975              4.583
 Vibration     5          0.598              1.968              4.154
 Vibration     6          0.601              1.959              3.766
 Vibration     7          0.605              1.946              3.371
 Vibration     8          0.609              1.931              3.077
 Vibration     9          0.619              1.901              2.654
 Vibration    10          0.636              1.847              2.179
 Vibration    11          0.643              1.822              2.023
 Vibration    12          0.646              1.815              1.985
 Vibration    13          0.662              1.765              1.742
 Vibration    14          0.666              1.752              1.686
 Vibration    15          0.674              1.727              1.592
 Vibration    16          0.687              1.690              1.466
 Vibration    17          0.715              1.609              1.244
 Vibration    18          0.726              1.579              1.175
 Vibration    19          0.764              1.474              0.969
 Vibration    20          0.818              1.339              0.766
 Vibration    21          0.881              1.192              0.595
 Vibration    22          0.900              1.151              0.555
 Vibration    23          0.915              1.119              0.525
 Vibration    24          0.981              0.988              0.415

                           ! Non-Optimized Parameters !
 Normal termination of Gaussian 16 at Thu May 25 01:45:43 2023.
