 Gaussian 16, Revision A.03,
 Gaussian 16:  ES64L-G16RevA.03 25-Dec-2016

 -----------------------------
 # opt freq b3lyp/6-31g(2df,p)
 -----------------------------

 -------------------
 Title Card Required
 -------------------
 Symbolic Z-matrix:
 Charge =  0 Multiplicity = 1

 SCF Done:  E(RB3LYP) =  -315.736878424     A.U. after   11 cycles
 SCF Done:  E(RB3LYP) =  -315.739172528     A.U. after   10 cycles
 SCF Done:  E(RB3LYP) =  -315.739496374     A.U. after    8 cycles
 SCF Done:  E(RB3LYP) =  -315.739524526     A.U. after    8 cycles
 SCF Done:  E(RB3LYP) =  -315.739529989     A.U. after    8 cycles
 SCF Done:  E(RB3LYP) =  -315.739530592     A.U. after    6 cycles
 SCF Done:  E(RB3LYP) =  -315.739530660     A.U. after    5 cycles
 Optimization completed.
    -- Stationary point found.
 Normal termination of Gaussian 16 at Sun May 28 02:54:26 2023.

 ----------------------------------------------------------------------
 #N Geom=AllCheck Guess=TCheck SCRF=Check GenChk RB3LYP/6-31G(2df,p) Fr
 eq
 ----------------------------------------------------------------------

 Structure from the checkpoint file:  "CCCCCCqCrC.chk"
 -------------------
 Title Card Required
 -------------------
 Charge =  0 Multiplicity = 1

                         Standard orientation:
 ---------------------------------------------------------------------
 Center     Atomic      Atomic             Coordinates (Angstroms)
 Number     Number       Type             X           Y           Z
 ---------------------------------------------------------------------
      1          6           0       -4.203923   -0.210857    0.168787
      2          6           0       -2.884478    0.439277   -0.256274
      3          6           0       -1.650806   -0.369566    0.158818
      4          6           0       -0.325138    0.273613   -0.263836
      5          6           0        0.902058   -0.543041    0.158269
      6          6           0        2.257327    0.007357   -0.323363
      7          6           0        2.581357    1.382675    0.277570
      8          6           0        3.382385   -0.990705   -0.016637
      9          1           0       -5.065280    0.389056   -0.141654
     10          1           0       -4.254951   -0.327942    1.257160
     11          1           0       -4.315222   -1.206934   -0.274276
     12          1           0       -2.817370    1.447486    0.173970
     13          1           0       -2.877348    0.575662   -1.345983
     14          1           0       -1.718689   -1.379516   -0.269793
     15          1           0       -1.657460   -0.505675    1.249604
     16          1           0       -0.269704    1.284167    0.160338
     17          1           0       -0.317056    0.401945   -1.355684
     18          1           0        0.787810   -1.567623   -0.221836
     19          1           0        0.922144   -0.630535    1.254699
     20          1           0        2.199368    0.122207   -1.416019
     21          1           0        2.624353    1.328478    1.372483
     22          1           0        1.834823    2.136077    0.010414
     23          1           0        3.553976    1.743740   -0.073288
     24          1           0        3.482489   -1.147100    1.064399
     25          1           0        4.347269   -0.630155   -0.388727
     26          1           0        3.188153   -1.965860   -0.475808
 ---------------------------------------------------------------------

 SCF Done:  E(RB3LYP) =  -315.739530660     A.U. after    1 cycles

 The electronic state is 1-A.
 Alpha  occ. eigenvalues --  -10.18089 -10.17430 -10.17201 -10.17157 -10.17057
 Alpha  occ. eigenvalues --  -10.16865 -10.16666 -10.16657  -0.80931  -0.78275
 Alpha  occ. eigenvalues --   -0.73251  -0.67607  -0.66642  -0.60072  -0.57037
 Alpha  occ. eigenvalues --   -0.54991  -0.47262  -0.45085  -0.43535  -0.42474
 Alpha  occ. eigenvalues --   -0.41299  -0.40525  -0.38212  -0.37553  -0.36505
 Alpha  occ. eigenvalues --   -0.35287  -0.34483  -0.33467  -0.32623  -0.31720
 Alpha  occ. eigenvalues --   -0.31297  -0.30989  -0.29583
 Alpha virt. eigenvalues --    0.08613   0.09655   0.11658   0.12127   0.12639
 Alpha virt. eigenvalues --    0.14672   0.15282   0.15408   0.16607   0.16959
 Alpha virt. eigenvalues --    0.17335   0.18607   0.19111   0.19319   0.19825

 Mulliken charges:
               1
     1  C   -0.378901
     2  C   -0.163495
     3  C   -0.156718
     4  C   -0.188341
     5  C   -0.165055
     6  C    0.043687
     7  C   -0.379714
     8  C   -0.387561
     9  H    0.109344
    10  H    0.112296
    11  H    0.112294
    12  H    0.092646
    13  H    0.092600
    14  H    0.089353
    15  H    0.089789
    16  H    0.094733
    17  H    0.089058
    18  H    0.085937
    19  H    0.086659
    20  H    0.068011
    21  H    0.108660
    22  H    0.113187
    23  H    0.107677
    24  H    0.109772
    25  H    0.106699
    26  H    0.107384
 Sum of Mulliken charges =   0.00000

 Dipole moment (field-independent basis, Debye):
    X=             -0.0188    Y=              0.0350    Z=             -0.0806  Tot=              0.0899
 Quadrupole moment (field-independent basis, Debye-Ang):
   XX=            -55.8590   YY=            -55.0086   ZZ=            -54.0594
   XY=             -0.0398   XZ=             -0.0913   YZ=              0.3213

  Exact polarizability: 109.177  -0.223  83.225  -0.130  -0.089  77.760
 Approx polarizability: 121.543   0.234 119.547   0.007   0.375 120.340

                      1                      2                      3
                      A                      A                      A
 Frequencies --     50.4805                60.9074                96.3178
 Red. masses --      1.8166                 2.5043                 2.9798
 Frc consts  --      0.0027                 0.0055                 0.0163
 IR Inten    --      0.0039                 0.0056                 0.0065

                      4                      5                      6
                      A                      A                      A
 Frequencies --    132.1066               137.8615               221.5135
 Red. masses --      1.6507                 2.2006                 1.2808
 Frc consts  --      0.0170                 0.0246                 0.0370
 IR Inten    --      0.0016                 0.0121                 0.0072

                      7                      8                      9
                      A                      A                      A
 Frequencies --    235.7790               246.9247               249.8653
 Red. masses --      1.7521                 1.1713                 1.2116
 Frc consts  --      0.0574                 0.0421                 0.0446
 IR Inten    --      0.0180                 0.0013                 0.0008

                     10                     11                     12
                      A                      A                      A
 Frequencies --    283.8391               371.0159               401.5040
 Red. masses --      2.4094                 2.4562                 2.1923
 Frc consts  --      0.1144                 0.1992                 0.2082
 IR Inten    --      0.0154                 0.0144                 0.0505

                     13                     14                     15
                      A                      A                      A
 Frequencies --    446.6445               491.2743               732.3268
 Red. masses --      2.1114                 2.8096                 1.0701
 Frc consts  --      0.2482                 0.3995                 0.3381
 IR Inten    --      0.1104                 0.4125                 3.4926

                     16                     17                     18
                      A                      A                      A
 Frequencies --    755.8404               815.6551               843.7619
 Red. masses --      1.1490                 2.2790                 1.2999
 Frc consts  --      0.3868                 0.8933                 0.5452
 IR Inten    --      0.1104                 0.5375                 0.6617

                     19                     20                     21
                      A                      A                      A
 Frequencies --    901.1517               926.6055               940.0380
 Red. masses --      1.9320                 1.1916                 1.4430
 Frc consts  --      0.9244                 0.6028                 0.7513
 IR Inten    --      1.9011                 0.7607                 0.8904

                     22                     23                     24
                      A                      A                      A
 Frequencies --    960.8935               969.4220              1010.6770
 Red. masses --      1.4060                 1.5944                 3.8633
 Frc consts  --      0.7649                 0.8828                 2.3251
 IR Inten    --      0.2396                 0.1294                 0.2507

                     25                     26                     27
                      A                      A                      A
 Frequencies --   1043.9543              1057.8234              1068.5609
 Red. masses --      1.2769                 2.3814                 2.2594
 Frc consts  --      0.8199                 1.5701                 1.5200
 IR Inten    --      0.3215                 0.5834                 0.0883

                     28                     29                     30
                      A                      A                      A
 Frequencies --   1102.4528              1161.8228              1192.7677
 Red. masses --      1.9072                 2.4499                 1.7684
 Frc consts  --      1.3657                 1.9484                 1.4823
 IR Inten    --      0.5652                 1.7261                 3.9786

                     31                     32                     33
                      A                      A                      A
 Frequencies --   1205.1734              1241.1458              1264.2452
 Red. masses --      2.0038                 1.5164                 1.2926
 Frc consts  --      1.7148                 1.3763                 1.2172
 IR Inten    --      0.2523                 1.1268                 5.3158

                     34                     35                     36
                      A                      A                      A
 Frequencies --   1298.9259              1323.5970              1331.1368
 Red. masses --      1.2760                 1.2617                 1.0622
 Frc consts  --      1.2684                 1.3023                 1.1089
 IR Inten    --      0.8208                 0.1860                 0.4960

                     37                     38                     39
                      A                      A                      A
 Frequencies --   1332.9732              1361.6237              1371.7005
 Red. masses --      1.1440                 1.3904                 1.3330
 Frc consts  --      1.1977                 1.5188                 1.4778
 IR Inten    --      0.1093                 3.6179                 5.4023

                     40                     41                     42
                      A                      A                      A
 Frequencies --   1393.5713              1398.0812              1402.2760
 Red. masses --      1.4882                 1.4682                 1.3756
 Frc consts  --      1.7028                 1.6908                 1.5937
 IR Inten    --      0.2205                 1.9597                 2.9623

                     43                     44                     45
                      A                      A                      A
 Frequencies --   1413.2485              1422.0017              1477.4174
 Red. masses --      1.2504                 1.2446                 1.0745
 Frc consts  --      1.4714                 1.4828                 1.3818
 IR Inten    --      0.5991                 2.9556                 0.2408

                     46                     47                     48
                      A                      A                      A
 Frequencies --   1483.4229              1488.6217              1490.1386
 Red. masses --      1.0700                 1.0519                 1.0594
 Frc consts  --      1.3873                 1.3733                 1.3860
 IR Inten    --      0.1923                 0.3160                 0.5853

                     49                     50                     51
                      A                      A                      A
 Frequencies --   1495.7736              1499.8751              1503.8241
 Red. masses --      1.0593                 1.0403                 1.0796
 Frc consts  --      1.3964                 1.3788                 1.4384
 IR Inten    --      1.3864                 4.6632                 0.1690

                     52                     53                     54
                      A                      A                      A
 Frequencies --   1505.1200              1511.1356              1514.4991
 Red. masses --      1.0545                 1.0550                 1.0875
 Frc consts  --      1.4075                 1.4194                 1.4697
 IR Inten    --      3.0708                 5.6602                 5.3202

                     55                     56                     57
                      A                      A                      A
 Frequencies --   2989.2280              2996.3835              2999.4636
 Red. masses --      1.0772                 1.0629                 1.0584
 Frc consts  --      5.6713                 5.6225                 5.6103
 IR Inten    --      5.8878                 8.4301                 3.2680

                     58                     59                     60
                      A                      A                      A
 Frequencies --   3007.4229              3015.4575              3020.8767
 Red. masses --      1.0620                 1.0632                 1.0383
 Frc consts  --      5.6594                 5.6959                 5.5828
 IR Inten    --     13.7275                74.8898                28.6519

                     61                     62                     63
                      A                      A                      A
 Frequencies --   3023.1418              3026.5587              3027.6847
 Red. masses --      1.0886                 1.0413                 1.0357
 Frc consts  --      5.8619                 5.6198                 5.5938
 IR Inten    --     17.2976                27.4978                36.1559

                     64                     65                     66
                      A                      A                      A
 Frequencies --   3028.2724              3045.3387              3063.0393
 Red. masses --      1.0974                 1.1027                 1.1039
 Frc consts  --      5.9296                 6.0254                 6.1023
 IR Inten    --      6.0668                 1.5707                88.3777

                     67                     68                     69
                      A                      A                      A
 Frequencies --   3084.7650              3090.8424              3093.7517
 Red. masses --      1.1002                 1.0998                 1.1020
 Frc consts  --      6.1681                 6.1904                 6.2145
 IR Inten    --      5.6676                62.4583                64.8031

                     70                     71                     72
                      A                      A                      A
 Frequencies --   3095.9940              3099.0634              3105.6625
 Red. masses --      1.1014                 1.1009                 1.0996
 Frc consts  --      6.2199                 6.2298                 6.2489
 IR Inten    --     44.6365                39.9210                38.1142

 - Thermochemistry -
 -------------------
 Temperature   298.150 Kelvin.  Pressure   1.00000 Atm.
 Atom     1 has atomic number  6 and mass  12.00000

 Molecular mass:   114.14085 amu.
 Principal axes and moments of inertia in atomic units:
                           1         2         3
     Eigenvalues --   316.669802889.050953070.72750
           X            1.00000   0.00095   0.00056
           Y           -0.00095   0.99999  -0.00384
           Z           -0.00057   0.00383   0.99999
 This molecule is an asymmetric top.
 Rotational symmetry number  1.
 Rotational temperatures (Kelvin)      0.27351     0.02998     0.02821
 Rotational constants (GHZ):           5.69913     0.62468     0.58772
 Zero-point vibrational energy     642707.3 (Joules/Mol)
                                  153.61072 (Kcal/Mol)
 Warning -- explicit consideration of  14 degrees of freedom as
           vibrations may cause significant error
 Vibrational temperatures:     72.63    87.63   138.58   190.07   198.35
          (Kelvin)            318.71   339.23   355.27   359.50   408.38
                              533.81   577.67   642.62   706.83  1053.65
                             1087.49  1173.55  1213.99  1296.56  1333.18
                             1352.50  1382.51  1394.78  1454.14  1502.02
                             1521.97  1537.42  1586.18  1671.60  1716.13
                             1733.98  1785.73  1818.97  1868.86  1904.36
                             1915.21  1917.85  1959.07  1973.57  2005.04
                             2011.53  2017.56  2033.35  2045.94  2125.67
                             2134.31  2141.79  2143.98  2152.08  2157.99
                             2163.67  2165.53  2174.19  2179.03  4300.83
                             4311.13  4315.56  4327.01  4338.57  4346.37
                             4349.63  4354.54  4356.16  4357.01  4381.56
                             4407.03  4438.29  4447.03  4451.22  4454.44
                             4458.86  4468.36

 Zero-point correction=                           0.244794 (Hartree/Particle)
 Thermal correction to Energy=                    0.255891
 Thermal correction to Enthalpy=                  0.256835
 Thermal correction to Gibbs Free Energy=         0.208022
 Sum of electronic and zero-point Energies=           -315.494736
 Sum of electronic and thermal Energies=              -315.483640
 Sum of electronic and thermal Enthalpies=            -315.482696
 Sum of electronic and thermal Free Energies=         -315.531508

                     E (Thermal)             CV                S
                      KCal/Mol        Cal/Mol-Kelvin    Cal/Mol-Kelvin
 Total                  160.574             39.770            102.735
 Electronic               0.000              0.000              0.000
 Translational            0.889              2.981             40.112
 Rotational               0.889              2.981             29.420
 Vibrational            158.796             33.808             33.202
 Vibration     1          0.595              1.977              4.798
 Vibration     2          0.597              1.973              4.428
 Vibration     3          0.603              1.952              3.527
 Vibration     4          0.612              1.921              2.915
 Vibration     5          0.614              1.916              2.833
 Vibration     6          0.648              1.808              1.947
 Vibration     7          0.655              1.786              1.835
 Vibration     8          0.661              1.768              1.752
 Vibration     9          0.663              1.763              1.732
 Vibration    10          0.682              1.704              1.510
 Vibration    11          0.743              1.532              1.076
 Vibration    12          0.767              1.467              0.957
 Vibration    13          0.806              1.368              0.806
 Vibration    14          0.847              1.269              0.680

                           ! Non-Optimized Parameters !
 Normal termination of Gaussian 16 at Sun May 28 03:23:06 2023.
