 Gaussian 16, Revision A.03,
 Gaussian 16:  ES64L-G16RevA.03 25-Dec-2016

 -----------------------------
 # opt freq b3lyp/6-31g(2df,p)
 -----------------------------

 -------------------
 Title Card Required
 -------------------
 Symbolic Z-matrix:
 Charge =  0 Multiplicity = 1

 SCF Done:  E(RB3LYP) =  -564.224814258     A.U. after   12 cycles
 SCF Done:  E(RB3LYP) =  -564.232153344     A.U. after   11 cycles
 SCF Done:  E(RB3LYP) =  -564.233535418     A.U. after   11 cycles
 SCF Done:  E(RB3LYP) =  -564.234196548     A.U. after   10 cycles
 SCF Done:  E(RB3LYP) =  -564.234823308     A.U. after   10 cycles
 SCF Done:  E(RB3LYP) =  -564.235020716     A.U. after    9 cycles
 SCF Done:  E(RB3LYP) =  -564.235056695     A.U. after   10 cycles
 SCF Done:  E(RB3LYP) =  -564.235098665     A.U. after    8 cycles
 SCF Done:  E(RB3LYP) =  -564.235113529     A.U. after    8 cycles
 SCF Done:  E(RB3LYP) =  -564.235119911     A.U. after    8 cycles
 SCF Done:  E(RB3LYP) =  -564.235196474     A.U. after   10 cycles
 SCF Done:  E(RB3LYP) =  -564.235302373     A.U. after   10 cycles
 SCF Done:  E(RB3LYP) =  -564.235321570     A.U. after    9 cycles
 SCF Done:  E(RB3LYP) =  -564.235347689     A.U. after    8 cycles
 SCF Done:  E(RB3LYP) =  -564.235354656     A.U. after    8 cycles
 SCF Done:  E(RB3LYP) =  -564.235357385     A.U. after    8 cycles
 SCF Done:  E(RB3LYP) =  -564.235358370     A.U. after    8 cycles
 SCF Done:  E(RB3LYP) =  -564.235358557     A.U. after    7 cycles
 SCF Done:  E(RB3LYP) =  -564.235358642     A.U. after    6 cycles
 Optimization completed.
    -- Stationary point found.
 Normal termination of Gaussian 16 at Mon May 22 11:34:41 2023.

 ----------------------------------------------------------------------
 #N Geom=AllCheck Guess=TCheck SCRF=Check GenChk RB3LYP/6-31G(2df,p) Fr
 eq
 ----------------------------------------------------------------------

 Structure from the checkpoint file:  "CCCCqCrOCNqCrCqCrCC.chk"
 -------------------
 Title Card Required
 -------------------
 Charge =  0 Multiplicity = 1

                         Standard orientation:
 ---------------------------------------------------------------------
 Center     Atomic      Atomic             Coordinates (Angstroms)
 Number     Number       Type             X           Y           Z
 ---------------------------------------------------------------------
      1          6           0        5.520690   -1.131085   -0.287310
      2          6           0        4.494362   -0.113996    0.221141
      3          6           0        3.090323   -0.367509   -0.338420
      4          6           0        1.998148    0.550200    0.218742
      5          6           0        2.182851    2.019027   -0.176663
      6          8           0        0.767418    0.028792   -0.270657
      7          6           0       -0.395188    0.509673    0.376895
      8          7           0       -1.478438   -0.385690    0.054245
      9          6           0       -1.250218   -1.697533    0.649196
     10          6           0       -2.855618    0.097226    0.276744
     11          6           0       -3.014078    1.613947    0.115762
     12          6           0       -3.815156   -0.632351   -0.691873
     13          6           0       -5.292819   -0.564774   -0.292291
     14          1           0        6.516242   -0.932484    0.121740
     15          1           0        5.597228   -1.102465   -1.379895
     16          1           0        5.240188   -2.151518   -0.003925
     17          1           0        4.829614    0.896090   -0.043227
     18          1           0        4.461266   -0.146630    1.318594
     19          1           0        2.792007   -1.399735   -0.119146
     20          1           0        3.099723   -0.276191   -1.432483
     21          1           0        2.003226    0.477488    1.321301
     22          1           0        2.161797    2.121393   -1.266764
     23          1           0        3.136986    2.407445    0.190985
     24          1           0        1.392632    2.649210    0.241754
     25          1           0       -0.637778    1.515804    0.026167
     26          1           0       -0.191871    0.569225    1.471815
     27          1           0       -0.245026   -2.033427    0.393361
     28          1           0       -1.960259   -2.431671    0.263339
     29          1           0       -1.346090   -1.680829    1.752436
     30          1           0       -3.165317   -0.153940    1.311001
     31          1           0       -2.660139    1.947201   -0.865764
     32          1           0       -2.486681    2.179722    0.888226
     33          1           0       -4.071844    1.876946    0.194059
     34          1           0       -3.524945   -1.684079   -0.764575
     35          1           0       -3.671350   -0.212647   -1.695173
     36          1           0       -5.452067   -0.986303    0.706840
     37          1           0       -5.909422   -1.135745   -0.993360
     38          1           0       -5.678173    0.459680   -0.283290
 ---------------------------------------------------------------------

 SCF Done:  E(RB3LYP) =  -564.235358642     A.U. after    1 cycles

 The electronic state is 1-A.
 Alpha  occ. eigenvalues --  -19.12776 -14.31190 -10.24036 -10.22619 -10.20938
 Alpha  occ. eigenvalues --  -10.18747 -10.17858 -10.17399 -10.17208 -10.17127
 Alpha  occ. eigenvalues --  -10.17093 -10.17087 -10.17043  -1.02698  -0.90869
 Alpha  occ. eigenvalues --   -0.79698  -0.77983  -0.74200  -0.72194  -0.68988
 Alpha  occ. eigenvalues --   -0.67268  -0.64912  -0.61192  -0.58637  -0.56573
 Alpha  occ. eigenvalues --   -0.55062  -0.50262  -0.47522  -0.47225  -0.46212
 Alpha  occ. eigenvalues --   -0.45237  -0.43827  -0.42630  -0.42181  -0.40901
 Alpha  occ. eigenvalues --   -0.40164  -0.39759  -0.38255  -0.38097  -0.37591
 Alpha  occ. eigenvalues --   -0.36671  -0.36179  -0.35349  -0.34933  -0.34387
 Alpha  occ. eigenvalues --   -0.33278  -0.33057  -0.32212  -0.31961  -0.31478
 Alpha  occ. eigenvalues --   -0.30043  -0.24651  -0.20659
 Alpha virt. eigenvalues --    0.08131   0.09185   0.10590   0.11044   0.12151
 Alpha virt. eigenvalues --    0.12365   0.12737   0.13122   0.13747   0.14612
 Alpha virt. eigenvalues --    0.15542   0.15913   0.16102   0.16498   0.16713

 Mulliken charges:
               1
     1  C   -0.378792
     2  C   -0.173512
     3  C   -0.176916
     4  C    0.137015
     5  C   -0.400297
     6  O   -0.261451
     7  C   -0.030334
     8  N   -0.073369
     9  C   -0.336907
    10  C    0.091494
    11  C   -0.425959
    12  C   -0.165440
    13  C   -0.388361
    14  H    0.109783
    15  H    0.115318
    16  H    0.114776
    17  H    0.098541
    18  H    0.093765
    19  H    0.098932
    20  H    0.099051
    21  H    0.060446
    22  H    0.121487
    23  H    0.116959
    24  H    0.115490
    25  H    0.096558
    26  H    0.050699
    27  H    0.137282
    28  H    0.116334
    29  H    0.084053
    30  H    0.051126
    31  H    0.127248
    32  H    0.118060
    33  H    0.116819
    34  H    0.098538
    35  H    0.098138
    36  H    0.113882
    37  H    0.113619
    38  H    0.115924
 Sum of Mulliken charges =  -0.00000

 Dipole moment (field-independent basis, Debye):
    X=              0.0049    Y=              0.7222    Z=              0.9835  Tot=              1.2202
 Quadrupole moment (field-independent basis, Debye-Ang):
   XX=            -80.9786   YY=            -83.5500   ZZ=            -85.9512
   XY=              0.5132   XZ=              0.2157   YZ=             -0.4953

  Exact polarizability: 171.726  -0.245 127.034   1.598  -0.704 111.638
 Approx polarizability: 191.572   1.500 180.043   1.216  -0.242 177.463

                      1                      2                      3
                      A                      A                      A
 Frequencies --     23.3158                25.1024                40.7293
 Red. masses --      3.2384                 2.7337                 3.4343
 Frc consts  --      0.0010                 0.0010                 0.0034
 IR Inten    --      0.1037                 0.0777                 0.1199

                      4                      5                      6
                      A                      A                      A
 Frequencies --     62.3552                71.6721                87.1140
 Red. masses --      1.8320                 1.8225                 2.2870
 Frc consts  --      0.0042                 0.0055                 0.0102
 IR Inten    --      0.0418                 0.1189                 0.3702

                      7                      8                      9
                      A                      A                      A
 Frequencies --     98.4091               140.1262               179.3873
 Red. masses --      2.4790                 2.5492                 1.6563
 Frc consts  --      0.0141                 0.0295                 0.0314
 IR Inten    --      0.0320                 1.5022                 2.0324

                     10                     11                     12
                      A                      A                      A
 Frequencies --    191.9888               217.3438               224.2547
 Red. masses --      1.3379                 1.1910                 2.7255
 Frc consts  --      0.0291                 0.0331                 0.0808
 IR Inten    --      0.6077                 0.4735                 0.3595

                     13                     14                     15
                      A                      A                      A
 Frequencies --    236.8254               249.6834               268.8602
 Red. masses --      1.3618                 1.2768                 2.4558
 Frc consts  --      0.0450                 0.0469                 0.1046
 IR Inten    --      1.4807                 0.0544                 0.6262

                     16                     17                     18
                      A                      A                      A
 Frequencies --    310.3018               312.5964               336.0042
 Red. masses --      1.9976                 1.6896                 2.4735
 Frc consts  --      0.1133                 0.0973                 0.1645
 IR Inten    --      0.0785                 1.0614                 0.5440

                     19                     20                     21
                      A                      A                      A
 Frequencies --    343.6378               367.4957               413.8283
 Red. masses --      1.9097                 2.1761                 2.4416
 Frc consts  --      0.1329                 0.1732                 0.2464
 IR Inten    --      1.7452                 1.5488                 0.6239

                     22                     23                     24
                      A                      A                      A
 Frequencies --    434.0309               467.0204               493.8710
 Red. masses --      2.7491                 2.5906                 2.7197
 Frc consts  --      0.3051                 0.3329                 0.3908
 IR Inten    --      2.9102                 1.0604                 4.6376

                     25                     26                     27
                      A                      A                      A
 Frequencies --    529.4609               597.3526               746.3006
 Red. masses --      2.7365                 3.0425                 1.1119
 Frc consts  --      0.4520                 0.6397                 0.3649
 IR Inten    --      1.3899                 0.9930                 2.3293

                     28                     29                     30
                      A                      A                      A
 Frequencies --    765.6866               803.7898               843.2624
 Red. masses --      1.3685                 1.9307                 1.9138
 Frc consts  --      0.4727                 0.7349                 0.8018
 IR Inten    --      1.5360                 4.2487                 0.6749

                     31                     32                     33
                      A                      A                      A
 Frequencies --    867.4570               878.6636               910.4323
 Red. masses --      1.9123                 1.4492                 2.0455
 Frc consts  --      0.8478                 0.6592                 0.9989
 IR Inten    --      3.0616                 0.2038                 7.9112

                     34                     35                     36
                      A                      A                      A
 Frequencies --    954.1089               963.6346               981.7208
 Red. masses --      2.0114                 1.6617                 1.3415
 Frc consts  --      1.0788                 0.9091                 0.7618
 IR Inten    --      2.9294                27.2904                 2.8766

                     37                     38                     39
                      A                      A                      A
 Frequencies --   1001.0109              1019.6443              1034.5478
 Red. masses --      1.2973                 2.1553                 2.6719
 Frc consts  --      0.7659                 1.3202                 1.6849
 IR Inten    --      1.6024                 7.7990                 3.5344

                     40                     41                     42
                      A                      A                      A
 Frequencies --   1052.4807              1061.2464              1083.7246
 Red. masses --      2.3329                 2.3604                 1.7567
 Frc consts  --      1.5226                 1.5663                 1.2156
 IR Inten    --     16.4669                79.6612                 9.4420

                     43                     44                     45
                      A                      A                      A
 Frequencies --   1104.5296              1113.1609              1130.5679
 Red. masses --      2.0394                 2.3055                 2.2188
 Frc consts  --      1.4659                 1.6832                 1.6710
 IR Inten    --    100.2934                48.5822                68.7008

                     46                     47                     48
                      A                      A                      A
 Frequencies --   1145.9016              1150.9548              1160.8260
 Red. masses --      2.0897                 2.0453                 2.0167
 Frc consts  --      1.6167                 1.5963                 1.6011
 IR Inten    --    107.7125                24.5250                21.7167

                     49                     50                     51
                      A                      A                      A
 Frequencies --   1188.1560              1201.9973              1230.0071
 Red. masses --      1.9998                 2.0561                 2.3300
 Frc consts  --      1.6633                 1.7503                 2.0769
 IR Inten    --      2.7351                15.7432                32.8627

                     52                     53                     54
                      A                      A                      A
 Frequencies --   1264.6426              1274.0672              1288.8384
 Red. masses --      1.4190                 1.7599                 1.2266
 Frc consts  --      1.3372                 1.6832                 1.2005
 IR Inten    --     34.3341                48.4697                 6.9084

                     55                     56                     57
                      A                      A                      A
 Frequencies --   1298.4268              1324.5846              1326.0814
 Red. masses --      1.3198                 1.3535                 1.1398
 Frc consts  --      1.3110                 1.3991                 1.1809
 IR Inten    --      4.3230                 2.0129                 0.0505

                     58                     59                     60
                      A                      A                      A
 Frequencies --   1336.3858              1367.8750              1379.4291
 Red. masses --      1.2310                 1.2862                 1.2968
 Frc consts  --      1.2953                 1.4179                 1.4539
 IR Inten    --      3.5497                15.8245                 6.9860

                     61                     62                     63
                      A                      A                      A
 Frequencies --   1381.1203              1389.2590              1395.8907
 Red. masses --      1.4704                 1.2885                 1.5431
 Frc consts  --      1.6526                 1.4652                 1.7715
 IR Inten    --      8.1897                16.5962                 9.1376

                     64                     65                     66
                      A                      A                      A
 Frequencies --   1406.0799              1410.6058              1413.3314
 Red. masses --      1.3048                 1.3286                 1.2343
 Frc consts  --      1.5199                 1.5576                 1.4526
 IR Inten    --     20.6505                11.0256                 5.4074

                     67                     68                     69
                      A                      A                      A
 Frequencies --   1415.5548              1440.0681              1468.8904
 Red. masses --      1.2306                 1.1802                 1.1803
 Frc consts  --      1.4529                 1.4421                 1.5004
 IR Inten    --      7.3253                 6.4072                12.2426

                     70                     71                     72
                      A                      A                      A
 Frequencies --   1480.3160              1482.7812              1492.1880
 Red. masses --      1.0689                 1.0900                 1.0581
 Frc consts  --      1.3801                 1.4119                 1.3881
 IR Inten    --      0.3231                 2.3537                 0.5089

                     73                     74                     75
                      A                      A                      A
 Frequencies --   1494.3725              1495.5314              1497.3309
 Red. masses --      1.0602                 1.0516                 1.0554
 Frc consts  --      1.3949                 1.3857                 1.3942
 IR Inten    --      2.7386                 4.1543                 8.4527

                     76                     77                     78
                      A                      A                      A
 Frequencies --   1499.4579              1500.1124              1502.8629
 Red. masses --      1.0446                 1.0501                 1.0609
 Frc consts  --      1.3838                 1.3923                 1.4117
 IR Inten    --      3.9386                 1.6146                 2.7972

                     79                     80                     81
                      A                      A                      A
 Frequencies --   1505.2130              1511.3014              1512.9733
 Red. masses --      1.0592                 1.0687                 1.0847
 Frc consts  --      1.4139                 1.4381                 1.4629
 IR Inten    --      3.8310                 4.3151                11.9799

                     82                     83                     84
                      A                      A                      A
 Frequencies --   1517.5430              1530.8377              2818.2568
 Red. masses --      1.0659                 1.0883                 1.0715
 Frc consts  --      1.4462                 1.5026                 5.0140
 IR Inten    --      9.0341                 0.9061                75.0905

                     85                     86                     87
                      A                      A                      A
 Frequencies --   2890.1634              2919.6209              2938.4737
 Red. masses --      1.0804                 1.0629                 1.0811
 Frc consts  --      5.3171                 5.3381                 5.5001
 IR Inten    --     51.0697                87.0270                48.3440

                     88                     89                     90
                      A                      A                      A
 Frequencies --   3013.7520              3024.4008              3030.1587
 Red. masses --      1.0613                 1.0567                 1.0385
 Frc consts  --      5.6792                 5.6948                 5.6181
 IR Inten    --      7.5844                28.5842                46.3305

                     91                     92                     93
                      A                      A                      A
 Frequencies --   3031.4095              3036.2559              3037.8916
 Red. masses --      1.0387                 1.0589                 1.0396
 Frc consts  --      5.6239                 5.7517                 5.6528
 IR Inten    --     20.2789                26.2145                 8.2317

                     94                     95                     96
                      A                      A                      A
 Frequencies --   3040.3013              3045.0794              3069.6575
 Red. masses --      1.0427                 1.0935                 1.1029
 Frc consts  --      5.6786                 5.9743                 6.1228
 IR Inten    --     10.6044                 2.6593                23.5462

                     97                     98                     99
                      A                      A                      A
 Frequencies --   3076.7393              3077.5818              3095.6044
 Red. masses --      1.0842                 1.0937                 1.0780
 Frc consts  --      6.0468                 6.1032                 6.0864
 IR Inten    --     37.0491                 6.4023                23.0281

                    100                    101                    102
                      A                      A                      A
 Frequencies --   3097.4455              3099.1668              3101.4238
 Red. masses --      1.1022                 1.0975                 1.1012
 Frc consts  --      6.2304                 6.2106                 6.2405
 IR Inten    --     57.1977                25.5767                35.2968

                    103                    104                    105
                      A                      A                      A
 Frequencies --   3106.2136              3109.8038              3110.5877
 Red. masses --      1.0961                 1.1011                 1.1003
 Frc consts  --      6.2312                 6.2740                 6.2725
 IR Inten    --     72.0428                21.3648                49.6024

                    106                    107                    108
                      A                      A                      A
 Frequencies --   3114.3215              3119.4525              3145.8786
 Red. masses --      1.1006                 1.0985                 1.1005
 Frc consts  --      6.2895                 6.2979                 6.4168
 IR Inten    --     32.6459                26.0548                14.5854

 - Thermochemistry -
 -------------------
 Temperature   298.150 Kelvin.  Pressure   1.00000 Atm.
 Atom     1 has atomic number  6 and mass  12.00000

 Molecular mass:   187.19361 amu.
 Principal axes and moments of inertia in atomic units:
                           1         2         3
     Eigenvalues --   902.889007152.613047749.48613
           X            1.00000  -0.00167  -0.00040
           Y            0.00166   1.00000  -0.00208
           Z            0.00040   0.00207   1.00000
 This molecule is an asymmetric top.
 Rotational symmetry number  1.
 Warning -- assumption of classical behavior for rotation
           may cause significant error
 Rotational temperatures (Kelvin)      0.09593     0.01211     0.01118
 Rotational constants (GHZ):           1.99885     0.25232     0.23289
 Zero-point vibrational energy     920348.0 (Joules/Mol)
                                  219.96846 (Kcal/Mol)
 Warning -- explicit consideration of  26 degrees of freedom as
           vibrations may cause significant error
 Vibrational temperatures:     33.55    36.12    58.60    89.72   103.12
          (Kelvin)            125.34   141.59   201.61   258.10   276.23
                              312.71   322.65   340.74   359.24   386.83
                              446.46   449.76   483.44   494.42   528.74
                              595.41   624.47   671.94   710.57   761.78
                              859.46  1073.76  1101.65  1156.47  1213.27
                             1248.08  1264.20  1309.91  1372.75  1386.46
                             1412.48  1440.23  1467.04  1488.48  1514.28
                             1526.90  1559.24  1589.17  1601.59  1626.64
                             1648.70  1655.97  1670.17  1709.49  1729.41
                             1769.71  1819.54  1833.10  1854.35  1868.15
                             1905.78  1907.94  1922.76  1968.07  1984.69
                             1987.12  1998.83  2008.38  2023.04  2029.55
                             2033.47  2036.67  2071.94  2113.41  2129.84
                             2133.39  2146.93  2150.07  2151.74  2154.33
                             2157.39  2158.33  2162.28  2165.67  2174.43
                             2176.83  2183.41  2202.53  4054.84  4158.30
                             4200.68  4227.81  4336.12  4351.44  4359.72
                             4361.52  4368.50  4370.85  4374.32  4381.19
                             4416.55  4426.74  4427.95  4453.88  4456.53
                             4459.01  4462.26  4469.15  4474.31  4475.44
                             4480.81  4488.20  4526.22

 Zero-point correction=                           0.350542 (Hartree/Particle)
 Thermal correction to Energy=                    0.367982
 Thermal correction to Enthalpy=                  0.368927
 Thermal correction to Gibbs Free Energy=         0.303704
 Sum of electronic and zero-point Energies=           -563.884817
 Sum of electronic and thermal Energies=              -563.867376
 Sum of electronic and thermal Enthalpies=            -563.866432
 Sum of electronic and thermal Free Energies=         -563.931655

                     E (Thermal)             CV                S
                      KCal/Mol        Cal/Mol-Kelvin    Cal/Mol-Kelvin
 Total                  230.912             62.804            137.273
 Electronic               0.000              0.000              0.000
 Translational            0.889              2.981             41.587
 Rotational               0.889              2.981             32.281
 Vibrational            229.135             56.842             63.405
 Vibration     1          0.593              1.985              6.330
 Vibration     2          0.593              1.985              6.183
 Vibration     3          0.594              1.981              5.223
 Vibration     4          0.597              1.972              4.381
 Vibration     5          0.598              1.968              4.107
 Vibration     6          0.601              1.958              3.724
 Vibration     7          0.604              1.950              3.486
 Vibration     8          0.615              1.913              2.802
 Vibration     9          0.629              1.868              2.335
 Vibration    10          0.634              1.851              2.209
 Vibration    11          0.646              1.815              1.981
 Vibration    12          0.649              1.804              1.924
 Vibration    13          0.656              1.784              1.827
 Vibration    14          0.662              1.763              1.733
 Vibration    15          0.673              1.730              1.604
 Vibration    16          0.699              1.654              1.361
 Vibration    17          0.701              1.650              1.349
 Vibration    18          0.717              1.604              1.231
 Vibration    19          0.722              1.588              1.195
 Vibration    20          0.740              1.539              1.090
 Vibration    21          0.777              1.440              0.913
 Vibration    22          0.795              1.396              0.846
 Vibration    23          0.824              1.323              0.746
 Vibration    24          0.850              1.264              0.674
 Vibration    25          0.884              1.185              0.588
 Vibration    26          0.955              1.037              0.454

                           ! Non-Optimized Parameters !
 Normal termination of Gaussian 16 at Mon May 22 13:35:46 2023.
