 Gaussian 16, Revision A.03,
 Gaussian 16:  ES64L-G16RevA.03 25-Dec-2016

 -----------------------------
 # opt freq b3lyp/6-31g(2df,p)
 -----------------------------

 -------------------
 Title Card Required
 -------------------
 Symbolic Z-matrix:
 Charge =  0 Multiplicity = 1

 SCF Done:  E(RB3LYP) =  -492.799512274     A.U. after   21 cycles
 SCF Done:  E(RB3LYP) =  -492.833895507     A.U. after   15 cycles
 SCF Done:  E(RB3LYP) =  -492.862199476     A.U. after   17 cycles
 SCF Done:  E(RB3LYP) =  -492.871609255     A.U. after   16 cycles
 SCF Done:  E(RB3LYP) =  -492.874675930     A.U. after   15 cycles
 SCF Done:  E(RB3LYP) =  -492.875454935     A.U. after   14 cycles
 SCF Done:  E(RB3LYP) =  -492.875713223     A.U. after   14 cycles
 SCF Done:  E(RB3LYP) =  -492.875847849     A.U. after   14 cycles
 SCF Done:  E(RB3LYP) =  -492.875918304     A.U. after   12 cycles
 SCF Done:  E(RB3LYP) =  -492.875992207     A.U. after   12 cycles
 SCF Done:  E(RB3LYP) =  -492.969001085     A.U. after    9 cycles
 SCF Done:  E(RB3LYP) =  -492.969029410     A.U. after   10 cycles
 SCF Done:  E(RB3LYP) =  -492.969040931     A.U. after   10 cycles
 SCF Done:  E(RB3LYP) =  -492.969059700     A.U. after   11 cycles
 SCF Done:  E(RB3LYP) =  -492.969063325     A.U. after   10 cycles
 SCF Done:  E(RB3LYP) =  -492.969066209     A.U. after    9 cycles
 SCF Done:  E(RB3LYP) =  -492.969067028     A.U. after    8 cycles
 SCF Done:  E(RB3LYP) =  -492.969067995     A.U. after    8 cycles
 SCF Done:  E(RB3LYP) =  -492.969068570     A.U. after    8 cycles
 Optimization completed.
    -- Stationary point found.
 Normal termination of Gaussian 16 at Sun May 28 15:12:11 2023.

 ----------------------------------------------------------------------
 #N Geom=AllCheck Guess=TCheck SCRF=Check GenChk RB3LYP/6-31G(2df,p) Fr
 eq
 ----------------------------------------------------------------------

 Structure from the checkpoint file:  "CCCC1[N]C2NdC[C]qNrN12.chk"
 -------------------
 Title Card Required
 -------------------
 Charge =  0 Multiplicity = 1

                         Standard orientation:
 ---------------------------------------------------------------------
 Center     Atomic      Atomic             Coordinates (Angstroms)
 Number     Number       Type             X           Y           Z
 ---------------------------------------------------------------------
      1          6           0        3.693098    1.356466   -0.356559
      2          6           0        2.709263    0.513732    0.458068
      3          6           0        2.133419   -0.667706   -0.349443
      4          6           0        1.250719   -1.538085    0.507143
      5          7           0       -0.011841   -1.667095    0.523367
      6          6           0       -0.813932   -0.896219   -0.409616
      7          7           0       -2.220962   -1.349233   -0.346483
      8          6           0       -2.894813   -0.294906   -0.111819
      9          6           0       -1.997098    0.887570    0.028354
     10          7           0       -2.451404    2.159429    0.235358
     11          7           0       -0.769213    0.543446   -0.137632
     12          1           0        4.082522    2.191149    0.234951
     13          1           0        3.210667    1.775230   -1.246454
     14          1           0        4.547979    0.758966   -0.692841
     15          1           0        1.871359    1.131532    0.795937
     16          1           0        3.207127    0.131048    1.358326
     17          1           0        2.963786   -1.284341   -0.720773
     18          1           0        1.590658   -0.279300   -1.214820
     19          1           0        1.790873   -2.136056    1.251027
     20          1           0       -0.498435   -1.074918   -1.450298
     21          1           0       -3.979599   -0.285413   -0.032842
     22          1           0       -3.342665    2.264333    0.693174
     23          1           0       -1.754275    2.836825    0.505577
 ---------------------------------------------------------------------

 SCF Done:  E(RB3LYP) =  -492.969068570     A.U. after    1 cycles

 The electronic state is 1-A.
 Alpha  occ. eigenvalues --  -14.35886 -14.32642 -14.31293 -14.30487 -10.25841
 Alpha  occ. eigenvalues --  -10.25207 -10.22930 -10.21938 -10.18235 -10.18069
 Alpha  occ. eigenvalues --  -10.17232  -0.99606  -0.93082  -0.89839  -0.84529
 Alpha  occ. eigenvalues --   -0.78596  -0.71863  -0.68827  -0.61756  -0.59143
 Alpha  occ. eigenvalues --   -0.58030  -0.55473  -0.52213  -0.49458  -0.48466
 Alpha  occ. eigenvalues --   -0.46305  -0.44973  -0.43811  -0.40663  -0.39600
 Alpha  occ. eigenvalues --   -0.38988  -0.36602  -0.35847  -0.34194  -0.32873
 Alpha  occ. eigenvalues --   -0.31211  -0.29218  -0.28559  -0.26267  -0.25631
 Alpha  occ. eigenvalues --   -0.22896
 Alpha virt. eigenvalues --   -0.03867   0.00093   0.06501   0.08664   0.10010
 Alpha virt. eigenvalues --    0.11712   0.12394   0.13072   0.14267   0.15453
 Alpha virt. eigenvalues --    0.16305   0.17564   0.18285   0.19218   0.19688

 Mulliken charges:
               1
     1  C   -0.380812
     2  C   -0.156893
     3  C   -0.227226
     4  C    0.042348
     5  N   -0.170076
     6  C    0.064205
     7  N   -0.180158
     8  C   -0.080221
     9  C    0.342772
    10  N   -0.579451
    11  N   -0.303161
    12  H    0.111456
    13  H    0.118862
    14  H    0.112067
    15  H    0.124700
    16  H    0.094172
    17  H    0.098863
    18  H    0.117389
    19  H    0.099410
    20  H    0.107050
    21  H    0.119995
    22  H    0.260094
    23  H    0.264615
 Sum of Mulliken charges =  -0.00000

 Dipole moment (field-independent basis, Debye):
    X=             -0.4657    Y=              3.4325    Z=              0.4323  Tot=              3.4908
 Quadrupole moment (field-independent basis, Debye-Ang):
   XX=            -53.4505   YY=            -66.4846   ZZ=            -65.5440
   XY=            -11.1074   XZ=             -3.0739   YZ=              4.6178

  Exact polarizability: 135.718  -9.579 100.317  -1.201   2.176  68.941
 Approx polarizability: 185.850 -18.312 152.819  -3.778   5.234 108.952

                      1                      2                      3
                      A                      A                      A
 Frequencies --     33.2618                51.5517                83.2848
 Red. masses --      4.2934                 3.1524                 1.7508
 Frc consts  --      0.0028                 0.0049                 0.0072
 IR Inten    --      1.2243                 0.3992                 0.4852

                      4                      5                      6
                      A                      A                      A
 Frequencies --    117.6886               152.5778               218.3306
 Red. masses --      4.0539                 4.1395                 3.0146
 Frc consts  --      0.0331                 0.0568                 0.0847
 IR Inten    --      5.0185                 4.2354                 1.1413

                      7                      8                      9
                      A                      A                      A
 Frequencies --    248.1958               269.3004               315.7729
 Red. masses --      1.2909                 2.6646                 2.9735
 Frc consts  --      0.0469                 0.1139                 0.1747
 IR Inten    --      0.4635                 0.6779                 4.6961

                     10                     11                     12
                      A                      A                      A
 Frequencies --    357.2421               404.3222               440.8751
 Red. masses --      2.1981                 1.4304                 2.8809
 Frc consts  --      0.1653                 0.1378                 0.3299
 IR Inten    --     34.5202                87.0902                 2.2298

                     13                     14                     15
                      A                      A                      A
 Frequencies --    488.3877               533.0123               562.1157
 Red. masses --      2.3663                 1.8103                 5.0883
 Frc consts  --      0.3325                 0.3030                 0.9473
 IR Inten    --     62.2225               119.6707                12.9424

                     16                     17                     18
                      A                      A                      A
 Frequencies --    626.4849               703.8583               715.2436
 Red. masses --      3.0056                 4.2994                 3.8551
 Frc consts  --      0.6950                 1.2550                 1.1620
 IR Inten    --      8.5377                 4.9359                14.9310

                     19                     20                     21
                      A                      A                      A
 Frequencies --    754.7222               825.8381               853.0307
 Red. masses --      1.1687                 4.4737                 2.4961
 Frc consts  --      0.3922                 1.7977                 1.0701
 IR Inten    --      4.8603                 2.3709                 1.2949

                     22                     23                     24
                      A                      A                      A
 Frequencies --    892.9661               912.4776               936.3690
 Red. masses --      1.5812                 2.5160                 2.4012
 Frc consts  --      0.7429                 1.2343                 1.2404
 IR Inten    --      1.6401                 0.2661                 7.9790

                     25                     26                     27
                      A                      A                      A
 Frequencies --    945.6373               987.8232               995.5145
 Red. masses --      1.5142                 2.4832                 2.1054
 Frc consts  --      0.7978                 1.4277                 1.2294
 IR Inten    --      5.2597                 0.9709                28.9338

                     28                     29                     30
                      A                      A                      A
 Frequencies --   1017.9022              1045.6063              1062.0539
 Red. masses --      2.5626                 2.7806                 3.1498
 Frc consts  --      1.5644                 1.7911                 2.0933
 IR Inten    --     80.2792                 7.0786                30.4892

                     31                     32                     33
                      A                      A                      A
 Frequencies --   1115.3062              1151.7871              1170.0340
 Red. masses --      2.0427                 2.2733                 2.0245
 Frc consts  --      1.4971                 1.7768                 1.6329
 IR Inten    --      5.2643                 5.4814                13.0167

                     34                     35                     36
                      A                      A                      A
 Frequencies --   1239.7138              1263.2961              1286.4279
 Red. masses --      1.1935                 1.3225                 1.4122
 Frc consts  --      1.0807                 1.2435                 1.3769
 IR Inten    --      9.5229                 4.0396                45.8822

                     37                     38                     39
                      A                      A                      A
 Frequencies --   1293.8793              1300.4386              1328.7654
 Red. masses --      1.3654                 1.3486                 1.0929
 Frc consts  --      1.3468                 1.3438                 1.1369
 IR Inten    --      8.6789                30.2409                 0.9606

                     40                     41                     42
                      A                      A                      A
 Frequencies --   1375.6180              1410.7614              1420.8506
 Red. masses --      1.4183                 1.2330                 1.3072
 Frc consts  --      1.5813                 1.4459                 1.5549
 IR Inten    --      6.7272                 0.9400                 7.0579

                     43                     44                     45
                      A                      A                      A
 Frequencies --   1423.8076              1477.0008              1492.3876
 Red. masses --      2.8767                 1.1035                 1.0584
 Frc consts  --      3.4359                 1.4183                 1.3889
 IR Inten    --     43.1073                 2.7501                 0.1563

                     46                     47                     48
                      A                      A                      A
 Frequencies --   1499.1183              1507.3377              1616.6529
 Red. masses --      1.0409                 1.0760                 1.7517
 Frc consts  --      1.3782                 1.4404                 2.6974
 IR Inten    --      4.4975                 3.8404                26.4216

                     49                     50                     51
                      A                      A                      A
 Frequencies --   1652.1218              1718.0769              1745.2835
 Red. masses --      2.8094                 6.8807                 9.7609
 Frc consts  --      4.5181                11.9665                17.5175
 IR Inten    --    120.8925               197.1192               115.4498

                     52                     53                     54
                      A                      A                      A
 Frequencies --   2978.3036              3013.2083              3025.6164
 Red. masses --      1.0809                 1.0660                 1.0648
 Frc consts  --      5.6489                 5.7023                 5.7432
 IR Inten    --     17.2711                16.7199                18.6613

                     55                     56                     57
                      A                      A                      A
 Frequencies --   3028.5575              3051.0979              3076.3247
 Red. masses --      1.0377                 1.0854                 1.0940
 Frc consts  --      5.6077                 5.9534                 6.1001
 IR Inten    --     38.0378                43.7853                 2.2188

                     58                     59                     60
                      A                      A                      A
 Frequencies --   3096.3740              3100.6973              3107.7524
 Red. masses --      1.0975                 1.1005                 1.1002
 Frc consts  --      6.1995                 6.2337                 6.2604
 IR Inten    --      5.1553                35.7512                64.6744

                     61                     62                     63
                      A                      A                      A
 Frequencies --   3162.0545              3583.1072              3695.7104
 Red. masses --      1.0949                 1.0461                 1.1004
 Frc consts  --      6.4502                 7.9131                 8.8555
 IR Inten    --     25.8827                35.7871                29.5482

 - Thermochemistry -
 -------------------
 Temperature   298.150 Kelvin.  Pressure   1.00000 Atm.
 Atom     1 has atomic number  6 and mass  12.00000

 Molecular mass:   152.10620 amu.
 Principal axes and moments of inertia in atomic units:
                           1         2         3
     Eigenvalues --   970.742072775.821243544.21439
           X            0.99997   0.00446  -0.00627
           Y           -0.00441   0.99995   0.00915
           Z            0.00631  -0.00913   0.99994
 This molecule is an asymmetric top.
 Rotational symmetry number  1.
 Warning -- assumption of classical behavior for rotation
           may cause significant error
 Rotational temperatures (Kelvin)      0.08922     0.03120     0.02444
 Rotational constants (GHZ):           1.85914     0.65016     0.50921
 Zero-point vibrational energy     508167.2 (Joules/Mol)
                                  121.45487 (Kcal/Mol)
 Warning -- explicit consideration of  15 degrees of freedom as
           vibrations may cause significant error
 Vibrational temperatures:     47.86    74.17   119.83   169.33   219.53
          (Kelvin)            314.13   357.10   387.46   454.33   513.99
                              581.73   634.32   702.68   766.89   808.76
                              901.37  1012.70  1029.08  1085.88  1188.20
                             1227.32  1284.78  1312.85  1347.23  1360.56
                             1421.26  1432.32  1464.53  1504.39  1528.06
                             1604.68  1657.16  1683.42  1783.67  1817.60
                             1850.88  1861.60  1871.04  1911.80  1979.21
                             2029.77  2044.29  2048.54  2125.07  2147.21
                             2156.90  2168.72  2326.00  2377.03  2471.93
                             2511.07  4285.11  4335.33  4353.19  4357.42
                             4389.85  4426.15  4454.99  4461.21  4471.36
                             4549.49  5155.29  5317.30

 Zero-point correction=                           0.193551 (Hartree/Particle)
 Thermal correction to Energy=                    0.204775
 Thermal correction to Enthalpy=                  0.205719
 Thermal correction to Gibbs Free Energy=         0.155388
 Sum of electronic and zero-point Energies=           -492.775518
 Sum of electronic and thermal Energies=              -492.764293
 Sum of electronic and thermal Enthalpies=            -492.763349
 Sum of electronic and thermal Free Energies=         -492.813681

                     E (Thermal)             CV                S
                      KCal/Mol        Cal/Mol-Kelvin    Cal/Mol-Kelvin
 Total                  128.498             41.347            105.932
 Electronic               0.000              0.000              0.000
 Translational            0.889              2.981             40.968
 Rotational               0.889              2.981             30.636
 Vibrational            126.721             35.385             34.328
 Vibration     1          0.594              1.983              5.625
 Vibration     2          0.596              1.977              4.757
 Vibration     3          0.600              1.961              3.812
 Vibration     4          0.608              1.935              3.138
 Vibration     5          0.619              1.900              2.640
 Vibration     6          0.646              1.813              1.973
 Vibration     7          0.662              1.766              1.743
 Vibration     8          0.674              1.730              1.601
 Vibration     9          0.703              1.644              1.332
 Vibration    10          0.732              1.560              1.134
 Vibration    11          0.770              1.461              0.947
 Vibration    12          0.801              1.381              0.824
 Vibration    13          0.844              1.276              0.688
 Vibration    14          0.888              1.177              0.581
 Vibration    15          0.918              1.113              0.520

 Optimization completed.
    -- Stationary point found.
 Normal termination of Gaussian 16 at Sun May 28 15:56:02 2023.
