 Gaussian 16, Revision A.03,
 Gaussian 16:  ES64L-G16RevA.03 25-Dec-2016

 -----------------------------
 # opt freq b3lyp/6-31g(2df,p)
 -----------------------------

 -------------------
 Title Card Required
 -------------------
 Symbolic Z-matrix:
 Charge =  0 Multiplicity = 1

 SCF Done:  E(RB3LYP) =  -393.159767824     A.U. after   12 cycles
 SCF Done:  E(RB3LYP) =  -393.161336250     A.U. after   10 cycles
 SCF Done:  E(RB3LYP) =  -393.161577921     A.U. after    8 cycles
 SCF Done:  E(RB3LYP) =  -393.161600551     A.U. after    8 cycles
 SCF Done:  E(RB3LYP) =  -393.161603058     A.U. after    7 cycles
 SCF Done:  E(RB3LYP) =  -393.161603527     A.U. after    6 cycles
 SCF Done:  E(RB3LYP) =  -393.161603628     A.U. after    6 cycles
 Optimization completed.
    -- Stationary point found.
 Normal termination of Gaussian 16 at Sun May 28 18:56:11 2023.

 ----------------------------------------------------------------------
 #N Geom=AllCheck Guess=TCheck SCRF=Check GenChk RB3LYP/6-31G(2df,p) Fr
 eq
 ----------------------------------------------------------------------

 Structure from the checkpoint file:  "CCCC1CCCCC1C.chk"
 -------------------
 Title Card Required
 -------------------
 Charge =  0 Multiplicity = 1

                         Standard orientation:
 ---------------------------------------------------------------------
 Center     Atomic      Atomic             Coordinates (Angstroms)
 Number     Number       Type             X           Y           Z
 ---------------------------------------------------------------------
      1          6           0        3.202561   -0.348667    1.097166
      2          6           0        2.741013    0.220797   -0.249074
      3          6           0        1.535327   -0.506954   -0.866747
      4          6           0        0.223809   -0.467774   -0.060657
      5          6           0       -0.860172   -1.322866   -0.745810
      6          6           0       -2.154982   -1.387650    0.075951
      7          6           0       -2.682491    0.015705    0.402257
      8          6           0       -1.598641    0.866616    1.080045
      9          6           0       -0.297464    0.961247    0.253016
     10          6           0       -0.474193    1.853177   -0.987955
     11          1           0        4.105664    0.159211    1.450287
     12          1           0        3.432858   -1.417200    1.015198
     13          1           0        2.439169   -0.235286    1.873486
     14          1           0        3.573490    0.165453   -0.961509
     15          1           0        2.518710    1.289000   -0.135823
     16          1           0        1.806887   -1.561270   -1.017525
     17          1           0        1.353904   -0.103674   -1.871235
     18          1           0        0.419765   -0.939123    0.914204
     19          1           0       -0.470983   -2.334806   -0.912397
     20          1           0       -1.078113   -0.915904   -1.742825
     21          1           0       -1.957164   -1.924200    1.014733
     22          1           0       -2.915435   -1.968810   -0.458451
     23          1           0       -3.564302   -0.049995    1.049959
     24          1           0       -3.017965    0.503909   -0.521948
     25          1           0       -1.362343    0.420372    2.055930
     26          1           0       -1.979826    1.874318    1.285527
     27          1           0        0.448908    1.452639    0.890632
     28          1           0       -1.170101    1.427410   -1.717142
     29          1           0        0.475425    2.022889   -1.503596
     30          1           0       -0.867144    2.833291   -0.696649
 ---------------------------------------------------------------------

 SCF Done:  E(RB3LYP) =  -393.161603628     A.U. after    1 cycles

 The electronic state is 1-A.
 Alpha  occ. eigenvalues --  -10.17707 -10.17443 -10.17428 -10.17090 -10.17059
 Alpha  occ. eigenvalues --  -10.16978 -10.16974 -10.16905 -10.16874 -10.16623
 Alpha  occ. eigenvalues --   -0.83167  -0.78061  -0.75007  -0.73315  -0.68104
 Alpha  occ. eigenvalues --   -0.65771  -0.59901  -0.59274  -0.55767  -0.51920
 Alpha  occ. eigenvalues --   -0.47407  -0.45942  -0.44239  -0.42903  -0.42154
 Alpha  occ. eigenvalues --   -0.40977  -0.39869  -0.39103  -0.38021  -0.36394
 Alpha  occ. eigenvalues --   -0.35527  -0.35015  -0.34015  -0.33188  -0.32379
 Alpha  occ. eigenvalues --   -0.32140  -0.31364  -0.29827  -0.28229  -0.28052
 Alpha virt. eigenvalues --    0.07315   0.09253   0.10575   0.11793   0.13355
 Alpha virt. eigenvalues --    0.13705   0.14475   0.15496   0.15647   0.16678
 Alpha virt. eigenvalues --    0.16746   0.17539   0.17822   0.18118   0.19557

 Mulliken charges:
               1
     1  C   -0.368930
     2  C   -0.186715
     3  C   -0.204484
     4  C    0.046289
     5  C   -0.195830
     6  C   -0.200114
     7  C   -0.182451
     8  C   -0.208592
     9  C    0.031336
    10  C   -0.399593
    11  H    0.109466
    12  H    0.111487
    13  H    0.117695
    14  H    0.089923
    15  H    0.098236
    16  H    0.084825
    17  H    0.090273
    18  H    0.064410
    19  H    0.085120
    20  H    0.090950
    21  H    0.088884
    22  H    0.085677
    23  H    0.086905
    24  H    0.093475
    25  H    0.085651
    26  H    0.083097
    27  H    0.064668
    28  H    0.115750
    29  H    0.114534
    30  H    0.108057
 Sum of Mulliken charges =  -0.00000

 Dipole moment (field-independent basis, Debye):
    X=              0.0454    Y=              0.0177    Z=              0.0192  Tot=              0.0524
 Quadrupole moment (field-independent basis, Debye-Ang):
   XX=            -66.5756   YY=            -66.3180   ZZ=            -66.4588
   XY=             -0.0377   XZ=             -0.0483   YZ=              0.0529

  Exact polarizability: 118.983   0.430 102.384  -1.045   0.347  96.223
 Approx polarizability: 149.089  -0.519 148.198   0.104  -0.597 147.148

                      1                      2                      3
                      A                      A                      A
 Frequencies --     60.0519                85.0766               142.7985
 Red. masses --      2.6174                 2.7046                 2.1809
 Frc consts  --      0.0056                 0.0115                 0.0262
 IR Inten    --      0.0062                 0.0088                 0.0260

                      4                      5                      6
                      A                      A                      A
 Frequencies --    171.8742               184.2385               221.7362
 Red. masses --      1.6988                 1.6017                 1.4207
 Frc consts  --      0.0296                 0.0320                 0.0412
 IR Inten    --      0.0169                 0.0222                 0.0059

                      7                      8                      9
                      A                      A                      A
 Frequencies --    243.7628               287.2968               307.4775
 Red. masses --      1.4098                 2.1390                 2.1543
 Frc consts  --      0.0494                 0.1040                 0.1200
 IR Inten    --      0.0052                 0.0960                 0.0272

                     10                     11                     12
                      A                      A                      A
 Frequencies --    326.3677               387.1167               404.5248
 Red. masses --      2.1390                 1.8475                 2.5645
 Frc consts  --      0.1342                 0.1631                 0.2473
 IR Inten    --      0.0830                 0.0779                 0.2207

                     13                     14                     15
                      A                      A                      A
 Frequencies --    469.7813               479.1868               529.6649
 Red. masses --      2.2699                 2.4144                 2.1720
 Frc consts  --      0.2952                 0.3266                 0.3590
 IR Inten    --      0.3026                 0.1607                 0.1248

                     16                     17                     18
                      A                      A                      A
 Frequencies --    596.1976               712.9339               774.6942
 Red. masses --      1.9773                 1.9928                 1.4405
 Frc consts  --      0.4141                 0.5968                 0.5094
 IR Inten    --      1.5903                 2.6948                 2.6639

                     19                     20                     21
                      A                      A                      A
 Frequencies --    808.5893               842.0102               858.4104
 Red. masses --      1.6232                 2.2656                 1.8081
 Frc consts  --      0.6253                 0.9464                 0.7850
 IR Inten    --      0.3536                 0.0377                 1.1837

                     22                     23                     24
                      A                      A                      A
 Frequencies --    864.9538               886.5526               918.6124
 Red. masses --      2.1399                 1.5629                 1.9630
 Frc consts  --      0.9432                 0.7237                 0.9760
 IR Inten    --      2.8171                 0.2868                 0.0490

                     25                     26                     27
                      A                      A                      A
 Frequencies --    942.4419               980.7531               989.9468
 Red. masses --      1.5477                 1.7013                 1.7210
 Frc consts  --      0.8099                 0.9642                 0.9937
 IR Inten    --      1.2504                 2.6008                 1.2532

                     28                     29                     30
                      A                      A                      A
 Frequencies --   1005.6504              1036.3837              1052.3476
 Red. masses --      1.6663                 1.5510                 1.6601
 Frc consts  --      0.9929                 0.9816                 1.0832
 IR Inten    --      0.3943                 0.3645                 0.2444

                     31                     32                     33
                      A                      A                      A
 Frequencies --   1065.9523              1072.5005              1104.5194
 Red. masses --      1.5311                 2.2307                 1.4844
 Frc consts  --      1.0250                 1.5118                 1.0669
 IR Inten    --      0.6800                 0.2017                 0.6879

                     34                     35                     36
                      A                      A                      A
 Frequencies --   1121.7727              1126.4460              1174.5319
 Red. masses --      1.9465                 1.5318                 2.2605
 Frc consts  --      1.4432                 1.1452                 1.8373
 IR Inten    --      0.7391                 0.9341                 1.5026

                     37                     38                     39
                      A                      A                      A
 Frequencies --   1179.8242              1223.6140              1248.4976
 Red. masses --      1.7119                 1.6329                 1.3519
 Frc consts  --      1.4040                 1.4404                 1.2416
 IR Inten    --      3.2019                 1.2173                 0.1224

                     40                     41                     42
                      A                      A                      A
 Frequencies --   1274.8439              1284.9348              1298.0456
 Red. masses --      1.2777                 1.2361                 1.2482
 Frc consts  --      1.2235                 1.2024                 1.2392
 IR Inten    --      0.8254                 0.4784                 0.8257

                     43                     44                     45
                      A                      A                      A
 Frequencies --   1331.2776              1331.8432              1355.7333
 Red. masses --      1.3347                 1.1752                 1.4546
 Frc consts  --      1.3937                 1.2282                 1.5752
 IR Inten    --      0.4048                 0.9909                 4.1269

                     46                     47                     48
                      A                      A                      A
 Frequencies --   1363.3549              1368.9474              1377.2495
 Red. masses --      1.3750                 1.4398                 1.4072
 Frc consts  --      1.5058                 1.5898                 1.5727
 IR Inten    --      1.6016                 2.8681                 0.3148

                     49                     50                     51
                      A                      A                      A
 Frequencies --   1384.9825              1391.1208              1396.3069
 Red. masses --      1.3810                 1.3981                 1.3088
 Frc consts  --      1.5607                 1.5942                 1.5034
 IR Inten    --      1.7147                 0.4765                 2.4202

                     52                     53                     54
                      A                      A                      A
 Frequencies --   1402.0706              1413.8689              1418.3038
 Red. masses --      1.4974                 1.2837                 1.2945
 Frc consts  --      1.7343                 1.5119                 1.5343
 IR Inten    --      2.0365                 3.1772                11.7613

                     55                     56                     57
                      A                      A                      A
 Frequencies --   1477.7557              1481.5330              1485.7820
 Red. masses --      1.0777                 1.0838                 1.0836
 Frc consts  --      1.3867                 1.4016                 1.4093
 IR Inten    --      1.2034                 0.4568                 3.1103

                     58                     59                     60
                      A                      A                      A
 Frequencies --   1489.7867              1492.2341              1500.7498
 Red. masses --      1.0654                 1.0736                 1.0544
 Frc consts  --      1.3932                 1.4085                 1.3992
 IR Inten    --      2.0420                 3.5792                 7.2409

                     61                     62                     63
                      A                      A                      A
 Frequencies --   1504.9956              1506.1230              1508.0471
 Red. masses --      1.0673                 1.0788                 1.0696
 Frc consts  --      1.4243                 1.4418                 1.4332
 IR Inten    --      0.6289                 1.9151                 6.6529

                     64                     65                     66
                      A                      A                      A
 Frequencies --   1510.7146              2984.2769              3002.0809
 Red. masses --      1.0612                 1.0807                 1.0703
 Frc consts  --      1.4269                 5.6709                 5.6833
 IR Inten    --      0.4953                 7.9972                10.5065

                     67                     68                     69
                      A                      A                      A
 Frequencies --   3004.6061              3005.9106              3013.2281
 Red. masses --      1.0624                 1.0676                 1.0618
 Frc consts  --      5.6506                 5.6836                 5.6800
 IR Inten    --     11.9616                22.4040                44.6527

                     70                     71                     72
                      A                      A                      A
 Frequencies --   3016.6823              3020.0094              3023.3410
 Red. masses --      1.0729                 1.0627                 1.0659
 Frc consts  --      5.7528                 5.7107                 5.7405
 IR Inten    --     38.2234                14.8743                30.4717

                     73                     74                     75
                      A                      A                      A
 Frequencies --   3030.1679              3036.7934              3043.7644
 Red. masses --      1.0368                 1.0410                 1.0931
 Frc consts  --      5.6091                 5.6563                 5.9667
 IR Inten    --     24.6389                 6.5821                27.4412

                     76                     77                     78
                      A                      A                      A
 Frequencies --   3050.0135              3050.7623              3055.1288
 Red. masses --      1.0963                 1.0980                 1.0972
 Frc consts  --      6.0089                 6.0209                 6.0338
 IR Inten    --     61.2268                12.8601                48.1811

                     79                     80                     81
                      A                      A                      A
 Frequencies --   3056.4499              3065.0811              3095.7465
 Red. masses --      1.0972                 1.1036                 1.1008
 Frc consts  --      6.0389                 6.1087                 6.2157
 IR Inten    --     72.7378               102.4570                38.6317

                     82                     83                     84
                      A                      A                      A
 Frequencies --   3097.8945              3102.0219              3108.5437
 Red. masses --      1.0995                 1.1010                 1.1003
 Frc consts  --      6.2168                 6.2422                 6.2645
 IR Inten    --     33.1768                52.0853                34.5773

 - Thermochemistry -
 -------------------
 Temperature   298.150 Kelvin.  Pressure   1.00000 Atm.
 Atom     1 has atomic number  6 and mass  12.00000

 Molecular mass:   140.15650 amu.
 Principal axes and moments of inertia in atomic units:
                           1         2         3
     Eigenvalues --   878.982412223.136582449.20136
           X            0.99998  -0.00203   0.00611
           Y            0.00218   0.99968  -0.02511
           Z           -0.00606   0.02512   0.99967
 This molecule is an asymmetric top.
 Rotational symmetry number  1.
 Warning -- assumption of classical behavior for rotation
           may cause significant error
 Rotational temperatures (Kelvin)      0.09854     0.03896     0.03536
 Rotational constants (GHZ):           2.05322     0.81180     0.73687
 Zero-point vibrational energy     742296.0 (Joules/Mol)
                                  177.41300 (Kcal/Mol)
 Warning -- explicit consideration of  16 degrees of freedom as
           vibrations may cause significant error
 Vibrational temperatures:     86.40   122.41   205.46   247.29   265.08
          (Kelvin)            319.03   350.72   413.36   442.39   469.57
                              556.97   582.02   675.91   689.44   762.07
                              857.80  1025.75  1114.61  1163.38  1211.46
                             1235.06  1244.48  1275.55  1321.68  1355.96
                             1411.09  1424.31  1446.91  1491.13  1514.09
                             1533.67  1543.09  1589.16  1613.98  1620.70
                             1689.89  1697.50  1760.51  1796.31  1834.22
                             1848.73  1867.60  1915.41  1916.23  1950.60
                             1961.56  1969.61  1981.55  1992.68  2001.51
                             2008.97  2017.27  2034.24  2040.62  2126.16
                             2131.60  2137.71  2143.47  2146.99  2159.24
                             2165.35  2166.98  2169.74  2173.58  4293.71
                             4319.32  4322.96  4324.83  4335.36  4340.33
                             4345.12  4349.91  4359.74  4369.27  4379.30
                             4388.29  4389.37  4395.65  4397.55  4409.97
                             4454.09  4457.18  4463.12  4472.50

 Zero-point correction=                           0.282726 (Hartree/Particle)
 Thermal correction to Energy=                    0.293888
 Thermal correction to Enthalpy=                  0.294832
 Thermal correction to Gibbs Free Energy=         0.246527
 Sum of electronic and zero-point Energies=           -392.878878
 Sum of electronic and thermal Energies=              -392.867716
 Sum of electronic and thermal Enthalpies=            -392.866772
 Sum of electronic and thermal Free Energies=         -392.915077

                     E (Thermal)             CV                S
                      KCal/Mol        Cal/Mol-Kelvin    Cal/Mol-Kelvin
 Total                  184.417             43.807            101.667
 Electronic               0.000              0.000              0.000
 Translational            0.889              2.981             40.724
 Rotational               0.889              2.981             29.949
 Vibrational            182.640             37.845             30.993
 Vibration     1          0.597              1.973              4.455
 Vibration     2          0.601              1.960              3.770
 Vibration     3          0.616              1.910              2.766
 Vibration     4          0.626              1.877              2.415
 Vibration     5          0.631              1.861              2.285
 Vibration     6          0.648              1.808              1.945
 Vibration     7          0.659              1.773              1.775
 Vibration     8          0.684              1.697              1.490
 Vibration     9          0.697              1.659              1.376
 Vibration    10          0.710              1.623              1.278
 Vibration    11          0.756              1.498              1.011
 Vibration    12          0.770              1.460              0.946
 Vibration    13          0.827              1.317              0.738
 Vibration    14          0.836              1.296              0.712
 Vibration    15          0.885              1.184              0.588
 Vibration    16          0.954              1.040              0.456

                           ! Non-Optimized Parameters !
 Normal termination of Gaussian 16 at Sun May 28 20:16:02 2023.
