 Gaussian 16, Revision A.03,
 Gaussian 16:  ES64L-G16RevA.03 25-Dec-2016

 -----------------------------
 # opt freq b3lyp/6-31g(2df,p)
 -----------------------------

 -------------------
 Title Card Required
 -------------------
 Symbolic Z-matrix:
 Charge =  0 Multiplicity = 1

 SCF Done:  E(RB3LYP) =  -355.049414730     A.U. after   11 cycles
 SCF Done:  E(RB3LYP) =  -355.051246117     A.U. after    9 cycles
 SCF Done:  E(RB3LYP) =  -355.051504864     A.U. after    9 cycles
 SCF Done:  E(RB3LYP) =  -355.051648539     A.U. after    9 cycles
 SCF Done:  E(RB3LYP) =  -355.051656969     A.U. after    8 cycles
 SCF Done:  E(RB3LYP) =  -355.051673275     A.U. after    7 cycles
 SCF Done:  E(RB3LYP) =  -355.051676490     A.U. after    8 cycles
 SCF Done:  E(RB3LYP) =  -355.051679260     A.U. after    8 cycles
 SCF Done:  E(RB3LYP) =  -355.051681473     A.U. after    8 cycles
 SCF Done:  E(RB3LYP) =  -355.051680858     A.U. after    8 cycles
 SCF Done:  E(RB3LYP) =  -355.051689933     A.U. after   10 cycles
 SCF Done:  E(RB3LYP) =  -355.051707365     A.U. after   10 cycles
 SCF Done:  E(RB3LYP) =  -355.040847960     A.U. after   10 cycles
 SCF Done:  E(RB3LYP) =  -355.051548325     A.U. after   10 cycles
 SCF Done:  E(RB3LYP) =  -355.051712720     A.U. after    7 cycles
 SCF Done:  E(RB3LYP) =  -355.051722038     A.U. after    8 cycles
 SCF Done:  E(RB3LYP) =  -355.051723489     A.U. after    7 cycles
 SCF Done:  E(RB3LYP) =  -355.051723544     A.U. after    6 cycles
 SCF Done:  E(RB3LYP) =  -355.051723554     A.U. after    5 cycles
 Optimization completed.
    -- Stationary point found.
 Normal termination of Gaussian 16 at Sun May 28 09:03:44 2023.

 ----------------------------------------------------------------------
 #N Geom=AllCheck Guess=TCheck SCRF=Check GenChk RB3LYP/6-31G(2df,p) Fr
 eq
 ----------------------------------------------------------------------

 Structure from the checkpoint file:  "CCCCCqCrCqCrC.chk"
 -------------------
 Title Card Required
 -------------------
 Charge =  0 Multiplicity = 1

                         Standard orientation:
 ---------------------------------------------------------------------
 Center     Atomic      Atomic             Coordinates (Angstroms)
 Number     Number       Type             X           Y           Z
 ---------------------------------------------------------------------
      1          6           0        4.282855   -0.074136    0.303526
      2          6           0        2.973478   -0.439266   -0.401090
      3          6           0        1.737892    0.184987    0.258046
      4          6           0        0.426535   -0.191794   -0.443782
      5          6           0       -0.851440    0.389869    0.200526
      6          6           0       -0.927170    1.905656   -0.048996
      7          6           0       -2.125638   -0.354884   -0.287328
      8          6           0       -2.175237   -1.806118    0.219293
      9          6           0       -3.429066    0.353982    0.116114
     10          1           0        5.145381   -0.534008   -0.189216
     11          1           0        4.277890   -0.409471    1.346788
     12          1           0        4.441409    1.010174    0.307775
     13          1           0        2.860409   -1.531488   -0.421234
     14          1           0        3.021740   -0.122101   -1.451397
     15          1           0        1.862660    1.275015    0.280143
     16          1           0        1.689270   -0.134770    1.308693
     17          1           0        0.365694   -1.285169   -0.472407
     18          1           0        0.469056    0.132915   -1.493806
     19          1           0       -0.783062    0.231472    1.288436
     20          1           0       -1.108279    2.117814   -1.110142
     21          1           0        0.007681    2.400089    0.229205
     22          1           0       -1.725241    2.379602    0.527392
     23          1           0       -2.087589   -0.379195   -1.387265
     24          1           0       -2.231198   -1.830497    1.314548
     25          1           0       -1.304099   -2.393559   -0.081163
     26          1           0       -3.062456   -2.319393   -0.165963
     27          1           0       -3.486722    0.482313    1.204237
     28          1           0       -4.296895   -0.239860   -0.189474
     29          1           0       -3.528915    1.340335   -0.343007
 ---------------------------------------------------------------------

 SCF Done:  E(RB3LYP) =  -355.051723554     A.U. after    1 cycles

 The electronic state is 1-A.
 Alpha  occ. eigenvalues --  -10.18071 -10.17886 -10.17447 -10.17173 -10.16965
 Alpha  occ. eigenvalues --  -10.16874 -10.16643 -10.16607 -10.16548  -0.81726
 Alpha  occ. eigenvalues --   -0.78312  -0.74104  -0.70097  -0.67408  -0.63816
 Alpha  occ. eigenvalues --   -0.59510  -0.56901  -0.54296  -0.46866  -0.44856
 Alpha  occ. eigenvalues --   -0.44641  -0.42610  -0.41858  -0.40864  -0.39416
 Alpha  occ. eigenvalues --   -0.37815  -0.37658  -0.36766  -0.35610  -0.34479
 Alpha  occ. eigenvalues --   -0.34019  -0.33447  -0.32555  -0.31783  -0.30956
 Alpha  occ. eigenvalues --   -0.29925  -0.29161
 Alpha virt. eigenvalues --    0.08390   0.09877   0.11017   0.11489   0.12734
 Alpha virt. eigenvalues --    0.13813   0.14567   0.15283   0.15670   0.16801
 Alpha virt. eigenvalues --    0.17152   0.17878   0.18136   0.18698   0.18971

 Mulliken charges:
               1
     1  C   -0.380034
     2  C   -0.161559
     3  C   -0.168230
     4  C   -0.187136
     5  C    0.049326
     6  C   -0.408534
     7  C    0.046499
     8  C   -0.393636
     9  C   -0.399445
    10  H    0.109454
    11  H    0.112310
    12  H    0.112347
    13  H    0.092590
    14  H    0.093053
    15  H    0.094194
    16  H    0.089783
    17  H    0.090135
    18  H    0.086996
    19  H    0.061066
    20  H    0.109167
    21  H    0.111264
    22  H    0.113871
    23  H    0.065909
    24  H    0.109995
    25  H    0.113625
    26  H    0.108268
    27  H    0.109041
    28  H    0.106168
    29  H    0.113514
 Sum of Mulliken charges =  -0.00000

 Dipole moment (field-independent basis, Debye):
    X=              0.0037    Y=             -0.0357    Z=             -0.0492  Tot=              0.0609
 Quadrupole moment (field-independent basis, Debye-Ang):
   XX=            -62.3405   YY=            -61.6620   ZZ=            -60.9782
   XY=              0.0383   XZ=             -0.0289   YZ=             -0.1393

  Exact polarizability: 119.979   0.131  95.798  -0.071  -0.036  85.858
 Approx polarizability: 138.055   0.469 135.454  -0.229  -0.426 135.213

                      1                      2                      3
                      A                      A                      A
 Frequencies --     31.5529                49.2908                72.3259
 Red. masses --      1.6600                 2.5290                 2.5200
 Frc consts  --      0.0010                 0.0036                 0.0078
 IR Inten    --      0.0015                 0.0018                 0.0043

                      4                      5                      6
                      A                      A                      A
 Frequencies --    120.7015               128.7615               200.2530
 Red. masses --      2.5953                 2.1336                 1.1908
 Frc consts  --      0.0223                 0.0208                 0.0281
 IR Inten    --      0.0110                 0.0069                 0.0079

                      7                      8                      9
                      A                      A                      A
 Frequencies --    216.2383               236.9016               244.8173
 Red. masses --      1.1219                 1.4083                 1.1176
 Frc consts  --      0.0309                 0.0466                 0.0395
 IR Inten    --      0.0661                 0.0062                 0.0011

                     10                     11                     12
                      A                      A                      A
 Frequencies --    271.3146               298.4714               340.9546
 Red. masses --      2.0590                 2.4233                 1.9812
 Frc consts  --      0.0893                 0.1272                 0.1357
 IR Inten    --      0.0176                 0.0137                 0.0273

                     13                     14                     15
                      A                      A                      A
 Frequencies --    373.0986               404.0351               450.0597
 Red. masses --      1.9507                 2.2484                 2.6561
 Frc consts  --      0.1600                 0.2163                 0.3170
 IR Inten    --      0.1121                 0.1101                 0.2128

                     16                     17                     18
                      A                      A                      A
 Frequencies --    458.5912               515.4145               731.1650
 Red. masses --      2.3835                 2.3440                 1.0894
 Frc consts  --      0.2953                 0.3669                 0.3431
 IR Inten    --      0.1309                 0.0348                 3.0821

                     19                     20                     21
                      A                      A                      A
 Frequencies --    779.4251               795.4749               878.4695
 Red. masses --      1.4684                 1.6476                 2.5117
 Frc consts  --      0.5256                 0.6143                 1.1420
 IR Inten    --      0.2512                 0.0337                 2.2724

                     22                     23                     24
                      A                      A                      A
 Frequencies --    904.3550               915.1323               925.5284
 Red. masses --      1.7853                 1.2463                 1.1962
 Frc consts  --      0.8603                 0.6150                 0.6037
 IR Inten    --      1.5207                 0.9470                 0.5476

                     25                     26                     27
                      A                      A                      A
 Frequencies --    945.9958               963.7141               987.9843
 Red. masses --      1.8925                 1.4670                 1.2277
 Frc consts  --      0.9979                 0.8027                 0.7060
 IR Inten    --      0.5018                 0.2250                 3.8017

                     28                     29                     30
                      A                      A                      A
 Frequencies --   1022.6385              1026.7790              1065.2217
 Red. masses --      3.2001                 1.4151                 2.3928
 Frc consts  --      1.9718                 0.8790                 1.5997
 IR Inten    --      0.7566                 0.7486                 0.7546

                     31                     32                     33
                      A                      A                      A
 Frequencies --   1078.7230              1102.6207              1166.6715
 Red. masses --      2.1288                 1.8558                 2.3023
 Frc consts  --      1.4595                 1.3293                 1.8463
 IR Inten    --      2.2863                 0.3194                 0.4553

                     34                     35                     36
                      A                      A                      A
 Frequencies --   1174.5610              1194.5061              1198.1367
 Red. masses --      1.9161                 1.7427                 2.1378
 Frc consts  --      1.5575                 1.4651                 1.8081
 IR Inten    --      8.3155                 0.7454                 0.6785

                     37                     38                     39
                      A                      A                      A
 Frequencies --   1246.6152              1272.9245              1310.9686
 Red. masses --      1.4720                 1.3016                 1.3357
 Frc consts  --      1.3478                 1.2426                 1.3525
 IR Inten    --      4.4133                 2.5541                 1.8145

                     40                     41                     42
                      A                      A                      A
 Frequencies --   1317.6773              1331.7841              1343.9272
 Red. masses --      1.2227                 1.0703                 1.2825
 Frc consts  --      1.2508                 1.1185                 1.3648
 IR Inten    --      0.4906                 0.1460                 5.0025

                     43                     44                     45
                      A                      A                      A
 Frequencies --   1355.5899              1372.1856              1383.4594
 Red. masses --      1.3537                 1.3893                 1.4124
 Frc consts  --      1.4656                 1.5413                 1.5927
 IR Inten    --      2.4534                 3.5570                 0.7303

                     46                     47                     48
                      A                      A                      A
 Frequencies --   1395.3262              1403.5929              1411.5812
 Red. masses --      1.5070                 1.2965                 1.2301
 Frc consts  --      1.7287                 1.5049                 1.4441
 IR Inten    --      2.2051                 0.6337                 4.9444

                     49                     50                     51
                      A                      A                      A
 Frequencies --   1413.1489              1423.1215              1478.7999
 Red. masses --      1.2516                 1.2149                 1.0733
 Frc consts  --      1.4726                 1.4497                 1.3830
 IR Inten    --      2.9012                 2.8795                 0.8753

                     52                     53                     54
                      A                      A                      A
 Frequencies --   1485.2980              1487.1076              1491.4265
 Red. masses --      1.0670                 1.0500                 1.0454
 Frc consts  --      1.3869                 1.3682                 1.3700
 IR Inten    --      0.8711                 0.4740                 1.9306

                     55                     56                     57
                      A                      A                      A
 Frequencies --   1497.1274              1499.7340              1500.7440
 Red. masses --      1.0660                 1.0408                 1.0582
 Frc consts  --      1.4078                 1.3793                 1.4042
 IR Inten    --      1.3788                 5.1434                 1.2128

                     58                     59                     60
                      A                      A                      A
 Frequencies --   1506.1046              1507.9859              1514.2194
 Red. masses --      1.0552                 1.0569                 1.0792
 Frc consts  --      1.4103                 1.4161                 1.4578
 IR Inten    --      1.6074                 4.4758                 9.9697

                     61                     62                     63
                      A                      A                      A
 Frequencies --   1522.1441              2974.6644              2988.9889
 Red. masses --      1.0488                 1.0794                 1.0820
 Frc consts  --      1.4318                 5.6272                 5.6956
 IR Inten    --      2.4388                 1.6790                18.5719

                     64                     65                     66
                      A                      A                      A
 Frequencies --   3001.9457              3007.5712              3016.6413
 Red. masses --      1.0650                 1.0617                 1.0629
 Frc consts  --      5.6546                 5.6582                 5.6988
 IR Inten    --      2.1873                 6.3767                74.3895

                     67                     68                     69
                      A                      A                      A
 Frequencies --   3024.2250              3027.4514              3029.0504
 Red. masses --      1.0388                 1.0376                 1.0490
 Frc consts  --      5.5978                 5.6034                 5.6706
 IR Inten    --     19.3943                37.7835                35.0199

                     70                     71                     72
                      A                      A                      A
 Frequencies --   3029.7891              3033.0651              3049.4589
 Red. masses --      1.0456                 1.0795                 1.0972
 Frc consts  --      5.6551                 5.8509                 6.0116
 IR Inten    --     20.7034                 3.1021                 6.1884

                     73                     74                     75
                      A                      A                      A
 Frequencies --   3069.9428              3085.1196              3092.4980
 Red. masses --      1.0992                 1.0997                 1.0988
 Frc consts  --      6.1038                 6.1669                 6.1916
 IR Inten    --     60.6301                 1.9522                60.7120

                     76                     77                     78
                      A                      A                      A
 Frequencies --   3093.7124              3098.6106              3099.0461
 Red. masses --      1.1020                 1.0965                 1.0988
 Frc consts  --      6.2143                 6.2030                 6.2177
 IR Inten    --     61.4658                22.4386                59.7477

                     79                     80                     81
                      A                      A                      A
 Frequencies --   3110.8220              3113.2879              3119.9900
 Red. masses --      1.1001                 1.0979                 1.0985
 Frc consts  --      6.2722                 6.2696                 6.3003
 IR Inten    --     34.2119                54.1221                21.3510

 - Thermochemistry -
 -------------------
 Temperature   298.150 Kelvin.  Pressure   1.00000 Atm.
 Atom     1 has atomic number  6 and mass  12.00000

 Molecular mass:   128.15650 amu.
 Principal axes and moments of inertia in atomic units:
                           1         2         3
     Eigenvalues --   558.738932925.907683302.10925
           X            1.00000   0.00012   0.00018
           Y           -0.00012   1.00000  -0.00103
           Z           -0.00018   0.00103   1.00000
 This molecule is an asymmetric top.
 Rotational symmetry number  1.
 Warning -- assumption of classical behavior for rotation
           may cause significant error
 Rotational temperatures (Kelvin)      0.15502     0.02960     0.02623
 Rotational constants (GHZ):           3.23003     0.61681     0.54654
 Zero-point vibrational energy     716613.1 (Joules/Mol)
                                  171.27465 (Kcal/Mol)
 Warning -- explicit consideration of  17 degrees of freedom as
           vibrations may cause significant error
 Vibrational temperatures:     45.40    70.92   104.06   173.66   185.26
          (Kelvin)            288.12   311.12   340.85   352.24   390.36
                              429.43   490.56   536.81   581.32   647.54
                              659.81   741.57  1051.98  1121.42  1144.51
                             1263.92  1301.17  1316.67  1331.63  1361.08
                             1386.57  1421.49  1471.35  1477.31  1532.62
                             1552.04  1586.43  1678.58  1689.93  1718.63
                             1723.85  1793.60  1831.45  1886.19  1895.84
                             1916.14  1933.61  1950.39  1974.27  1990.49
                             2007.56  2019.46  2030.95  2033.21  2047.55
                             2127.66  2137.01  2139.62  2145.83  2154.03
                             2157.78  2159.24  2166.95  2169.66  2178.62
                             2190.03  4279.88  4300.49  4319.13  4327.22
                             4340.27  4351.19  4355.83  4358.13  4359.19
                             4363.90  4387.49  4416.96  4438.80  4449.41
                             4451.16  4458.21  4458.84  4475.78  4479.33
                             4488.97

 Zero-point correction=                           0.272944 (Hartree/Particle)
 Thermal correction to Energy=                    0.285377
 Thermal correction to Enthalpy=                  0.286322
 Thermal correction to Gibbs Free Energy=         0.234083
 Sum of electronic and zero-point Energies=           -354.778780
 Sum of electronic and thermal Energies=              -354.766346
 Sum of electronic and thermal Enthalpies=            -354.765402
 Sum of electronic and thermal Free Energies=         -354.817641

                     E (Thermal)             CV                S
                      KCal/Mol        Cal/Mol-Kelvin    Cal/Mol-Kelvin
 Total                  179.077             45.225            109.946
 Electronic               0.000              0.000              0.000
 Translational            0.889              2.981             40.457
 Rotational               0.889              2.981             30.069
 Vibrational            177.300             39.263             39.420
 Vibration     1          0.594              1.983              5.729
 Vibration     2          0.595              1.978              4.846
 Vibration     3          0.598              1.967              4.089
 Vibration     4          0.609              1.932              3.089
 Vibration     5          0.611              1.924              2.964
 Vibration     6          0.638              1.840              2.131
 Vibration     7          0.645              1.816              1.990
 Vibration     8          0.656              1.784              1.826
 Vibration     9          0.660              1.771              1.768
 Vibration    10          0.675              1.726              1.588
 Vibration    11          0.692              1.677              1.425
 Vibration    12          0.720              1.594              1.208
 Vibration    13          0.745              1.527              1.067
 Vibration    14          0.769              1.461              0.948
 Vibration    15          0.809              1.361              0.796
 Vibration    16          0.817              1.342              0.770
 Vibration    17          0.870              1.216              0.621

 Optimization completed.
    -- Stationary point found.
 Normal termination of Gaussian 16 at Sun May 28 09:45:55 2023.
