 Gaussian 16, Revision A.03,
 Gaussian 16:  ES64L-G16RevA.03 25-Dec-2016

 -----------------------------
 # opt freq b3lyp/6-31g(2df,p)
 -----------------------------

 -------------------
 Title Card Required
 -------------------
 Symbolic Z-matrix:
 Charge =  0 Multiplicity = 1

 SCF Done:  E(RB3LYP) =  -625.589238995     A.U. after   12 cycles
 SCF Done:  E(RB3LYP) =  -625.598473082     A.U. after   10 cycles
 SCF Done:  E(RB3LYP) =  -625.601376407     A.U. after   10 cycles
 SCF Done:  E(RB3LYP) =  -625.603810689     A.U. after   10 cycles
 SCF Done:  E(RB3LYP) =  -625.608695252     A.U. after   11 cycles
 SCF Done:  E(RB3LYP) =  -625.611521290     A.U. after   10 cycles
 SCF Done:  E(RB3LYP) =  -625.614008326     A.U. after   10 cycles
 SCF Done:  E(RB3LYP) =  -625.614841417     A.U. after   10 cycles
 SCF Done:  E(RB3LYP) =  -625.615155043     A.U. after   10 cycles
 SCF Done:  E(RB3LYP) =  -625.615329570     A.U. after    9 cycles
 SCF Done:  E(RB3LYP) =  -625.615967396     A.U. after    9 cycles
 SCF Done:  E(RB3LYP) =  -625.615936553     A.U. after    9 cycles
 SCF Done:  E(RB3LYP) =  -625.615970473     A.U. after    9 cycles
 SCF Done:  E(RB3LYP) =  -625.615954615     A.U. after    9 cycles
 SCF Done:  E(RB3LYP) =  -625.615971989     A.U. after    9 cycles
 SCF Done:  E(RB3LYP) =  -625.615972124     A.U. after    6 cycles
 SCF Done:  E(RB3LYP) =  -625.615971939     A.U. after    7 cycles
 SCF Done:  E(RB3LYP) =  -625.615972100     A.U. after    8 cycles
 SCF Done:  E(RB3LYP) =  -625.615972171     A.U. after    6 cycles
 Optimization completed.
    -- Stationary point found.
 Normal termination of Gaussian 16 at Tue May 23 09:53:15 2023.

 ----------------------------------------------------------------------
 #N Geom=AllCheck Guess=TCheck SCRF=Check GenChk RB3LYP/6-31G(2df,p) Fr
 eq
 ----------------------------------------------------------------------

 Structure from the checkpoint file:  "CCCCC1CCCqCrCCCCOC1.chk"
 -------------------
 Title Card Required
 -------------------
 Charge =  0 Multiplicity = 1

                         Standard orientation:
 ---------------------------------------------------------------------
 Center     Atomic      Atomic             Coordinates (Angstroms)
 Number     Number       Type             X           Y           Z
 ---------------------------------------------------------------------
      1          6           0        5.521594    0.704519   -0.441570
      2          6           0        4.334811   -0.213380   -0.746801
      3          6           0        3.175872   -0.053106    0.243600
      4          6           0        1.989801   -0.976286   -0.059869
      5          6           0        0.843565   -0.891933    0.965195
      6          6           0        0.157743    0.497511    1.079117
      7          6           0       -0.128268    1.220248   -0.260670
      8          6           0       -1.426178    2.067257   -0.379265
      9          6           0       -1.775007    2.861285    0.887688
     10          6           0       -2.633577    1.290525   -0.959827
     11          6           0       -3.354959    0.229081   -0.082878
     12          6           0       -3.441531   -1.184077   -0.713465
     13          6           0       -2.424133   -2.165573   -0.137635
     14          8           0       -1.124341   -1.621908   -0.251714
     15          6           0       -0.214308   -1.988973    0.767399
     16          1           0        6.331880    0.566548   -1.164514
     17          1           0        5.928959    0.506683    0.556369
     18          1           0        5.224727    1.758946   -0.472050
     19          1           0        4.670039   -1.259221   -0.745005
     20          1           0        3.970459   -0.015595   -1.763652
     21          1           0        2.847058    0.994082    0.242169
     22          1           0        3.540407   -0.253311    1.261635
     23          1           0        2.351285   -2.013631   -0.079941
     24          1           0        1.614200   -0.772992   -1.069287
     25          1           0        1.289228   -1.110872    1.947108
     26          1           0        0.778747    1.146734    1.706169
     27          1           0       -0.768603    0.353022    1.643671
     28          1           0       -0.147852    0.491251   -1.072514
     29          1           0        0.719382    1.884187   -0.470641
     30          1           0       -1.201613    2.814379   -1.153613
     31          1           0       -2.067425    2.213737    1.720143
     32          1           0       -2.609521    3.545363    0.698188
     33          1           0       -0.922917    3.461792    1.224695
     34          1           0       -2.292807    0.812405   -1.885422
     35          1           0       -3.373837    2.037495   -1.273940
     36          1           0       -4.370840    0.580544    0.124289
     37          1           0       -2.872715    0.147026    0.896010
     38          1           0       -3.314439   -1.118665   -1.800299
     39          1           0       -4.434449   -1.619816   -0.548408
     40          1           0       -2.486815   -3.140349   -0.648486
     41          1           0       -2.658154   -2.342884    0.924863
     42          1           0        0.262797   -2.956403    0.536989
     43          1           0       -0.765000   -2.117773    1.713060
 ---------------------------------------------------------------------

 SCF Done:  E(RB3LYP) =  -625.615972171     A.U. after    1 cycles

 The electronic state is 1-A.
 Alpha  occ. eigenvalues --  -19.13226 -10.22174 -10.21925 -10.17952 -10.17530
 Alpha  occ. eigenvalues --  -10.17509 -10.17343 -10.17130 -10.17083 -10.16894
 Alpha  occ. eigenvalues --  -10.16831 -10.16797 -10.16626 -10.16330 -10.16134
 Alpha  occ. eigenvalues --   -1.02549  -0.81271  -0.80057  -0.78018  -0.75449
 Alpha  occ. eigenvalues --   -0.71852  -0.70741  -0.68039  -0.63957  -0.63217
 Alpha  occ. eigenvalues --   -0.61709  -0.57441  -0.57211  -0.54529  -0.52338
 Alpha  occ. eigenvalues --   -0.49144  -0.47994  -0.46817  -0.46267  -0.43573
 Alpha  occ. eigenvalues --   -0.43196  -0.42755  -0.42159  -0.41202  -0.41035
 Alpha  occ. eigenvalues --   -0.39977  -0.39509  -0.37791  -0.37062  -0.36072
 Alpha  occ. eigenvalues --   -0.35369  -0.35058  -0.34358  -0.33998  -0.33514
 Alpha  occ. eigenvalues --   -0.32597  -0.32255  -0.31633  -0.31524  -0.30828
 Alpha  occ. eigenvalues --   -0.29926  -0.29441  -0.28485  -0.27971  -0.24600
 Alpha virt. eigenvalues --    0.07216   0.08400   0.09414   0.10545   0.10990
 Alpha virt. eigenvalues --    0.11665   0.12240   0.12715   0.12892   0.14097
 Alpha virt. eigenvalues --    0.14882   0.15033   0.16001   0.16136   0.16824

 Mulliken charges:
               1
     1  C   -0.379873
     2  C   -0.162434
     3  C   -0.168289
     4  C   -0.182159
     5  C   -0.021755
     6  C   -0.192826
     7  C   -0.182065
     8  C    0.013699
     9  C   -0.388704
    10  C   -0.188512
    11  C   -0.174665
    12  C   -0.208472
    13  C   -0.054565
    14  O   -0.242465
    15  C   -0.082253
    16  H    0.109286
    17  H    0.111656
    18  H    0.112427
    19  H    0.092024
    20  H    0.094569
    21  H    0.098566
    22  H    0.086693
    23  H    0.082341
    24  H    0.106011
    25  H    0.066666
    26  H    0.088071
    27  H    0.091831
    28  H    0.113796
    29  H    0.080908
    30  H    0.068030
    31  H    0.113955
    32  H    0.104009
    33  H    0.106639
    34  H    0.093628
    35  H    0.083241
    36  H    0.089958
    37  H    0.096724
    38  H    0.102725
    39  H    0.091635
    40  H    0.085464
    41  H    0.083521
    42  H    0.080318
    43  H    0.080642
 Sum of Mulliken charges =  -0.00000

 Dipole moment (field-independent basis, Debye):
    X=             -0.3285    Y=             -0.5764    Z=              0.6006  Tot=              0.8949
 Quadrupole moment (field-independent basis, Debye-Ang):
   XX=            -95.8460   YY=            -96.3989   ZZ=            -97.4025
   XY=              1.0707   XZ=             -0.0290   YZ=             -1.8336

  Exact polarizability: 180.688   1.818 154.266   2.765  -0.368 130.426
 Approx polarizability: 217.739   0.266 212.289   1.911  -1.392 209.516

                      1                      2                      3
                      A                      A                      A
 Frequencies --     36.2543                43.4268                47.0741
 Red. masses --      3.3010                 2.9816                 2.7335
 Frc consts  --      0.0026                 0.0033                 0.0036
 IR Inten    --      0.1149                 0.1569                 0.1319

                      4                      5                      6
                      A                      A                      A
 Frequencies --     67.3660                89.5213               120.3075
 Red. masses --      1.5302                 2.6736                 2.9177
 Frc consts  --      0.0041                 0.0126                 0.0249
 IR Inten    --      0.0266                 0.0476                 0.3009

                      7                      8                      9
                      A                      A                      A
 Frequencies --    127.2693               148.3793               177.6264
 Red. masses --      2.8124                 2.7496                 2.7767
 Frc consts  --      0.0268                 0.0357                 0.0516
 IR Inten    --      0.0932                 1.4937                 1.4267

                     10                     11                     12
                      A                      A                      A
 Frequencies --    217.0128               219.2897               229.3093
 Red. masses --      1.8526                 1.9341                 2.4455
 Frc consts  --      0.0514                 0.0548                 0.0758
 IR Inten    --      0.5917                 0.4681                 2.1200

                     13                     14                     15
                      A                      A                      A
 Frequencies --    240.5479               244.5696               251.9153
 Red. masses --      2.8248                 1.2315                 1.3201
 Frc consts  --      0.0963                 0.0434                 0.0494
 IR Inten    --      0.8127                 0.0389                 0.1078

                     16                     17                     18
                      A                      A                      A
 Frequencies --    276.1129               314.8202               339.1448
 Red. masses --      2.5968                 2.6789                 2.2155
 Frc consts  --      0.1166                 0.1564                 0.1501
 IR Inten    --      0.0651                 0.4632                 0.1808

                     19                     20                     21
                      A                      A                      A
 Frequencies --    365.0709               374.6510               403.9984
 Red. masses --      2.2678                 2.1998                 2.1521
 Frc consts  --      0.1781                 0.1819                 0.2070
 IR Inten    --      0.1719                 0.3201                 0.1183

                     22                     23                     24
                      A                      A                      A
 Frequencies --    441.2094               475.8735               509.4630
 Red. masses --      2.6068                 2.3510                 2.5013
 Frc consts  --      0.2990                 0.3137                 0.3825
 IR Inten    --      0.4231                 1.3395                 0.1116

                     25                     26                     27
                      A                      A                      A
 Frequencies --    596.9276               637.8030               714.0490
 Red. masses --      2.4518                 2.3604                 1.9916
 Frc consts  --      0.5147                 0.5657                 0.5983
 IR Inten    --      1.3917                 0.7351                 2.2572

                     28                     29                     30
                      A                      A                      A
 Frequencies --    735.6325               743.0835               795.3880
 Red. masses --      1.2222                 1.6420                 1.3988
 Frc consts  --      0.3897                 0.5342                 0.5214
 IR Inten    --      3.5990                 1.8259                 0.0322

                     31                     32                     33
                      A                      A                      A
 Frequencies --    821.2143               838.3236               852.8184
 Red. masses --      2.1316                 1.7782                 2.0692
 Frc consts  --      0.8470                 0.7363                 0.8867
 IR Inten    --      1.2773                 1.2692                 3.1797

                     34                     35                     36
                      A                      A                      A
 Frequencies --    892.8414               905.1326               918.7907
 Red. masses --      1.8059                 1.7967                 2.0149
 Frc consts  --      0.8482                 0.8673                 1.0022
 IR Inten    --      0.2203                 1.8388                 1.1722

                     37                     38                     39
                      A                      A                      A
 Frequencies --    933.5087               946.3520               956.6243
 Red. masses --      1.7926                 1.8267                 2.0673
 Frc consts  --      0.9204                 0.9639                 1.1146
 IR Inten    --      4.9604                 2.9626                 4.7965

                     40                     41                     42
                      A                      A                      A
 Frequencies --    970.4990               980.9482               998.5056
 Red. masses --      1.9390                 2.1692                 1.6980
 Frc consts  --      1.0760                 1.2298                 0.9974
 IR Inten    --      6.3741                 3.2584                 6.8690

                     43                     44                     45
                      A                      A                      A
 Frequencies --   1027.2823              1036.7351              1058.7426
 Red. masses --      2.1655                 2.4386                 2.0596
 Frc consts  --      1.3464                 1.5443                 1.3602
 IR Inten    --      5.2445                 3.4681                 1.9832

                     46                     47                     48
                      A                      A                      A
 Frequencies --   1068.3332              1074.7057              1075.1365
 Red. masses --      2.3501                 1.9962                 2.1206
 Frc consts  --      1.5804                 1.3584                 1.4442
 IR Inten    --      2.5356                 1.0458                 7.6171

                     49                     50                     51
                      A                      A                      A
 Frequencies --   1105.2922              1110.1320              1131.4821
 Red. masses --      2.2172                 1.6119                 2.4042
 Frc consts  --      1.5959                 1.1704                 1.8135
 IR Inten    --     16.3015                10.2057                25.1916

                     52                     53                     54
                      A                      A                      A
 Frequencies --   1144.3077              1150.2842              1165.5401
 Red. masses --      1.9170                 2.0293                 3.0247
 Frc consts  --      1.4790                 1.5820                 2.4210
 IR Inten    --     27.0351                 3.6806                77.5300

                     55                     56                     57
                      A                      A                      A
 Frequencies --   1176.6339              1225.6609              1235.5184
 Red. masses --      2.5232                 1.2424                 1.4114
 Frc consts  --      2.0582                 1.0997                 1.2694
 IR Inten    --     50.7837                 7.9753                 0.8740

                     58                     59                     60
                      A                      A                      A
 Frequencies --   1242.9359              1254.3662              1272.5052
 Red. masses --      1.2350                 1.2230                 1.2932
 Frc consts  --      1.1242                 1.1337                 1.2337
 IR Inten    --      2.6194                 2.8548                 1.4685

                     61                     62                     63
                      A                      A                      A
 Frequencies --   1283.3519              1291.7300              1298.5439
 Red. masses --      1.1707                 1.1954                 1.1739
 Frc consts  --      1.1361                 1.1752                 1.1662
 IR Inten    --      1.5978                 4.1283                 1.0304

                     64                     65                     66
                      A                      A                      A
 Frequencies --   1301.8771              1315.5781              1327.7258
 Red. masses --      1.1477                 1.1706                 1.3292
 Frc consts  --      1.1460                 1.1937                 1.3806
 IR Inten    --      4.4121                 3.4922                 2.6621

                     67                     68                     69
                      A                      A                      A
 Frequencies --   1331.1500              1344.1186              1354.0314
 Red. masses --      1.0729                 1.3636                 1.3002
 Frc consts  --      1.1201                 1.4514                 1.4045
 IR Inten    --      0.9224                 3.3461                 2.6623

                     70                     71                     72
                      A                      A                      A
 Frequencies --   1360.0423              1365.6288              1373.7827
 Red. masses --      1.2961                 1.3213                 1.3886
 Frc consts  --      1.4125                 1.4519                 1.5440
 IR Inten    --      0.0895                 5.0791                 2.2369

                     73                     74                     75
                      A                      A                      A
 Frequencies --   1380.6922              1392.1971              1394.5231
 Red. masses --      1.4210                 1.4493                 1.2533
 Frc consts  --      1.5961                 1.6550                 1.4360
 IR Inten    --      2.2988                 5.7879                32.8556

                     76                     77                     78
                      A                      A                      A
 Frequencies --   1400.6229              1402.2640              1409.2634
 Red. masses --      1.2895                 1.4407                 1.2935
 Frc consts  --      1.4905                 1.6691                 1.5136
 IR Inten    --      3.4600                 3.4939                 3.7158

                     79                     80                     81
                      A                      A                      A
 Frequencies --   1413.5380              1420.5560              1441.3381
 Red. masses --      1.2801                 1.3529                 1.3468
 Frc consts  --      1.5070                 1.6085                 1.6485
 IR Inten    --      0.8811                 4.3223                 2.4417

                     82                     83                     84
                      A                      A                      A
 Frequencies --   1478.4658              1481.3762              1484.9896
 Red. masses --      1.0835                 1.0781                 1.0711
 Frc consts  --      1.3954                 1.3939                 1.3916
 IR Inten    --      1.1345                 5.9668                 2.9469

                     85                     86                     87
                      A                      A                      A
 Frequencies --   1486.5305              1489.5721              1493.6812
 Red. masses --      1.0781                 1.0824                 1.0627
 Frc consts  --      1.4037                 1.4150                 1.3969
 IR Inten    --      1.4393                 2.4420                 0.4499

                     88                     89                     90
                      A                      A                      A
 Frequencies --   1498.3603              1499.7891              1501.3540
 Red. masses --      1.0656                 1.0404                 1.0741
 Frc consts  --      1.4095                 1.3788                 1.4265
 IR Inten    --      5.1451                 4.5427                 4.6129

                     91                     92                     93
                      A                      A                      A
 Frequencies --   1501.7764              1504.2784              1507.8762
 Red. masses --      1.0782                 1.0595                 1.0724
 Frc consts  --      1.4327                 1.4126                 1.4367
 IR Inten    --      5.7737                 5.9937                 6.2702

                     94                     95                     96
                      A                      A                      A
 Frequencies --   1513.0068              1528.8676              2948.9261
 Red. masses --      1.0897                 1.0964                 1.0550
 Frc consts  --      1.4698                 1.5099                 5.4056
 IR Inten    --      2.2047                 4.7139                16.1803

                     97                     98                     99
                      A                      A                      A
 Frequencies --   2962.9479              2982.2901              2986.3196
 Red. masses --      1.0563                 1.0986                 1.0808
 Frc consts  --      5.4634                 5.7567                 5.6787
 IR Inten    --     95.6339                46.8064                10.6051

                    100                    101                    102
                      A                      A                      A
 Frequencies --   2988.1429              2992.8527              3001.8267
 Red. masses --      1.1039                 1.0870                 1.0622
 Frc consts  --      5.8076                 5.7366                 5.6395
 IR Inten    --     45.8634                34.4460                11.1921

                    103                    104                    105
                      A                      A                      A
 Frequencies --   3010.1139              3014.3347              3015.3801
 Red. masses --      1.0632                 1.0669                 1.0674
 Frc consts  --      5.6758                 5.7114                 5.7180
 IR Inten    --      6.2351                34.8544                60.3746

                    106                    107                    108
                      A                      A                      A
 Frequencies --   3023.4707              3027.1509              3027.6592
 Red. masses --      1.0705                 1.0371                 1.0519
 Frc consts  --      5.7655                 5.5993                 5.6810
 IR Inten    --     60.9004                34.0997                 7.1158

                    109                    110                    111
                      A                      A                      A
 Frequencies --   3028.9722              3032.9131              3039.8979
 Red. masses --      1.0534                 1.0892                 1.0635
 Frc consts  --      5.6940                 5.9030                 5.7905
 IR Inten    --     40.1091                 6.2735                42.2950

                    112                    113                    114
                      A                      A                      A
 Frequencies --   3043.7617              3050.2867              3052.9547
 Red. masses --      1.0673                 1.0959                 1.0954
 Frc consts  --      5.8257                 6.0079                 6.0152
 IR Inten    --      5.2551                13.5954                30.8276

                    115                    116                    117
                      A                      A                      A
 Frequencies --   3068.9909              3070.2952              3072.8704
 Red. masses --      1.0990                 1.0979                 1.0988
 Frc consts  --      6.0989                 6.0976                 6.1131
 IR Inten    --     75.9626                19.1479                86.2087

                    118                    119                    120
                      A                      A                      A
 Frequencies --   3081.5634              3090.4927              3093.5220
 Red. masses --      1.0985                 1.1012                 1.1020
 Frc consts  --      6.1462                 6.1971                 6.2136
 IR Inten    --     19.4667                44.5395                58.6851

                    121                    122                    123
                      A                      A                      A
 Frequencies --   3098.7774              3100.1381              3108.1607
 Red. masses --      1.1009                 1.0986                 1.0911
 Frc consts  --      6.2285                 6.2208                 6.2104
 IR Inten    --     39.2352                50.6963                24.5404

 - Thermochemistry -
 -------------------
 Temperature   298.150 Kelvin.  Pressure   1.00000 Atm.
 Atom     1 has atomic number  6 and mass  12.00000

 Molecular mass:   212.21402 amu.
 Principal axes and moments of inertia in atomic units:
                           1         2         3
     Eigenvalues --  2094.153495968.432627261.07163
           X            1.00000   0.00005  -0.00315
           Y           -0.00005   1.00000   0.00153
           Z            0.00315  -0.00153   0.99999
 This molecule is an asymmetric top.
 Rotational symmetry number  1.
 Warning -- assumption of classical behavior for rotation
           may cause significant error
 Rotational temperatures (Kelvin)      0.04136     0.01451     0.01193
 Rotational constants (GHZ):           0.86180     0.30238     0.24855
 Zero-point vibrational energy    1053561.6 (Joules/Mol)
                                  251.80726 (Kcal/Mol)
 Warning -- explicit consideration of  25 degrees of freedom as
           vibrations may cause significant error
 Vibrational temperatures:     52.16    62.48    67.73    96.92   128.80
          (Kelvin)            173.10   183.11   213.48   255.56   312.23
                              315.51   329.92   346.09   351.88   362.45
                              397.26   452.96   487.95   525.26   539.04
                              581.26   634.80   684.68   733.00   858.85
                              917.66  1027.36  1058.41  1069.13  1144.39
                             1181.54  1206.16  1227.02  1284.60  1302.28
                             1321.93  1343.11  1361.59  1376.37  1396.33
                             1411.37  1436.63  1478.03  1491.63  1523.29
                             1537.09  1546.26  1546.88  1590.27  1597.23
                             1627.95  1646.40  1655.00  1676.95  1692.91
                             1763.45  1777.64  1788.31  1804.75  1830.85
                             1846.46  1858.51  1868.32  1873.11  1892.82
                             1910.30  1915.23  1933.89  1948.15  1956.80
                             1964.84  1976.57  1986.51  2003.06  2006.41
                             2015.18  2017.55  2027.62  2033.77  2043.86
                             2073.76  2127.18  2131.37  2136.57  2138.79
                             2143.16  2149.07  2155.81  2157.86  2160.11
                             2160.72  2164.32  2169.50  2176.88  2199.70
                             4242.85  4263.02  4290.85  4296.65  4299.27
                             4306.05  4318.96  4330.88  4336.96  4338.46
                             4350.10  4355.39  4356.13  4358.02  4363.69
                             4373.74  4379.29  4388.68  4392.52  4415.59
                             4417.47  4421.18  4433.68  4446.53  4450.89
                             4458.45  4460.41  4471.95

 Zero-point correction=                           0.401280 (Hartree/Particle)
 Thermal correction to Energy=                    0.418801
 Thermal correction to Enthalpy=                  0.419745
 Thermal correction to Gibbs Free Energy=         0.355630
 Sum of electronic and zero-point Energies=           -625.214692
 Sum of electronic and thermal Energies=              -625.197172
 Sum of electronic and thermal Enthalpies=            -625.196227
 Sum of electronic and thermal Free Energies=         -625.260342

                     E (Thermal)             CV                S
                      KCal/Mol        Cal/Mol-Kelvin    Cal/Mol-Kelvin
 Total                  262.801             66.475            134.941
 Electronic               0.000              0.000              0.000
 Translational            0.889              2.981             41.961
 Rotational               0.889              2.981             32.873
 Vibrational            261.024             60.514             60.107
 Vibration     1          0.594              1.982              5.454
 Vibration     2          0.595              1.980              5.096
 Vibration     3          0.595              1.979              4.937
 Vibration     4          0.598              1.970              4.229
 Vibration     5          0.602              1.957              3.670
 Vibration     6          0.609              1.932              3.095
 Vibration     7          0.611              1.926              2.987
 Vibration     8          0.618              1.904              2.693
 Vibration     9          0.628              1.870              2.353
 Vibration    10          0.646              1.815              1.984
 Vibration    11          0.647              1.812              1.965
 Vibration    12          0.652              1.796              1.884
 Vibration    13          0.658              1.778              1.799
 Vibration    14          0.660              1.772              1.769
 Vibration    15          0.664              1.760              1.717
 Vibration    16          0.678              1.718              1.558
 Vibration    17          0.702              1.645              1.337
 Vibration    18          0.719              1.597              1.216
 Vibration    19          0.738              1.544              1.100
 Vibration    20          0.746              1.524              1.061
 Vibration    21          0.769              1.461              0.948
 Vibration    22          0.801              1.380              0.823
 Vibration    23          0.833              1.304              0.721
 Vibration    24          0.865              1.229              0.635
 Vibration    25          0.955              1.038              0.455

 Optimization completed.
    -- Stationary point found.
 Normal termination of Gaussian 16 at Tue May 23 13:43:21 2023.
