 Gaussian 16, Revision A.03,
 Gaussian 16:  ES64L-G16RevA.03 25-Dec-2016

 -----------------------------
 # opt freq b3lyp/6-31g(2df,p)
 -----------------------------

 -------------------
 Title Card Required
 -------------------
 Symbolic Z-matrix:
 Charge =  0 Multiplicity = 1

 SCF Done:  E(RB3LYP) =  -158.471764624     A.U. after   11 cycles
 SCF Done:  E(RB3LYP) =  -158.472581078     A.U. after    9 cycles
 SCF Done:  E(RB3LYP) =  -158.472650723     A.U. after    8 cycles
 Optimization completed.
    -- Stationary point found.
 Normal termination of Gaussian 16 at Sat May 27 20:01:00 2023.

 ----------------------------------------------------------------------
 #N Geom=AllCheck Guess=TCheck SCRF=Check GenChk RB3LYP/6-31G(2df,p) Fr
 eq
 ----------------------------------------------------------------------

 Structure from the checkpoint file:  "CCCC.chk"
 -------------------
 Title Card Required
 -------------------
 Charge =  0 Multiplicity = 1

                         Standard orientation:
 ---------------------------------------------------------------------
 Center     Atomic      Atomic             Coordinates (Angstroms)
 Number     Number       Type             X           Y           Z
 ---------------------------------------------------------------------
      1          6           0       -1.960902   -0.120779   -0.000000
      2          6           0       -0.567442    0.515443   -0.000000
      3          6           0        0.567442   -0.515444   -0.000000
      4          6           0        1.960902    0.120779    0.000000
      5          1           0       -2.749130    0.638800   -0.000000
      6          1           0       -2.107404   -0.751900    0.883699
      7          1           0       -2.107403   -0.751902   -0.883698
      8          1           0       -0.462081    1.167637    0.877147
      9          1           0       -0.462081    1.167638   -0.877147
     10          1           0        0.462080   -1.167638   -0.877146
     11          1           0        0.462081   -1.167637    0.877147
     12          1           0        2.107404    0.751902   -0.883698
     13          1           0        2.749130   -0.638800    0.000001
     14          1           0        2.107403    0.751902    0.883698
 ---------------------------------------------------------------------

 SCF Done:  E(RB3LYP) =  -158.472650723     A.U. after    1 cycles

 The electronic state is 1-A.
 Alpha  occ. eigenvalues --  -10.17457 -10.17436 -10.16879 -10.16879  -0.78739
 Alpha  occ. eigenvalues --   -0.71799  -0.62539  -0.57094  -0.46202  -0.42000
 Alpha  occ. eigenvalues --   -0.41269  -0.40515  -0.36329  -0.34558  -0.32794
 Alpha  occ. eigenvalues --   -0.31809  -0.31690
 Alpha virt. eigenvalues --    0.09368   0.11877   0.13536   0.14543   0.17008
 Alpha virt. eigenvalues --    0.18301   0.18316   0.18763   0.19768   0.19851
 Alpha virt. eigenvalues --    0.23805   0.24880   0.25800   0.45208   0.46258

 Mulliken charges:
               1
     1  C   -0.377184
     2  C   -0.141554
     3  C   -0.141554
     4  C   -0.377184
     5  H    0.109526
     6  H    0.112328
     7  H    0.112328
     8  H    0.092278
     9  H    0.092277
    10  H    0.092278
    11  H    0.092277
    12  H    0.112328
    13  H    0.109526
    14  H    0.112328
 Sum of Mulliken charges =  -0.00000

 Dipole moment (field-independent basis, Debye):
    X=             -0.0000    Y=              0.0000    Z=              0.0000  Tot=              0.0000
 Quadrupole moment (field-independent basis, Debye-Ang):
   XX=            -28.8185   YY=            -28.1504   ZZ=            -27.6231
   XY=             -0.2692   XZ=             -0.0000   YZ=              0.0000

  Exact polarizability:  52.296  -0.032  43.081  -0.000  -0.000  41.784
 Approx polarizability:  60.273  -0.324  60.223  -0.000  -0.000  60.805

                      1                      2                      3
                      A                      A                      A
 Frequencies --    121.6254               223.0488               255.9256
 Red. masses --      1.9191                 1.0598                 2.2474
 Frc consts  --      0.0167                 0.0311                 0.0867
 IR Inten    --      0.0100                 0.0025                 0.0671

                      4                      5                      6
                      A                      A                      A
 Frequencies --    261.5952               421.8593               735.1733
 Red. masses --      1.1220                 2.7170                 1.0708
 Frc consts  --      0.0452                 0.2849                 0.3410
 IR Inten    --      0.0000                 0.0000                 3.3326

                      7                      8                      9
                      A                      A                      A
 Frequencies --    809.0994               840.5617               959.3469
 Red. masses --      1.1245                 1.9869                 1.1176
 Frc consts  --      0.4337                 0.8271                 0.6060
 IR Inten    --      0.0000                 0.0000                 0.9724

                     10                     11                     12
                      A                      A                      A
 Frequencies --    978.9372              1016.7455              1065.9204
 Red. masses --      1.3060                 2.9230                 2.4155
 Frc consts  --      0.7374                 1.7803                 1.6170
 IR Inten    --      4.6800                 0.0906                 0.0000

                     13                     14                     15
                      A                      A                      A
 Frequencies --   1168.9435              1212.6407              1289.4353
 Red. masses --      2.0493                 1.7531                 1.2505
 Frc consts  --      1.6499                 1.5189                 1.2250
 IR Inten    --      0.0000                 0.0000                 0.0872

                     16                     17                     18
                      A                      A                      A
 Frequencies --   1322.9769              1330.9845              1393.6146
 Red. masses --      1.3496                 1.0707                 1.5695
 Frc consts  --      1.3918                 1.1176                 1.7959
 IR Inten    --      7.0830                 0.0000                 0.0000

                     19                     20                     21
                      A                      A                      A
 Frequencies --   1410.7878              1412.4016              1484.1424
 Red. masses --      1.2226                 1.2420                 1.0622
 Frc consts  --      1.4337                 1.4597                 1.3785
 IR Inten    --      0.0000                 1.7343                 0.0000

                     22                     23                     24
                      A                      A                      A
 Frequencies --   1490.2450              1499.3569              1500.6030
 Red. masses --      1.0514                 1.0445                 1.0364
 Frc consts  --      1.3757                 1.3835                 1.3751
 IR Inten    --      1.2935                 0.0000                 9.7865

                     25                     26                     27
                      A                      A                      A
 Frequencies --   1505.6467              1512.8782              3008.7240
 Red. masses --      1.0641                 1.0856                 1.0578
 Frc consts  --      1.4213                 1.4639                 5.6416
 IR Inten    --      0.0000                 3.6422                 0.0000

                     28                     29                     30
                      A                      A                      A
 Frequencies --   3016.8711              3027.9512              3028.4068
 Red. masses --      1.0587                 1.0363                 1.0357
 Frc consts  --      5.6775                 5.5981                 5.5967
 IR Inten    --     43.2754                75.6083                 0.0000

                     31                     32                     33
                      A                      A                      A
 Frequencies --   3031.7559              3054.3944              3092.7170
 Red. masses --      1.0997                 1.1038                 1.1022
 Frc consts  --      5.9556                 6.0673                 6.2112
 IR Inten    --      0.0000                23.0993                 0.0000

                     34                     35                     36
                      A                      A                      A
 Frequencies --   3096.6587              3098.6750              3099.5383
 Red. masses --      1.1021                 1.1011                 1.1008
 Frc consts  --      6.2265                 6.2293                 6.2307
 IR Inten    --    107.8509                 0.0000                75.6676

 - Thermochemistry -
 -------------------
 Temperature   298.150 Kelvin.  Pressure   1.00000 Atm.
 Atom     1 has atomic number  6 and mass  12.00000

 Molecular mass:    58.07825 amu.
 Principal axes and moments of inertia in atomic units:
                           1         2         3
     Eigenvalues --    77.02913 500.88684 533.27937
           X            0.99998   0.00558  -0.00000
           Y           -0.00558   0.99998  -0.00000
           Z            0.00000   0.00000   1.00000
 This molecule is an asymmetric top.
 Rotational symmetry number  1.
 Rotational temperatures (Kelvin)      1.12443     0.17292     0.16242
 Rotational constants (GHZ):          23.42933     3.60309     3.38423
 Zero-point vibrational energy     345602.3 (Joules/Mol)
                                   82.60093 (Kcal/Mol)
 Warning -- explicit consideration of   5 degrees of freedom as
           vibrations may cause significant error
 Vibrational temperatures:    174.99   320.92   368.22   376.38   606.96
          (Kelvin)           1057.75  1164.11  1209.38  1380.29  1408.47
                             1462.87  1533.62  1681.85  1744.72  1855.21
                             1903.47  1914.99  2005.10  2029.81  2032.13
                             2135.35  2144.13  2157.24  2159.03  2166.29
                             2176.69  4328.88  4340.60  4356.55  4357.20
                             4362.02  4394.59  4449.73  4455.40  4458.30
                             4459.54

 Zero-point correction=                           0.131633 (Hartree/Particle)
 Thermal correction to Energy=                    0.137429
 Thermal correction to Enthalpy=                  0.138373
 Thermal correction to Gibbs Free Energy=         0.103608
 Sum of electronic and zero-point Energies=           -158.341018
 Sum of electronic and thermal Energies=              -158.335222
 Sum of electronic and thermal Enthalpies=            -158.334277
 Sum of electronic and thermal Free Energies=         -158.369043

                     E (Thermal)             CV                S
                      KCal/Mol        Cal/Mol-Kelvin    Cal/Mol-Kelvin
 Total                   86.238             19.709             73.170
 Electronic               0.000              0.000              0.000
 Translational            0.889              2.981             38.098
 Rotational               0.889              2.981             24.535
 Vibrational             84.461             13.747             10.537
 Vibration     1          0.609              1.931              3.074
 Vibration     2          0.649              1.806              1.934
 Vibration     3          0.666              1.753              1.689
 Vibration     4          0.669              1.743              1.651
 Vibration     5          0.784              1.423              0.886

 Optimization completed.
    -- Stationary point found.
 Normal termination of Gaussian 16 at Sat May 27 20:16:28 2023.
