 Gaussian 16, Revision A.03,
 Gaussian 16:  ES64L-G16RevA.03 25-Dec-2016

 -----------------------------
 # opt freq b3lyp/6-31g(2df,p)
 -----------------------------

 -------------------
 Title Card Required
 -------------------
 Symbolic Z-matrix:
 Charge =  0 Multiplicity = 1

 SCF Done:  E(RB3LYP) =  -508.869887972     A.U. after   12 cycles
 SCF Done:  E(RB3LYP) =  -508.875684327     A.U. after   10 cycles
 SCF Done:  E(RB3LYP) =  -508.877466602     A.U. after   11 cycles
 SCF Done:  E(RB3LYP) =  -508.881015497     A.U. after   10 cycles
 SCF Done:  E(RB3LYP) =  -508.878902943     A.U. after   11 cycles
 SCF Done:  E(RB3LYP) =  -508.882627761     A.U. after   10 cycles
 SCF Done:  E(RB3LYP) =  -508.883344142     A.U. after   10 cycles
 SCF Done:  E(RB3LYP) =  -508.883215844     A.U. after   10 cycles
 SCF Done:  E(RB3LYP) =  -508.884068422     A.U. after    9 cycles
 SCF Done:  E(RB3LYP) =  -508.884606668     A.U. after   11 cycles
 SCF Done:  E(RB3LYP) =  -508.886929943     A.U. after    8 cycles
 SCF Done:  E(RB3LYP) =  -508.886933381     A.U. after    8 cycles
 SCF Done:  E(RB3LYP) =  -508.886928115     A.U. after    8 cycles
 SCF Done:  E(RB3LYP) =  -508.886933742     A.U. after    8 cycles
 SCF Done:  E(RB3LYP) =  -508.886933498     A.U. after    7 cycles
 SCF Done:  E(RB3LYP) =  -508.886934104     A.U. after    8 cycles
 SCF Done:  E(RB3LYP) =  -508.886934262     A.U. after    7 cycles
 SCF Done:  E(RB3LYP) =  -508.886934270     A.U. after    6 cycles
 SCF Done:  E(RB3LYP) =  -508.886934263     A.U. after    6 cycles
 Optimization completed.
    -- Stationary point found.
 Normal termination of Gaussian 16 at Wed May 24 21:05:54 2023.

 ----------------------------------------------------------------------
 #N Geom=AllCheck Guess=TCheck SCRF=Check GenChk RB3LYP/6-31G(2df,p) Fr
 eq
 ----------------------------------------------------------------------

 Structure from the checkpoint file:  "CCCCqCqCrOrCqCrqCrCC.chk"
 -------------------
 Title Card Required
 -------------------
 Charge =  0 Multiplicity = 1

                         Standard orientation:
 ---------------------------------------------------------------------
 Center     Atomic      Atomic             Coordinates (Angstroms)
 Number     Number       Type             X           Y           Z
 ---------------------------------------------------------------------
      1          6           0       -3.867015   -1.291522   -0.032942
      2          6           0       -2.529659   -0.840879   -0.627058
      3          6           0       -1.620075   -0.161287    0.405846
      4          6           0       -0.246145    0.324845   -0.148827
      5          6           0       -0.093695    1.818353    0.284274
      6          6           0        1.150811    2.603969   -0.136730
      7          8           0       -1.242936    2.551190   -0.163910
      8          6           0        0.949241   -0.651092    0.192110
      9          6           0        1.406140   -0.456644    1.652508
     10          6           0        0.507410   -2.122482    0.017251
     11          6           0        2.119908   -0.415291   -0.808363
     12          6           0        3.409458   -1.215761   -0.575185
     13          1           0       -4.508919   -1.750440   -0.791778
     14          1           0       -4.412730   -0.445229    0.398941
     15          1           0       -3.717875   -2.027965    0.764997
     16          1           0       -2.714930   -0.132770   -1.445984
     17          1           0       -2.024130   -1.701472   -1.079355
     18          1           0       -1.472234   -0.831531    1.259851
     19          1           0       -2.164435    0.703203    0.792600
     20          1           0       -0.320336    0.339923   -1.248602
     21          1           0       -0.169887    1.861055    1.377476
     22          1           0        1.311588    2.554452   -1.220287
     23          1           0        2.062711    2.264347    0.358685
     24          1           0        0.992409    3.652747    0.130865
     25          1           0       -1.216671    2.562447   -1.127420
     26          1           0        0.558749   -0.530414    2.342268
     27          1           0        1.881746    0.515246    1.815241
     28          1           0        2.126124   -1.226264    1.945739
     29          1           0       -0.301257   -2.404775    0.694120
     30          1           0        1.342499   -2.796159    0.227723
     31          1           0        0.176604   -2.320005   -1.007737
     32          1           0        2.390810    0.639741   -0.825105
     33          1           0        1.743539   -0.642353   -1.814990
     34          1           0        3.862983   -0.986732    0.394168
     35          1           0        4.146360   -0.962849   -1.344482
     36          1           0        3.252489   -2.296970   -0.622958
 ---------------------------------------------------------------------

 SCF Done:  E(RB3LYP) =  -508.886934263     A.U. after    1 cycles

 The electronic state is 1-A.
 Alpha  occ. eigenvalues --  -19.12904 -10.22742 -10.19398 -10.18149 -10.17339
 Alpha  occ. eigenvalues --  -10.17317 -10.17157 -10.17063 -10.16918 -10.16615
 Alpha  occ. eigenvalues --  -10.16577 -10.16393  -1.01099  -0.82668  -0.77808
 Alpha  occ. eigenvalues --   -0.74944  -0.72925  -0.70166  -0.68005  -0.64501
 Alpha  occ. eigenvalues --   -0.62635  -0.58626  -0.57110  -0.52623  -0.47794
 Alpha  occ. eigenvalues --   -0.47300  -0.45502  -0.44875  -0.43843  -0.43010
 Alpha  occ. eigenvalues --   -0.41892  -0.40663  -0.39230  -0.38737  -0.38202
 Alpha  occ. eigenvalues --   -0.37878  -0.37078  -0.36813  -0.36027  -0.35192
 Alpha  occ. eigenvalues --   -0.34447  -0.33544  -0.32814  -0.32151  -0.31332
 Alpha  occ. eigenvalues --   -0.30227  -0.29311  -0.28844  -0.26136
 Alpha virt. eigenvalues --    0.07099   0.08329   0.09809   0.10554   0.11801
 Alpha virt. eigenvalues --    0.12879   0.13152   0.13504   0.14182   0.14404
 Alpha virt. eigenvalues --    0.15897   0.16120   0.16969   0.17179   0.17439

 Mulliken charges:
               1
     1  C   -0.380906
     2  C   -0.168767
     3  C   -0.186871
     4  C   -0.036870
     5  C    0.114467
     6  C   -0.414010
     7  O   -0.426195
     8  C    0.252021
     9  C   -0.424933
    10  C   -0.412118
    11  C   -0.190101
    12  C   -0.405542
    13  H    0.107423
    14  H    0.116451
    15  H    0.110774
    16  H    0.087399
    17  H    0.094046
    18  H    0.085445
    19  H    0.114344
    20  H    0.048021
    21  H    0.090601
    22  H    0.108149
    23  H    0.124207
    24  H    0.119953
    25  H    0.273348
    26  H    0.115201
    27  H    0.112820
    28  H    0.111137
    29  H    0.113138
    30  H    0.109421
    31  H    0.109905
    32  H    0.095938
    33  H    0.087423
    34  H    0.116305
    35  H    0.111157
    36  H    0.117219
 Sum of Mulliken charges =  -0.00000

 Dipole moment (field-independent basis, Debye):
    X=              1.0245    Y=             -0.4012    Z=             -0.8109  Tot=              1.3668
 Quadrupole moment (field-independent basis, Debye-Ang):
   XX=            -82.1038   YY=            -82.1369   ZZ=            -77.1031
   XY=              2.4085   XZ=              1.5508   YZ=             -2.6058

  Exact polarizability: 140.138   0.848 125.105  -0.012  -0.700 109.182
 Approx polarizability: 176.018  -2.256 173.201   0.769  -1.317 174.064

                      1                      2                      3
                      A                      A                      A
 Frequencies --     36.8413                54.4275                68.9621
 Red. masses --      1.8009                 2.8279                 3.0391
 Frc consts  --      0.0014                 0.0049                 0.0085
 IR Inten    --      0.0429                 0.0384                 0.0479

                      4                      5                      6
                      A                      A                      A
 Frequencies --     79.8179                97.1749               171.2530
 Red. masses --      2.0591                 2.6522                 2.5898
 Frc consts  --      0.0077                 0.0148                 0.0448
 IR Inten    --      0.2362                 0.6880                 0.3277

                      7                      8                      9
                      A                      A                      A
 Frequencies --    193.7820               218.3359               237.0713
 Red. masses --      2.4154                 1.1284                 1.8762
 Frc consts  --      0.0534                 0.0317                 0.0621
 IR Inten    --      0.4000                 0.1947                 0.3725

                     10                     11                     12
                      A                      A                      A
 Frequencies --    244.7184               260.5587               277.6157
 Red. masses --      1.3818                 1.7360                 1.2175
 Frc consts  --      0.0488                 0.0694                 0.0553
 IR Inten    --      0.1245                 0.9047                 5.8596

                     13                     14                     15
                      A                      A                      A
 Frequencies --    288.3302               291.0597               308.9399
 Red. masses --      1.3472                 1.2622                 1.9557
 Frc consts  --      0.0660                 0.0630                 0.1100
 IR Inten    --     31.4778                44.8042                 8.2455

                     16                     17                     18
                      A                      A                      A
 Frequencies --    332.6357               339.5733               352.5871
 Red. masses --      1.8785                 1.6751                 2.6216
 Frc consts  --      0.1225                 0.1138                 0.1920
 IR Inten    --      6.7941                 0.3239                 5.5897

                     19                     20                     21
                      A                      A                      A
 Frequencies --    386.8589               403.2826               410.8378
 Red. masses --      2.2872                 2.5036                 2.3006
 Frc consts  --      0.2017                 0.2399                 0.2288
 IR Inten    --      0.7258                 5.2649                 0.7522

                     22                     23                     24
                      A                      A                      A
 Frequencies --    444.2450               500.8142               542.9990
 Red. masses --      2.4071                 2.8412                 2.8165
 Frc consts  --      0.2799                 0.4199                 0.4893
 IR Inten    --      1.5777                13.6184                 1.4396

                     25                     26                     27
                      A                      A                      A
 Frequencies --    573.3055               716.2507               750.6481
 Red. masses --      2.3368                 1.5802                 1.6032
 Frc consts  --      0.4525                 0.4776                 0.5322
 IR Inten    --      0.3300                 3.4285                 1.6160

                     28                     29                     30
                      A                      A                      A
 Frequencies --    778.5123               843.9854               844.8639
 Red. masses --      1.2034                 1.9176                 2.0709
 Frc consts  --      0.4297                 0.8048                 0.8709
 IR Inten    --      1.6408                 0.2762                 1.7660

                     31                     32                     33
                      A                      A                      A
 Frequencies --    886.5254               907.7560               929.4168
 Red. masses --      1.6955                 1.7499                 2.1321
 Frc consts  --      0.7851                 0.8496                 1.0851
 IR Inten    --      1.1867                 5.6281                13.9728

                     34                     35                     36
                      A                      A                      A
 Frequencies --    937.5086               954.5459               997.3549
 Red. masses --      1.5863                 1.6380                 1.2484
 Frc consts  --      0.8215                 0.8793                 0.7317
 IR Inten    --      0.3517                 1.3520                 0.6324

                     37                     38                     39
                      A                      A                      A
 Frequencies --   1004.1890              1022.2469              1033.0617
 Red. masses --      2.8741                 1.9189                 2.2103
 Frc consts  --      1.7076                 1.1815                 1.3898
 IR Inten    --      1.5010                13.4078                15.6523

                     40                     41                     42
                      A                      A                      A
 Frequencies --   1058.9433              1064.3170              1079.6743
 Red. masses --      2.3240                 1.5281                 1.9724
 Frc consts  --      1.5355                 1.0198                 1.3547
 IR Inten    --      8.1330                17.9775                 8.7650

                     43                     44                     45
                      A                      A                      A
 Frequencies --   1094.6113              1115.3660              1128.5453
 Red. masses --      1.8602                 1.9521                 1.9031
 Frc consts  --      1.3132                 1.4309                 1.4281
 IR Inten    --     28.7116                21.3251                 4.4667

                     46                     47                     48
                      A                      A                      A
 Frequencies --   1163.2008              1188.3029              1210.0090
 Red. masses --      2.0943                 1.6774                 2.0102
 Frc consts  --      1.6695                 1.3956                 1.7340
 IR Inten    --      5.2096                 3.1564                22.8534

                     49                     50                     51
                      A                      A                      A
 Frequencies --   1233.6413              1241.9936              1273.7685
 Red. masses --      2.3926                 1.6024                 1.5210
 Frc consts  --      2.1454                 1.4564                 1.4540
 IR Inten    --      1.1952                 1.3574                 0.8792

                     52                     53                     54
                      A                      A                      A
 Frequencies --   1303.7488              1325.7268              1335.1117
 Red. masses --      1.2391                 1.3291                 1.1911
 Frc consts  --      1.2410                 1.3763                 1.2509
 IR Inten    --      0.2578                 9.8197                 0.4874

                     55                     56                     57
                      A                      A                      A
 Frequencies --   1347.7969              1354.8980              1367.5287
 Red. masses --      1.2950                 1.3378                 1.3584
 Frc consts  --      1.3861                 1.4469                 1.4968
 IR Inten    --      3.4324                 3.0178                 4.8988

                     58                     59                     60
                      A                      A                      A
 Frequencies --   1382.4294              1397.2960              1402.2750
 Red. masses --      1.3253                 1.2770                 1.2362
 Frc consts  --      1.4922                 1.4690                 1.4322
 IR Inten    --      4.5448                 2.4336                 5.9454

                     61                     62                     63
                      A                      A                      A
 Frequencies --   1404.2828              1409.8912              1411.9573
 Red. masses --      1.3208                 1.2411                 1.2322
 Frc consts  --      1.5345                 1.4535                 1.4474
 IR Inten    --      9.0162                 1.6380                 0.5544

                     64                     65                     66
                      A                      A                      A
 Frequencies --   1419.4765              1427.0130              1478.8318
 Red. masses --      1.2152                 1.2207                 1.0621
 Frc consts  --      1.4426                 1.4646                 1.3686
 IR Inten    --     31.7854                13.4500                 1.3531

                     67                     68                     69
                      A                      A                      A
 Frequencies --   1482.0273              1485.3628              1491.2880
 Red. masses --      1.0605                 1.0548                 1.0500
 Frc consts  --      1.3724                 1.3712                 1.3759
 IR Inten    --      1.6832                 1.2029                 1.1101

                     70                     71                     72
                      A                      A                      A
 Frequencies --   1495.1249              1497.3798              1498.9881
 Red. masses --      1.0585                 1.0524                 1.0413
 Frc consts  --      1.3940                 1.3902                 1.3786
 IR Inten    --      0.3426                 0.5313                 4.5267

                     73                     74                     75
                      A                      A                      A
 Frequencies --   1501.2789              1506.5907              1511.4255
 Red. masses --      1.0483                 1.0633                 1.0609
 Frc consts  --      1.3921                 1.4220                 1.4279
 IR Inten    --     13.5173                 1.9469                 2.9923

                     76                     77                     78
                      A                      A                      A
 Frequencies --   1513.5053              1515.6894              1523.6018
 Red. masses --      1.0515                 1.0706                 1.0555
 Frc consts  --      1.4192                 1.4491                 1.4436
 IR Inten    --      2.7104                 6.0884                 9.9711

                     79                     80                     81
                      A                      A                      A
 Frequencies --   2962.4470              3016.3727              3018.5225
 Red. masses --      1.0818                 1.0652                 1.0730
 Frc consts  --      5.5935                 5.7101                 5.7603
 IR Inten    --     16.6191                11.0283                27.4582

                     82                     83                     84
                      A                      A                      A
 Frequencies --   3026.4109              3029.0209              3034.9912
 Red. masses --      1.0356                 1.0463                 1.0388
 Frc consts  --      5.5887                 5.6561                 5.6374
 IR Inten    --     30.8310                 9.8463                12.1736

                     85                     86                     87
                      A                      A                      A
 Frequencies --   3038.3637              3039.8582              3042.7111
 Red. masses --      1.0425                 1.0665                 1.0467
 Frc consts  --      5.6705                 5.8068                 5.7093
 IR Inten    --     19.0422                17.5013                23.3324

                     88                     89                     90
                      A                      A                      A
 Frequencies --   3046.9166              3058.0694              3090.4770
 Red. masses --      1.0635                 1.0887                 1.0990
 Frc consts  --      5.8173                 5.9988                 6.1845
 IR Inten    --     44.0491                13.6155                16.1883

                     91                     92                     93
                      A                      A                      A
 Frequencies --   3096.9013              3097.5149              3098.1261
 Red. masses --      1.1006                 1.1008                 1.1003
 Frc consts  --      6.2191                 6.2229                 6.2224
 IR Inten    --     41.3302                40.9414                 4.8258

                     94                     95                     96
                      A                      A                      A
 Frequencies --   3100.2954              3101.6005              3104.2605
 Red. masses --      1.0986                 1.0994                 1.0994
 Frc consts  --      6.2218                 6.2310                 6.2420
 IR Inten    --     15.3760                25.9727                78.8815

                     97                     98                     99
                      A                      A                      A
 Frequencies --   3108.1964              3111.2855              3122.9148
 Red. masses --      1.0995                 1.0968                 1.0988
 Frc consts  --      6.2585                 6.2552                 6.3136
 IR Inten    --     45.8152                15.6499                30.0302

                    100                    101                    102
                      A                      A                      A
 Frequencies --   3124.2429              3144.1338              3792.6260
 Red. masses --      1.0994                 1.0877                 1.0658
 Frc consts  --      6.3225                 6.3353                 9.0327
 IR Inten    --     34.4428                24.7593                11.2054

 - Thermochemistry -
 -------------------
 Temperature   298.150 Kelvin.  Pressure   1.00000 Atm.
 Atom     1 has atomic number  6 and mass  12.00000

 Molecular mass:   172.18272 amu.
 Principal axes and moments of inertia in atomic units:
                           1         2         3
     Eigenvalues --  1785.540032825.906463986.28049
           X            0.99957   0.02949  -0.00024
           Y           -0.02949   0.99956  -0.00327
           Z            0.00015   0.00327   0.99999
 This molecule is an asymmetric top.
 Rotational symmetry number  1.
 Warning -- assumption of classical behavior for rotation
           may cause significant error
 Rotational temperatures (Kelvin)      0.04851     0.03065     0.02173
 Rotational constants (GHZ):           1.01075     0.63864     0.45274
 Zero-point vibrational energy     877891.8 (Joules/Mol)
                                  209.82118 (Kcal/Mol)
 Warning -- explicit consideration of  25 degrees of freedom as
           vibrations may cause significant error
 Vibrational temperatures:     53.01    78.31    99.22   114.84   139.81
          (Kelvin)            246.39   278.81   314.14   341.09   352.10
                              374.89   399.43   414.84   418.77   444.50
                              478.59   488.57   507.29   556.60   580.23
                              591.10   639.17   720.56   781.25   824.86
                             1030.52  1080.02  1120.11  1214.31  1215.57
                             1275.51  1306.06  1337.22  1348.87  1373.38
                             1434.97  1444.80  1470.79  1486.35  1523.58
                             1531.31  1553.41  1574.90  1604.76  1623.72
                             1673.59  1709.70  1740.93  1774.93  1786.95
                             1832.67  1875.80  1907.43  1920.93  1939.18
                             1949.40  1967.57  1989.01  2010.40  2017.56
                             2020.45  2028.52  2031.49  2042.31  2053.15
                             2127.71  2132.31  2137.11  2145.63  2151.15
                             2154.40  2156.71  2160.01  2167.65  2174.60
                             2177.60  2180.74  2192.12  4262.30  4339.89
                             4342.98  4354.33  4358.09  4366.68  4371.53
                             4373.68  4377.78  4383.83  4399.88  4446.51
                             4455.75  4456.63  4457.51  4460.63  4462.51
                             4466.34  4472.00  4476.45  4493.18  4495.09
                             4523.71  5456.74

 Zero-point correction=                           0.334371 (Hartree/Particle)
 Thermal correction to Energy=                    0.350245
 Thermal correction to Enthalpy=                  0.351189
 Thermal correction to Gibbs Free Energy=         0.292145
 Sum of electronic and zero-point Energies=           -508.552563
 Sum of electronic and thermal Energies=              -508.536689
 Sum of electronic and thermal Enthalpies=            -508.535745
 Sum of electronic and thermal Free Energies=         -508.594790

                     E (Thermal)             CV                S
                      KCal/Mol        Cal/Mol-Kelvin    Cal/Mol-Kelvin
 Total                  219.782             60.118            124.270
 Electronic               0.000              0.000              0.000
 Translational            0.889              2.981             41.338
 Rotational               0.889              2.981             31.376
 Vibrational            218.004             54.156             51.556
 Vibration     1          0.594              1.982              5.422
 Vibration     2          0.596              1.976              4.650
 Vibration     3          0.598              1.969              4.183
 Vibration     4          0.600              1.963              3.895
 Vibration     5          0.603              1.951              3.510
 Vibration     6          0.626              1.878              2.422
 Vibration     7          0.635              1.849              2.191
 Vibration     8          0.646              1.813              1.973
 Vibration     9          0.656              1.784              1.825
 Vibration    10          0.660              1.772              1.768
 Vibration    11          0.669              1.745              1.658
 Vibration    12          0.679              1.715              1.548
 Vibration    13          0.685              1.695              1.484
 Vibration    14          0.687              1.690              1.468
 Vibration    15          0.698              1.657              1.368
 Vibration    16          0.715              1.610              1.247
 Vibration    17          0.719              1.596              1.214
 Vibration    18          0.729              1.570              1.155
 Vibration    19          0.755              1.498              1.012
 Vibration    20          0.769              1.463              0.951
 Vibration    21          0.775              1.447              0.924
 Vibration    22          0.804              1.374              0.813
 Vibration    23          0.856              1.248              0.656
 Vibration    24          0.898              1.155              0.559
 Vibration    25          0.930              1.089              0.498

 Optimization completed.
    -- Stationary point found.
 Normal termination of Gaussian 16 at Wed May 24 23:04:36 2023.
