 Gaussian 16, Revision A.03,
 Gaussian 16:  ES64L-G16RevA.03 25-Dec-2016

 -----------------------------
 # opt freq b3lyp/6-31g(2df,p)
 -----------------------------

 -------------------
 Title Card Required
 -------------------
 Symbolic Z-matrix:
 Charge =  0 Multiplicity = 1

 SCF Done:  E(RB3LYP) =  -276.418985433     A.U. after   12 cycles
 SCF Done:  E(RB3LYP) =  -276.420756899     A.U. after   10 cycles
 SCF Done:  E(RB3LYP) =  -276.421028157     A.U. after    8 cycles
 SCF Done:  E(RB3LYP) =  -276.421047971     A.U. after    8 cycles
 SCF Done:  E(RB3LYP) =  -276.421050919     A.U. after    7 cycles
 SCF Done:  E(RB3LYP) =  -276.421051505     A.U. after    6 cycles
 Optimization completed.
    -- Stationary point found.
 Normal termination of Gaussian 16 at Sun May 28 01:57:57 2023.

 ----------------------------------------------------------------------
 #N Geom=AllCheck Guess=TCheck SCRF=Check GenChk RB3LYP/6-31G(2df,p) Fr
 eq
 ----------------------------------------------------------------------

 Structure from the checkpoint file:  "CCCCqCrCC.chk"
 -------------------
 Title Card Required
 -------------------
 Charge =  0 Multiplicity = 1

                         Standard orientation:
 ---------------------------------------------------------------------
 Center     Atomic      Atomic             Coordinates (Angstroms)
 Number     Number       Type             X           Y           Z
 ---------------------------------------------------------------------
      1          6           0       -3.333783   -0.414950    0.047089
      2          6           0       -2.021043    0.256595   -0.367994
      3          6           0       -0.789288   -0.422249    0.243511
      4          6           0        0.572034    0.138478   -0.210994
      5          6           0        0.768260    1.596588    0.230088
      6          6           0        1.710985   -0.770340    0.291841
      7          6           0        3.099897   -0.440635   -0.264879
      8          1           0       -4.198670    0.084110   -0.401352
      9          1           0       -3.463415   -0.391266    1.134999
     10          1           0       -3.357130   -1.465617   -0.263433
     11          1           0       -2.052664    1.313513   -0.078497
     12          1           0       -1.933967    0.243422   -1.462938
     13          1           0       -0.825373   -1.492210   -0.004058
     14          1           0       -0.851979   -0.366644    1.340515
     15          1           0        0.590889    0.112149   -1.311838
     16          1           0        0.753044    1.675941    1.324404
     17          1           0       -0.018333    2.248080   -0.160723
     18          1           0        1.723176    1.999954   -0.118538
     19          1           0        1.465595   -1.808229    0.032337
     20          1           0        1.738107   -0.733190    1.390100
     21          1           0        3.100081   -0.456846   -1.360894
     22          1           0        3.840182   -1.171317    0.076375
     23          1           0        3.448084    0.547222    0.051575
 ---------------------------------------------------------------------

 SCF Done:  E(RB3LYP) =  -276.421051505     A.U. after    1 cycles

 The electronic state is 1-A.
 Alpha  occ. eigenvalues --  -10.17907 -10.17403 -10.17274 -10.17030 -10.16879
 Alpha  occ. eigenvalues --  -10.16844 -10.16618  -0.81023  -0.76375  -0.71741
 Alpha  occ. eigenvalues --   -0.67205  -0.62704  -0.57588  -0.54989  -0.46612
 Alpha  occ. eigenvalues --   -0.44753  -0.43768  -0.42020  -0.40255  -0.38281
 Alpha  occ. eigenvalues --   -0.37931  -0.36660  -0.35946  -0.34630  -0.33329
 Alpha  occ. eigenvalues --   -0.32204  -0.31240  -0.30746  -0.29762
 Alpha virt. eigenvalues --    0.08537   0.10662   0.11781   0.12347   0.13477
 Alpha virt. eigenvalues --    0.14927   0.15880   0.16556   0.17382   0.17415
 Alpha virt. eigenvalues --    0.17834   0.18693   0.19497   0.20433   0.21508

 Mulliken charges:
               1
     1  C   -0.377607
     2  C   -0.176536
     3  C   -0.157209
     4  C    0.046525
     5  C   -0.389373
     6  C   -0.165236
     7  C   -0.391120
     8  H    0.108967
     9  H    0.112617
    10  H    0.112096
    11  H    0.097651
    12  H    0.091844
    13  H    0.085185
    14  H    0.086595
    15  H    0.064278
    16  H    0.108260
    17  H    0.113300
    18  H    0.112279
    19  H    0.088971
    20  H    0.089766
    21  H    0.111456
    22  H    0.110175
    23  H    0.117117
 Sum of Mulliken charges =  -0.00000

 Dipole moment (field-independent basis, Debye):
    X=              0.0013    Y=             -0.0114    Z=             -0.0446  Tot=              0.0460
 Quadrupole moment (field-independent basis, Debye-Ang):
   XX=            -48.9554   YY=            -48.1455   ZZ=            -47.6404
   XY=             -0.3077   XZ=              0.2085   YZ=              0.2297

  Exact polarizability:  93.047  -0.277  73.697  -0.130  -0.190  68.725
 Approx polarizability: 106.760  -0.372 105.126   0.223   0.331 105.490

                      1                      2                      3
                      A                      A                      A
 Frequencies --     64.5101                76.2018               106.9793
 Red. masses --      1.5951                 2.2021                 1.9161
 Frc consts  --      0.0039                 0.0075                 0.0129
 IR Inten    --      0.0087                 0.0006                 0.0108

                      4                      5                      6
                      A                      A                      A
 Frequencies --    151.1378               209.8139               242.5095
 Red. masses --      2.7331                 1.0429                 1.1413
 Frc consts  --      0.0368                 0.0271                 0.0395
 IR Inten    --      0.0170                 0.0408                 0.0069

                      7                      8                      9
                      A                      A                      A
 Frequencies --    260.0651               295.9008               319.2993
 Red. masses --      1.2128                 2.2885                 2.7744
 Frc consts  --      0.0483                 0.1181                 0.1667
 IR Inten    --      0.0022                 0.0011                 0.0338

                     10                     11                     12
                      A                      A                      A
 Frequencies --    373.2762               430.6351               500.3812
 Red. masses --      2.5949                 2.0499                 2.2908
 Frc consts  --      0.2130                 0.2240                 0.3379
 IR Inten    --      0.1318                 0.1792                 0.1852

                     13                     14                     15
                      A                      A                      A
 Frequencies --    742.3652               773.6285               820.9797
 Red. masses --      1.1084                 1.3347                 1.7846
 Frc consts  --      0.3599                 0.4706                 0.7087
 IR Inten    --      1.6320                 2.7766                 0.2716

                     16                     17                     18
                      A                      A                      A
 Frequencies --    868.1358               881.7984               938.9666
 Red. masses --      1.2406                 2.1125                 1.7305
 Frc consts  --      0.5509                 0.9678                 0.8989
 IR Inten    --      0.4970                 0.7452                 1.8971

                     19                     20                     21
                      A                      A                      A
 Frequencies --    970.2011               994.5263              1032.7406
 Red. masses --      1.1969                 1.5916                 1.9310
 Frc consts  --      0.6638                 0.9275                 1.2135
 IR Inten    --      2.0097                 3.2152                 0.3590

                     22                     23                     24
                      A                      A                      A
 Frequencies --   1044.2316              1061.5183              1089.3602
 Red. masses --      1.9083                 2.0134                 2.0004
 Frc consts  --      1.2260                 1.3367                 1.3987
 IR Inten    --      0.1073                 0.5397                 1.3515

                     25                     26                     27
                      A                      A                      A
 Frequencies --   1168.9833              1177.1213              1201.9984
 Red. masses --      2.3454                 1.8369                 1.9913
 Frc consts  --      1.8884                 1.4996                 1.6951
 IR Inten    --      0.2135                 6.4612                 0.0201

                     28                     29                     30
                      A                      A                      A
 Frequencies --   1261.3808              1289.7212              1304.4164
 Red. masses --      1.3685                 1.2582                 1.1814
 Frc consts  --      1.2829                 1.2330                 1.1843
 IR Inten    --      3.8647                 1.5725                 1.1915

                     31                     32                     33
                      A                      A                      A
 Frequencies --   1329.9514              1341.7555              1379.8389
 Red. masses --      1.1217                 1.3082                 1.3612
 Frc consts  --      1.1690                 1.3877                 1.5270
 IR Inten    --      0.6281                 0.0572                 2.8631

                     34                     35                     36
                      A                      A                      A
 Frequencies --   1382.1192              1394.6788              1409.9466
 Red. masses --      1.4105                 1.4950                 1.2791
 Frc consts  --      1.5875                 1.7133                 1.4982
 IR Inten    --      0.3529                 0.8033                 1.9327

                     37                     38                     39
                      A                      A                      A
 Frequencies --   1413.4910              1415.2006              1475.8364
 Red. masses --      1.2306                 1.2611                 1.0755
 Frc consts  --      1.4486                 1.4881                 1.3801
 IR Inten    --      0.6262                 4.7927                 0.0418

                     40                     41                     42
                      A                      A                      A
 Frequencies --   1486.6181              1493.4419              1496.7318
 Red. masses --      1.0655                 1.0595                 1.0434
 Frc consts  --      1.3874                 1.3923                 1.3771
 IR Inten    --      0.0848                 1.5261                 5.7357

                     43                     44                     45
                      A                      A                      A
 Frequencies --   1498.9348              1499.8719              1507.0303
 Red. masses --      1.0582                 1.0419                 1.0668
 Frc consts  --      1.4008                 1.3810                 1.4275
 IR Inten    --      1.2827                 3.4167                 2.6099

                     46                     47                     48
                      A                      A                      A
 Frequencies --   1510.8458              1514.7888              2979.2424
 Red. masses --      1.0763                 1.0496                 1.0804
 Frc consts  --      1.4475                 1.4190                 5.6500
 IR Inten    --      3.8048                 6.0156                 8.5587

                     49                     50                     51
                      A                      A                      A
 Frequencies --   2994.9150              3008.1204              3016.5296
 Red. masses --      1.0593                 1.0605                 1.0661
 Frc consts  --      5.5981                 5.6538                 5.7157
 IR Inten    --      8.0153                31.2247                40.7869

                     52                     53                     54
                      A                      A                      A
 Frequencies --   3027.1297              3027.4419              3028.1821
 Red. masses --      1.0583                 1.0666                 1.0441
 Frc consts  --      5.7139                 5.7600                 5.6409
 IR Inten    --     18.5760                37.7435                14.9467

                     55                     56                     57
                      A                      A                      A
 Frequencies --   3031.3580              3042.8383              3058.6110
 Red. masses --      1.0392                 1.0987                 1.1000
 Frc consts  --      5.6263                 5.9935                 6.0632
 IR Inten    --     22.0746                24.7195                38.3979

                     58                     59                     60
                      A                      A                      A
 Frequencies --   3094.1018              3095.1028              3095.7137
 Red. masses --      1.1018                 1.1006                 1.0967
 Frc consts  --      6.2146                 6.2121                 6.1921
 IR Inten    --     47.8426                55.6940                19.7249

                     61                     62                     63
                      A                      A                      A
 Frequencies --   3099.1259              3104.2180              3112.1217
 Red. masses --      1.1008                 1.1000                 1.1000
 Frc consts  --      6.2294                 6.2454                 6.2770
 IR Inten    --     33.8210                63.9095                30.1593

 - Thermochemistry -
 -------------------
 Temperature   298.150 Kelvin.  Pressure   1.00000 Atm.
 Atom     1 has atomic number  6 and mass  12.00000

 Molecular mass:   100.12520 amu.
 Principal axes and moments of inertia in atomic units:
                           1         2         3
     Eigenvalues --   313.296311663.710051846.55076
           X            0.99999   0.00283  -0.00179
           Y           -0.00283   0.99999  -0.00157
           Z            0.00179   0.00157   1.00000
 This molecule is an asymmetric top.
 Rotational symmetry number  1.
 Rotational temperatures (Kelvin)      0.27646     0.05206     0.04691
 Rotational constants (GHZ):           5.76049     1.08477     0.97736
 Zero-point vibrational energy     568337.5 (Joules/Mol)
                                  135.83593 (Kcal/Mol)
 Warning -- explicit consideration of  12 degrees of freedom as
           vibrations may cause significant error
 Vibrational temperatures:     92.82   109.64   153.92   217.45   301.88
          (Kelvin)            348.92   374.18   425.74   459.40   537.06
                              619.59   719.94  1068.10  1113.08  1181.21
                             1249.05  1268.71  1350.96  1395.90  1430.90
                             1485.88  1502.42  1527.29  1567.35  1681.91
                             1693.61  1729.41  1814.85  1855.62  1876.76
                             1913.50  1930.49  1985.28  1988.56  2006.63
                             2028.60  2033.70  2036.16  2123.40  2138.91
                             2148.73  2153.46  2156.63  2157.98  2168.28
                             2173.77  2179.44  4286.47  4309.01  4328.01
                             4340.11  4355.36  4355.81  4356.88  4361.45
                             4377.97  4400.66  4451.72  4453.16  4454.04
                             4458.95  4466.28  4477.65

 Zero-point correction=                           0.216468 (Hartree/Particle)
 Thermal correction to Energy=                    0.226244
 Thermal correction to Enthalpy=                  0.227189
 Thermal correction to Gibbs Free Energy=         0.181921
 Sum of electronic and zero-point Energies=           -276.204583
 Sum of electronic and thermal Energies=              -276.194807
 Sum of electronic and thermal Enthalpies=            -276.193863
 Sum of electronic and thermal Free Energies=         -276.239131

                     E (Thermal)             CV                S
                      KCal/Mol        Cal/Mol-Kelvin    Cal/Mol-Kelvin
 Total                  141.970             34.940             95.275
 Electronic               0.000              0.000              0.000
 Translational            0.889              2.981             39.722
 Rotational               0.889              2.981             28.356
 Vibrational            140.193             28.978             27.197
 Vibration     1          0.597              1.971              4.314
 Vibration     2          0.599              1.965              3.986
 Vibration     3          0.606              1.944              3.323
 Vibration     4          0.619              1.901              2.658
 Vibration     5          0.642              1.826              2.045
 Vibration     6          0.659              1.775              1.784
 Vibration     7          0.668              1.746              1.661
 Vibration     8          0.690              1.681              1.440
 Vibration     9          0.705              1.637              1.314
 Vibration    10          0.745              1.527              1.066
 Vibration    11          0.792              1.404              0.857
 Vibration    12          0.856              1.249              0.657

 Optimization completed.
    -- Stationary point found.
 Normal termination of Gaussian 16 at Sun May 28 02:22:29 2023.
