 Gaussian 16, Revision A.03,
 Gaussian 16:  ES64L-G16RevA.03 25-Dec-2016

 -----------------------------
 # opt freq b3lyp/6-31g(2df,p)
 -----------------------------

 -------------------
 Title Card Required
 -------------------
 Symbolic Z-matrix:
 Charge =  0 Multiplicity = 1

 SCF Done:  E(RB3LYP) =  -840.336264815     A.U. after   12 cycles
 SCF Done:  E(RB3LYP) =  -840.359454846     A.U. after   10 cycles
 SCF Done:  E(RB3LYP) =  -840.377678717     A.U. after   10 cycles
 SCF Done:  E(RB3LYP) =  -840.383556325     A.U. after   10 cycles
 SCF Done:  E(RB3LYP) =  -840.387985394     A.U. after   10 cycles
 SCF Done:  E(RB3LYP) =  -840.388106852     A.U. after   10 cycles
 SCF Done:  E(RB3LYP) =  -840.394530637     A.U. after   10 cycles
 SCF Done:  E(RB3LYP) =  -840.396603185     A.U. after    9 cycles
 SCF Done:  E(RB3LYP) =  -840.398441367     A.U. after   10 cycles
 SCF Done:  E(RB3LYP) =  -840.400807307     A.U. after   11 cycles
 SCF Done:  E(RB3LYP) =  -840.417484462     A.U. after    9 cycles
 SCF Done:  E(RB3LYP) =  -840.417595975     A.U. after    8 cycles
 SCF Done:  E(RB3LYP) =  -840.417588096     A.U. after    9 cycles
 SCF Done:  E(RB3LYP) =  -840.417611690     A.U. after    8 cycles
 SCF Done:  E(RB3LYP) =  -840.417612618     A.U. after    8 cycles
 SCF Done:  E(RB3LYP) =  -840.417613211     A.U. after    7 cycles
 SCF Done:  E(RB3LYP) =  -840.417613419     A.U. after    6 cycles
 SCF Done:  E(RB3LYP) =  -840.417613442     A.U. after    5 cycles
 SCF Done:  E(RB3LYP) =  -840.417613462     A.U. after    5 cycles
 Optimization completed.
    -- Stationary point found.

 The electronic state is 1-A.
 Alpha  occ. eigenvalues --  -14.30044 -10.19984 -10.19161 -10.18610 -10.18260
 Alpha  occ. eigenvalues --  -10.17505 -10.17480 -10.17431 -10.17412 -10.17356
 Alpha  occ. eigenvalues --  -10.17332 -10.17304 -10.17297 -10.17149 -10.17041
 Alpha  occ. eigenvalues --  -10.16993 -10.16940 -10.16834 -10.16622 -10.16601
 Alpha  occ. eigenvalues --  -10.16414  -0.90581  -0.82037  -0.79865  -0.79481
 Alpha  occ. eigenvalues --   -0.77785  -0.75935  -0.74252  -0.72737  -0.72079
 Alpha  occ. eigenvalues --   -0.68805  -0.66738  -0.65942  -0.63267  -0.61849
 Alpha  occ. eigenvalues --   -0.59342  -0.58818  -0.57649  -0.56158  -0.54481
 Alpha  occ. eigenvalues --   -0.54289  -0.52483  -0.49229  -0.48424  -0.46860
 Alpha  occ. eigenvalues --   -0.45332  -0.45191  -0.44896  -0.44196  -0.42939
 Alpha  occ. eigenvalues --   -0.42383  -0.41918  -0.41716  -0.40684  -0.39890
 Alpha  occ. eigenvalues --   -0.39846  -0.39355  -0.38449  -0.38158  -0.37712
 Alpha  occ. eigenvalues --   -0.36723  -0.36440  -0.36056  -0.35928  -0.35105
 Alpha  occ. eigenvalues --   -0.34781  -0.34241  -0.33467  -0.33154  -0.33039
 Alpha  occ. eigenvalues --   -0.32856  -0.32125  -0.31635  -0.31420  -0.31185
 Alpha  occ. eigenvalues --   -0.30890  -0.30458  -0.29974  -0.29845  -0.29305
 Alpha  occ. eigenvalues --   -0.28296  -0.28051  -0.21138
 Alpha virt. eigenvalues --    0.06546   0.07386   0.08265   0.09201   0.09952
 Alpha virt. eigenvalues --    0.10525   0.11136   0.11387   0.11540   0.12388
 Alpha virt. eigenvalues --    0.13088   0.13595   0.13924   0.14228   0.14638

 Mulliken charges:
               1
     1  C   -0.377211
     2  C   -0.160424
     3  C   -0.171778
     4  C   -0.001375
     5  C   -0.277295
     6  C    0.306480
     7  C   -0.246811
     8  C   -0.201791
     9  C   -0.180901
    10  C   -0.196713
    11  C   -0.197403
    12  C   -0.200194
    13  C   -0.127708
    14  C   -0.205784
    15  C   -0.221289
    16  C    0.029469
    17  C   -0.180284
    18  C   -0.394468
    19  C   -0.315743
    20  C   -0.210933
    21  N   -0.306274
    22  H    0.106723
    23  H    0.108399
    24  H    0.111873
    25  H    0.087912
    26  H    0.115612
    27  H    0.086852
    28  H    0.081774
    29  H    0.061454
    30  H    0.103897
    31  H    0.101876
    32  H    0.088716
    33  H    0.083191
    34  H    0.088459
    35  H    0.111353
    36  H    0.103937
    37  H    0.088033
    38  H    0.093812
    39  H    0.093233
    40  H    0.091511
    41  H    0.089198
    42  H    0.087842
    43  H    0.090367
    44  H    0.111492
    45  H    0.083630
    46  H    0.087229
    47  H    0.096343
    48  H    0.089570
    49  H    0.091513
    50  H    0.067785
    51  H    0.100423
    52  H    0.097768
    53  H    0.119183
    54  H    0.109150
    55  H    0.111707
    56  H    0.106152
    57  H    0.092572
    58  H    0.091202
    59  H    0.091050
    60  H    0.215637
 Sum of Mulliken charges =  -0.00000

 Dipole moment (field-independent basis, Debye):
    X=              1.0582    Y=             -0.5879    Z=              0.3883  Tot=              1.2713
 Quadrupole moment (field-independent basis, Debye-Ang):
   XX=           -144.2440   YY=           -134.0915   ZZ=           -136.8815
   XY=              0.3398   XZ=             -2.2762   YZ=             -0.6282

 Normal termination of Gaussian 16 at Wed May 24 20:12:51 2023.

 ----------------------------------------------------------------------
 #N Geom=AllCheck Guess=TCheck SCRF=Check GenChk RB3LYP/6-31G(2df,p) Fr
 eq
 ----------------------------------------------------------------------

 Structure from the checkpoint file:  "CCCC1CC2qCCCCCCCCCCqCCrC2rCN1.chk"
 -------------------
 Title Card Required
 -------------------
 Charge =  0 Multiplicity = 1

                         Standard orientation:
 ---------------------------------------------------------------------
 Center     Atomic      Atomic             Coordinates (Angstroms)
 Number     Number       Type             X           Y           Z
 ---------------------------------------------------------------------
      1          6           0       -6.227643    1.137893    0.360395
      2          6           0       -4.855906    0.588916   -0.043174
      3          6           0       -4.382040   -0.545530    0.871694
      4          6           0       -3.058987   -1.217830    0.460538
      5          6           0       -1.807732   -0.304876    0.587115
      6          6           0       -0.872649   -0.711349   -0.579196
      7          6           0       -0.094585   -2.017457   -0.241230
      8          6           0        1.057332   -1.886354    0.790423
      9          6           0        2.426150   -2.354761    0.252866
     10          6           0        3.647933   -1.922546    1.111161
     11          6           0        4.812485   -1.265399    0.328480
     12          6           0        4.664748    0.251518    0.082687
     13          6           0        3.393488    0.621548   -0.687218
     14          6           0        3.040618    2.112280   -0.758444
     15          6           0        1.610161    2.415473   -1.269278
     16          6           0        0.418683    1.749862   -0.504070
     17          6           0        0.620222    1.826083    1.025671
     18          6           0        0.598776    3.265799    1.559519
     19          6           0        0.114926    0.360069   -1.158742
     20          6           0       -1.958717   -1.050709   -1.641640
     21          7           0       -3.081449   -1.685241   -0.948379
     22          1           0       -6.549297    1.942167   -0.309136
     23          1           0       -6.213177    1.540472    1.379849
     24          1           0       -6.992286    0.353505    0.328427
     25          1           0       -4.128603    1.410596   -0.040352
     26          1           0       -4.893195    0.208764   -1.069852
     27          1           0       -5.160876   -1.319363    0.894300
     28          1           0       -4.283940   -0.180801    1.904397
     29          1           0       -2.927924   -2.083802    1.122405
     30          1           0       -1.348676   -0.422604    1.571633
     31          1           0       -2.096664    0.745668    0.487520
     32          1           0        0.320476   -2.399476   -1.183260
     33          1           0       -0.806979   -2.780152    0.092723
     34          1           0        0.819625   -2.445727    1.702904
     35          1           0        1.145604   -0.843957    1.110846
     36          1           0        2.547399   -1.975513   -0.767074
     37          1           0        2.413316   -3.446719    0.148272
     38          1           0        4.038213   -2.796132    1.644473
     39          1           0        3.319267   -1.227505    1.895699
     40          1           0        4.940555   -1.785407   -0.630875
     41          1           0        5.744993   -1.426416    0.882675
     42          1           0        5.556145    0.623261   -0.439314
     43          1           0        4.649634    0.760459    1.057312
     44          1           0        2.570883    0.117073   -0.189562
     45          1           0        3.438518    0.201763   -1.701982
     46          1           0        3.753739    2.639733   -1.405126
     47          1           0        3.169769    2.552333    0.238441
     48          1           0        1.539702    2.133426   -2.327747
     49          1           0        1.479514    3.503498   -1.247701
     50          1           0       -0.461044    2.375568   -0.712073
     51          1           0        1.560469    1.350180    1.321997
     52          1           0       -0.167495    1.269749    1.532972
     53          1           0        1.410156    3.874294    1.148946
     54          1           0        0.697593    3.279026    2.649670
     55          1           0       -0.344986    3.762663    1.306654
     56          1           0        1.059600   -0.148569   -1.346945
     57          1           0       -0.247328    0.616462   -2.163240
     58          1           0       -1.583603   -1.691737   -2.446752
     59          1           0       -2.298630   -0.114537   -2.107703
     60          1           0       -2.983886   -2.691343   -0.980129
 ---------------------------------------------------------------------

 SCF Done:  E(RB3LYP) =  -840.417613462     A.U. after    1 cycles
