 Gaussian 16, Revision A.03,
 Gaussian 16:  ES64L-G16RevA.03 25-Dec-2016

 -----------------------------
 # opt freq b3lyp/6-31g(2df,p)
 -----------------------------

 -------------------
 Title Card Required
 -------------------
 Symbolic Z-matrix:
 Charge =  0 Multiplicity = 1

 SCF Done:  E(RB3LYP) =  -508.875011490     A.U. after   12 cycles
 SCF Done:  E(RB3LYP) =  -508.890236238     A.U. after   11 cycles
 SCF Done:  E(RB3LYP) =  -508.894484565     A.U. after   10 cycles
 SCF Done:  E(RB3LYP) =  -508.896238396     A.U. after   10 cycles
 SCF Done:  E(RB3LYP) =  -508.896938327     A.U. after   10 cycles
 SCF Done:  E(RB3LYP) =  -508.897202185     A.U. after    9 cycles
 SCF Done:  E(RB3LYP) =  -508.897487427     A.U. after   10 cycles
 SCF Done:  E(RB3LYP) =  -508.897021988     A.U. after   12 cycles
 SCF Done:  E(RB3LYP) =  -508.897861831     A.U. after   10 cycles
 SCF Done:  E(RB3LYP) =  -508.898088368     A.U. after   10 cycles
 SCF Done:  E(RB3LYP) =  -508.898269580     A.U. after    9 cycles
 SCF Done:  E(RB3LYP) =  -508.898292290     A.U. after    8 cycles
 SCF Done:  E(RB3LYP) =  -508.898318076     A.U. after    9 cycles
 SCF Done:  E(RB3LYP) =  -508.898313201     A.U. after    9 cycles
 SCF Done:  E(RB3LYP) =  -508.898323144     A.U. after    8 cycles
 SCF Done:  E(RB3LYP) =  -508.898323240     A.U. after    6 cycles
 SCF Done:  E(RB3LYP) =  -508.898323364     A.U. after    6 cycles
 SCF Done:  E(RB3LYP) =  -508.898323412     A.U. after    6 cycles
 Optimization completed.
    -- Stationary point found.
 Normal termination of Gaussian 16 at Tue May 23 08:18:21 2023.

 ----------------------------------------------------------------------
 #N Geom=AllCheck Guess=TCheck SCRF=Check GenChk RB3LYP/6-31G(2df,p) Fr
 eq
 ----------------------------------------------------------------------

 Structure from the checkpoint file:  "CCCCOCqCrCCqCrCC.chk"
 -------------------
 Title Card Required
 -------------------
 Charge =  0 Multiplicity = 1

                         Standard orientation:
 ---------------------------------------------------------------------
 Center     Atomic      Atomic             Coordinates (Angstroms)
 Number     Number       Type             X           Y           Z
 ---------------------------------------------------------------------
      1          6           0        5.633057   -1.184022    0.041096
      2          6           0        4.523027   -0.239512    0.510307
      3          6           0        3.193287   -0.476922   -0.211969
      4          6           0        2.088293    0.464053    0.252333
      5          8           0        0.916706    0.170444   -0.479127
      6          6           0       -0.271414    0.817461   -0.026124
      7          6           0       -0.246222    2.315461   -0.349876
      8          6           0       -1.448080    0.076643   -0.691547
      9          6           0       -2.653002   -0.228111    0.219816
     10          6           0       -3.315297    1.042148    0.773209
     11          6           0       -3.660693   -1.117213   -0.535718
     12          6           0       -4.792545   -1.689826    0.323705
     13          1           0        6.570981   -0.993734    0.572123
     14          1           0        5.826274   -1.064908   -1.030731
     15          1           0        5.359471   -2.231087    0.211818
     16          1           0        4.840512    0.800757    0.358728
     17          1           0        4.377305   -0.356627    1.592492
     18          1           0        2.859721   -1.510707   -0.058971
     19          1           0        3.325869   -0.350905   -1.293743
     20          1           0        2.403334    1.509895    0.104967
     21          1           0        1.904485    0.334277    1.333753
     22          1           0       -0.336740    0.687586    1.068754
     23          1           0       -0.094656    2.456717   -1.425149
     24          1           0        0.555600    2.836067    0.181789
     25          1           0       -1.191239    2.790010   -0.072264
     26          1           0       -1.044363   -0.870573   -1.062762
     27          1           0       -1.789427    0.636845   -1.572692
     28          1           0       -2.276931   -0.810620    1.075079
     29          1           0       -3.688491    1.675214   -0.041431
     30          1           0       -2.616033    1.639098    1.366112
     31          1           0       -4.162229    0.803729    1.422865
     32          1           0       -3.111049   -1.949107   -0.993951
     33          1           0       -4.087865   -0.542850   -1.369751
     34          1           0       -4.395256   -2.259058    1.171936
     35          1           0       -5.421649   -2.366962   -0.262761
     36          1           0       -5.443739   -0.907575    0.725418
 ---------------------------------------------------------------------

 SCF Done:  E(RB3LYP) =  -508.898323412     A.U. after    1 cycles

 The electronic state is 1-A.
 Alpha  occ. eigenvalues --  -19.12676 -10.22495 -10.21785 -10.18218 -10.17872
 Alpha  occ. eigenvalues --  -10.17390 -10.17251 -10.17088 -10.16944 -10.16929
 Alpha  occ. eigenvalues --  -10.16858 -10.16781  -1.01997  -0.81237  -0.79076
 Alpha  occ. eigenvalues --   -0.75916  -0.71975  -0.70577  -0.68101  -0.63520
 Alpha  occ. eigenvalues --   -0.61250  -0.57693  -0.56804  -0.55277  -0.48875
 Alpha  occ. eigenvalues --   -0.47483  -0.46220  -0.44830  -0.43792  -0.42912
 Alpha  occ. eigenvalues --   -0.42137  -0.41476  -0.40411  -0.38371  -0.38279
 Alpha  occ. eigenvalues --   -0.37789  -0.37198  -0.36753  -0.35539  -0.34745
 Alpha  occ. eigenvalues --   -0.33627  -0.33197  -0.32860  -0.32037  -0.31404
 Alpha  occ. eigenvalues --   -0.31293  -0.30526  -0.29429  -0.24377
 Alpha virt. eigenvalues --    0.08357   0.09361   0.09914   0.11278   0.12459
 Alpha virt. eigenvalues --    0.12759   0.13034   0.13860   0.14299   0.14665
 Alpha virt. eigenvalues --    0.15121   0.15508   0.16121   0.16515   0.17474

 Mulliken charges:
               1
     1  C   -0.378569
     2  C   -0.165265
     3  C   -0.173596
     4  C   -0.062438
     5  O   -0.266536
     6  C    0.148006
     7  C   -0.409771
     8  C   -0.213821
     9  C    0.040923
    10  C   -0.390301
    11  C   -0.165292
    12  C   -0.392926
    13  H    0.110216
    14  H    0.114896
    15  H    0.114686
    16  H    0.095217
    17  H    0.094673
    18  H    0.099991
    19  H    0.102406
    20  H    0.083933
    21  H    0.077954
    22  H    0.058128
    23  H    0.121333
    24  H    0.112916
    25  H    0.118825
    26  H    0.107210
    27  H    0.087066
    28  H    0.068381
    29  H    0.109986
    30  H    0.115109
    31  H    0.112200
    32  H    0.092802
    33  H    0.091000
    34  H    0.112281
    35  H    0.111473
    36  H    0.116903
 Sum of Mulliken charges =  -0.00000

 Dipole moment (field-independent basis, Debye):
    X=             -0.0165    Y=              0.4519    Z=              0.7071  Tot=              0.8393
 Quadrupole moment (field-independent basis, Debye-Ang):
   XX=            -77.1689   YY=            -78.8971   ZZ=            -79.5520
   XY=              0.4240   XZ=              1.2213   YZ=             -0.3735

  Exact polarizability: 156.731   1.334 119.473  -0.149   0.896 108.203
 Approx polarizability: 175.668   0.129 168.307   1.113   0.423 168.551

                      1                      2                      3
                      A                      A                      A
 Frequencies --     25.9208                37.7544                49.8182
 Red. masses --      3.3189                 1.6871                 2.7491
 Frc consts  --      0.0013                 0.0014                 0.0040
 IR Inten    --      0.0317                 0.1377                 0.0093

                      4                      5                      6
                      A                      A                      A
 Frequencies --     68.5250                82.4000                99.0119
 Red. masses --      2.7260                 2.2593                 2.2232
 Frc consts  --      0.0075                 0.0090                 0.0128
 IR Inten    --      0.3726                 0.0592                 0.0821

                      7                      8                      9
                      A                      A                      A
 Frequencies --    120.2467               136.2527               156.3356
 Red. masses --      1.9293                 2.9112                 2.4109
 Frc consts  --      0.0164                 0.0318                 0.0347
 IR Inten    --      0.0145                 1.9029                 1.0784

                     10                     11                     12
                      A                      A                      A
 Frequencies --    223.1814               225.8577               236.0992
 Red. masses --      1.5198                 1.5939                 1.1538
 Frc consts  --      0.0446                 0.0479                 0.0379
 IR Inten    --      0.1627                 0.0986                 0.2433

                     13                     14                     15
                      A                      A                      A
 Frequencies --    249.1383               255.6580               269.7882
 Red. masses --      1.2037                 2.7314                 1.3817
 Frc consts  --      0.0440                 0.1052                 0.0593
 IR Inten    --      0.0233                 0.5402                 0.0568

                     16                     17                     18
                      A                      A                      A
 Frequencies --    302.7583               317.8346               401.1401
 Red. masses --      2.6858                 2.1790                 2.1571
 Frc consts  --      0.1450                 0.1297                 0.2045
 IR Inten    --      0.3744                 0.0652                 0.6459

                     19                     20                     21
                      A                      A                      A
 Frequencies --    418.5860               426.9778               435.0523
 Red. masses --      2.3785                 2.8279                 2.2669
 Frc consts  --      0.2455                 0.3038                 0.2528
 IR Inten    --      1.8005                 0.3291                 1.3922

                     22                     23                     24
                      A                      A                      A
 Frequencies --    536.5623               558.1672               743.9441
 Red. masses --      2.8679                 2.7371                 1.0729
 Frc consts  --      0.4865                 0.5024                 0.3499
 IR Inten    --      2.1734                 1.7055                 2.4294

                     25                     26                     27
                      A                      A                      A
 Frequencies --    773.2890               814.4399               819.5745
 Red. masses --      1.3027                 1.1514                 2.0436
 Frc consts  --      0.4590                 0.4500                 0.8088
 IR Inten    --      1.8237                 0.6157                 1.1400

                     28                     29                     30
                      A                      A                      A
 Frequencies --    855.2506               871.5720               899.4674
 Red. masses --      2.2959                 1.5078                 1.9707
 Frc consts  --      0.9894                 0.6748                 0.9394
 IR Inten    --      0.3489                 1.6671                 2.9004

                     31                     32                     33
                      A                      A                      A
 Frequencies --    919.6763               952.4442               954.5398
 Red. masses --      1.8579                 1.4092                 1.4054
 Frc consts  --      0.9259                 0.7532                 0.7544
 IR Inten    --      4.5903                 1.6179                 2.7898

                     34                     35                     36
                      A                      A                      A
 Frequencies --    973.9212              1004.8694              1026.5036
 Red. masses --      1.2168                 1.7770                 3.3903
 Frc consts  --      0.6800                 1.0572                 2.1048
 IR Inten    --      1.9172                 5.7190                 2.4253

                     37                     38                     39
                      A                      A                      A
 Frequencies --   1040.4857              1050.0043              1066.9501
 Red. masses --      1.6273                 2.5046                 2.1321
 Frc consts  --      1.0380                 1.6269                 1.4300
 IR Inten    --      9.7723                 0.5644                 8.3195

                     40                     41                     42
                      A                      A                      A
 Frequencies --   1073.9897              1118.6211              1136.0916
 Red. masses --      2.1412                 3.4258                 2.2480
 Frc consts  --      1.4551                 2.5257                 1.7095
 IR Inten    --      2.2633               101.7587                14.9943

                     43                     44                     45
                      A                      A                      A
 Frequencies --   1150.5487              1166.3996              1177.6935
 Red. masses --      2.4710                 2.5652                 2.1659
 Frc consts  --      1.9272                 2.0562                 1.7699
 IR Inten    --     74.6251                52.4204                17.9978

                     46                     47                     48
                      A                      A                      A
 Frequencies --   1191.9052              1196.4528              1251.1522
 Red. masses --      1.9847                 1.7822                 1.3038
 Frc consts  --      1.6612                 1.5032                 1.2025
 IR Inten    --     18.4681                 2.5246                 1.3670

                     49                     50                     51
                      A                      A                      A
 Frequencies --   1256.0859              1289.7016              1294.4915
 Red. masses --      1.3322                 1.2269                 1.2981
 Frc consts  --      1.2384                 1.2024                 1.2816
 IR Inten    --     22.4280                 0.2745                 9.3942

                     52                     53                     54
                      A                      A                      A
 Frequencies --   1306.2983              1312.0606              1323.2007
 Red. masses --      1.1965                 1.1174                 1.0917
 Frc consts  --      1.2029                 1.1333                 1.1262
 IR Inten    --      0.2701                 0.5251                 0.1159

                     55                     56                     57
                      A                      A                      A
 Frequencies --   1344.3025              1368.5713              1378.8006
 Red. masses --      1.2890                 1.2563                 1.3180
 Frc consts  --      1.3724                 1.3864                 1.4762
 IR Inten    --      1.3456                25.3055                10.7976

                     58                     59                     60
                      A                      A                      A
 Frequencies --   1381.1987              1389.3055              1391.2691
 Red. masses --      1.4501                 1.4257                 1.5296
 Frc consts  --      1.6298                 1.6214                 1.7444
 IR Inten    --      1.2557                 2.7925                 8.5761

                     61                     62                     63
                      A                      A                      A
 Frequencies --   1404.6106              1411.1176              1412.6451
 Red. masses --      1.2699                 1.2968                 1.2440
 Frc consts  --      1.4762                 1.5214                 1.4626
 IR Inten    --     25.4268                 2.7227                 1.5412

                     64                     65                     66
                      A                      A                      A
 Frequencies --   1414.5112              1438.4814              1476.7423
 Red. masses --      1.2218                 1.4369                 1.0744
 Frc consts  --      1.4404                 1.7518                 1.3805
 IR Inten    --      3.0522                 4.7773                 0.8033

                     67                     68                     69
                      A                      A                      A
 Frequencies --   1487.0482              1488.0108              1490.6746
 Red. masses --      1.0650                 1.0640                 1.0654
 Frc consts  --      1.3876                 1.3881                 1.3948
 IR Inten    --      0.4650                 0.8902                 1.3745

                     70                     71                     72
                      A                      A                      A
 Frequencies --   1495.2055              1496.0289              1499.0190
 Red. masses --      1.0502                 1.0645                 1.0565
 Frc consts  --      1.3833                 1.4038                 1.3988
 IR Inten    --      3.2374                 0.5205                 5.5892

                     73                     74                     75
                      A                      A                      A
 Frequencies --   1499.8807              1501.7531              1508.0192
 Red. masses --      1.0401                 1.0540                 1.0673
 Frc consts  --      1.3787                 1.4005                 1.4300
 IR Inten    --      4.8881                 1.1924                 7.3483

                     76                     77                     78
                      A                      A                      A
 Frequencies --   1510.3636              1515.2677              1529.0323
 Red. masses --      1.0791                 1.0452                 1.0916
 Frc consts  --      1.4504                 1.4139                 1.5036
 IR Inten    --      1.9215                 5.1112                 4.3988

                     79                     80                     81
                      A                      A                      A
 Frequencies --   2937.6775              2946.3100              2979.4638
 Red. masses --      1.0773                 1.0643                 1.0972
 Frc consts  --      5.4777                 5.4435                 5.7388
 IR Inten    --     21.7802                59.4763                36.2916

                     82                     83                     84
                      A                      A                      A
 Frequencies --   2982.9928              3008.4393              3011.6782
 Red. masses --      1.0807                 1.0613                 1.0586
 Frc consts  --      5.6660                 5.6593                 5.6574
 IR Inten    --     11.3371                11.8599                18.2261

                     85                     86                     87
                      A                      A                      A
 Frequencies --   3019.2032              3027.0538              3027.9847
 Red. masses --      1.0633                 1.0492                 1.0409
 Frc consts  --      5.7105                 5.6645                 5.6231
 IR Inten    --     39.9299                17.6557                24.9574

                     88                     89                     90
                      A                      A                      A
 Frequencies --   3031.2406              3031.7175              3037.3694
 Red. masses --      1.0446                 1.0379                 1.1007
 Frc consts  --      5.6551                 5.6206                 5.9830
 IR Inten    --     53.8880                24.0683                 4.9649

                     91                     92                     93
                      A                      A                      A
 Frequencies --   3040.2210              3044.8420              3071.6345
 Red. masses --      1.0362                 1.0990                 1.1047
 Frc consts  --      5.6431                 6.0032                 6.1411
 IR Inten    --     18.5967                19.2975                33.5068

                     94                     95                     96
                      A                      A                      A
 Frequencies --   3078.7196              3095.0276              3096.0248
 Red. masses --      1.0966                 1.0972                 1.1005
 Frc consts  --      6.1238                 6.1924                 6.2154
 IR Inten    --     19.9673                17.0614                46.8416

                     97                     98                     99
                      A                      A                      A
 Frequencies --   3097.0843              3101.3742              3102.0501
 Red. masses --      1.1022                 1.1012                 1.1012
 Frc consts  --      6.2288                 6.2403                 6.2430
 IR Inten    --     61.1999                39.6351                52.1623

                    100                    101                    102
                      A                      A                      A
 Frequencies --   3109.6354              3109.9359              3120.2450
 Red. masses --      1.0998                 1.1014                 1.0999
 Frc consts  --      6.2658                 6.2762                 6.3090
 IR Inten    --     50.5823                29.1903                17.1515

 - Thermochemistry -
 -------------------
 Temperature   298.150 Kelvin.  Pressure   1.00000 Atm.
 Atom     1 has atomic number  6 and mass  12.00000

 Molecular mass:   172.18272 amu.
 Principal axes and moments of inertia in atomic units:
                           1         2         3
     Eigenvalues --   963.744116712.450597303.26083
           X            1.00000  -0.00124  -0.00056
           Y            0.00125   0.99999   0.00500
           Z            0.00055  -0.00500   0.99999
 This molecule is an asymmetric top.
 Rotational symmetry number  1.
 Warning -- assumption of classical behavior for rotation
           may cause significant error
 Rotational temperatures (Kelvin)      0.08987     0.01290     0.01186
 Rotational constants (GHZ):           1.87264     0.26886     0.24711
 Zero-point vibrational energy     876769.9 (Joules/Mol)
                                  209.55303 (Kcal/Mol)
 Warning -- explicit consideration of  23 degrees of freedom as
           vibrations may cause significant error
 Vibrational temperatures:     37.29    54.32    71.68    98.59   118.56
          (Kelvin)            142.46   173.01   196.04   224.93   321.11
                              324.96   339.69   358.45   367.83   388.17
                              435.60   457.29   577.15   602.25   614.33
                              625.94   771.99   803.08  1070.37  1112.59
                             1171.80  1179.18  1230.51  1254.00  1294.13
                             1323.21  1370.35  1373.37  1401.26  1445.78
                             1476.91  1497.03  1510.72  1535.10  1545.23
                             1609.45  1634.58  1655.38  1678.19  1694.44
                             1714.89  1721.43  1800.13  1807.23  1855.59
                             1862.48  1879.47  1887.76  1903.79  1934.15
                             1969.07  1983.79  1987.24  1998.90  2001.73
                             2020.92  2030.28  2032.48  2035.17  2069.65
                             2124.70  2139.53  2140.92  2144.75  2151.27
                             2152.45  2156.75  2157.99  2160.69  2169.70
                             2173.08  2180.13  2199.94  4226.66  4239.08
                             4286.78  4291.86  4328.47  4333.13  4343.96
                             4355.26  4356.59  4361.28  4361.97  4370.10
                             4374.20  4380.85  4419.40  4429.59  4453.05
                             4454.49  4456.01  4462.19  4463.16  4474.07
                             4474.50  4489.34

 Zero-point correction=                           0.333944 (Hartree/Particle)
 Thermal correction to Energy=                    0.350236
 Thermal correction to Enthalpy=                  0.351180
 Thermal correction to Gibbs Free Energy=         0.288850
 Sum of electronic and zero-point Energies=           -508.564379
 Sum of electronic and thermal Energies=              -508.548087
 Sum of electronic and thermal Enthalpies=            -508.547143
 Sum of electronic and thermal Free Energies=         -508.609474

                     E (Thermal)             CV                S
                      KCal/Mol        Cal/Mol-Kelvin    Cal/Mol-Kelvin
 Total                  219.777             58.367            131.186
 Electronic               0.000              0.000              0.000
 Translational            0.889              2.981             41.338
 Rotational               0.889              2.981             32.224
 Vibrational            217.999             52.405             57.624
 Vibration     1          0.593              1.985              6.119
 Vibration     2          0.594              1.982              5.374
 Vibration     3          0.595              1.978              4.825
 Vibration     4          0.598              1.969              4.195
 Vibration     5          0.600              1.961              3.833
 Vibration     6          0.604              1.950              3.474
 Vibration     7          0.609              1.932              3.096
 Vibration     8          0.614              1.917              2.856
 Vibration     9          0.620              1.896              2.594
 Vibration    10          0.649              1.806              1.933
 Vibration    11          0.650              1.802              1.912
 Vibration    12          0.655              1.786              1.832
 Vibration    13          0.662              1.764              1.737
 Vibration    14          0.666              1.753              1.691
 Vibration    15          0.674              1.729              1.598
 Vibration    16          0.694              1.668              1.402
 Vibration    17          0.704              1.640              1.321
 Vibration    18          0.767              1.468              0.958
 Vibration    19          0.781              1.430              0.897
 Vibration    20          0.789              1.412              0.869
 Vibration    21          0.796              1.394              0.842
 Vibration    22          0.892              1.169              0.573
 Vibration    23          0.914              1.122              0.528

                           ! Non-Optimized Parameters !
 Normal termination of Gaussian 16 at Tue May 23 09:51:17 2023.
