 Gaussian 16, Revision A.03,
 Gaussian 16:  ES64L-G16RevA.03 25-Dec-2016

 -----------------------------
 # opt freq b3lyp/6-31g(2df,p)
 -----------------------------

 -------------------
 Title Card Required
 -------------------
 Symbolic Z-matrix:
 Charge =  0 Multiplicity = 1

 SCF Done:  E(RB3LYP) =  -432.463898740     A.U. after   12 cycles
 SCF Done:  E(RB3LYP) =  -432.468487092     A.U. after   10 cycles
 SCF Done:  E(RB3LYP) =  -432.469481791     A.U. after   10 cycles
 SCF Done:  E(RB3LYP) =  -432.469658299     A.U. after    8 cycles
 SCF Done:  E(RB3LYP) =  -432.469678118     A.U. after    8 cycles
 SCF Done:  E(RB3LYP) =  -432.469681316     A.U. after    6 cycles
 SCF Done:  E(RB3LYP) =  -432.469681710     A.U. after    6 cycles
 SCF Done:  E(RB3LYP) =  -432.469681879     A.U. after    6 cycles
 SCF Done:  E(RB3LYP) =  -432.469681928     A.U. after    5 cycles
 Optimization completed.
    -- Stationary point found.
 Normal termination of Gaussian 16 at Mon May 29 00:04:17 2023.

 ----------------------------------------------------------------------
 #N Geom=AllCheck Guess=TCheck SCRF=Check GenChk RB3LYP/6-31G(2df,p) Fr
 eq
 ----------------------------------------------------------------------

 Structure from the checkpoint file:  "CCCCC1CCCCCC1.chk"
 -------------------
 Title Card Required
 -------------------
 Charge =  0 Multiplicity = 1

                         Standard orientation:
 ---------------------------------------------------------------------
 Center     Atomic      Atomic             Coordinates (Angstroms)
 Number     Number       Type             X           Y           Z
 ---------------------------------------------------------------------
      1          6           0        4.230602    0.867945   -0.877601
      2          6           0        3.480382   -0.179242   -0.050196
      3          6           0        1.959141    0.016144   -0.063050
      4          6           0        1.219540   -1.035073    0.775969
      5          6           0       -0.323203   -0.932674    0.826481
      6          6           0       -0.808701    0.418275    1.423287
      7          6           0       -1.259456    1.524673    0.449851
      8          6           0       -2.702722    1.361896   -0.056017
      9          6           0       -2.934487    0.235536   -1.071252
     10          6           0       -2.478684   -1.165990   -0.636778
     11          6           0       -0.950699   -1.321310   -0.527320
     12          1           0        5.312295    0.702449   -0.848779
     13          1           0        4.038942    1.879969   -0.503456
     14          1           0        3.918073    0.841334   -1.927623
     15          1           0        3.839381   -0.152748    0.987393
     16          1           0        3.719101   -1.183273   -0.425693
     17          1           0        1.608321   -0.010027   -1.102879
     18          1           0        1.728131    1.022239    0.310556
     19          1           0        1.600271   -0.983993    1.805324
     20          1           0        1.490223   -2.034352    0.406700
     21          1           0       -0.639765   -1.707785    1.538310
     22          1           0       -0.008225    0.810661    2.062084
     23          1           0       -1.647492    0.224319    2.103680
     24          1           0       -0.570384    1.605523   -0.399853
     25          1           0       -1.195394    2.483866    0.978167
     26          1           0       -3.029604    2.305287   -0.511190
     27          1           0       -3.356608    1.205003    0.813809
     28          1           0       -2.418875    0.487555   -2.008939
     29          1           0       -4.003854    0.204735   -1.315477
     30          1           0       -2.849872   -1.884192   -1.377707
     31          1           0       -2.956065   -1.442656    0.313640
     32          1           0       -0.488241   -0.747525   -1.340451
     33          1           0       -0.680651   -2.367467   -0.717864
 ---------------------------------------------------------------------

 SCF Done:  E(RB3LYP) =  -432.469681928     A.U. after    1 cycles

 The electronic state is 1-A.
 Alpha  occ. eigenvalues --  -10.17661 -10.17406 -10.17153 -10.17127 -10.17118
 Alpha  occ. eigenvalues --  -10.17090 -10.17088 -10.16980 -10.16960 -10.16902
 Alpha  occ. eigenvalues --  -10.16844  -0.82153  -0.78973  -0.75954  -0.74993
 Alpha  occ. eigenvalues --   -0.70522  -0.65024  -0.64063  -0.59948  -0.57343
 Alpha  occ. eigenvalues --   -0.55326  -0.52419  -0.46841  -0.46654  -0.44755
 Alpha  occ. eigenvalues --   -0.44255  -0.41991  -0.41299  -0.40371  -0.39567
 Alpha  occ. eigenvalues --   -0.39254  -0.37218  -0.36670  -0.36061  -0.34850
 Alpha  occ. eigenvalues --   -0.33182  -0.32956  -0.32191  -0.31399  -0.31249
 Alpha  occ. eigenvalues --   -0.30245  -0.29563  -0.28931  -0.28835
 Alpha virt. eigenvalues --    0.07795   0.09556   0.09801   0.11115   0.11983
 Alpha virt. eigenvalues --    0.12552   0.13855   0.14477   0.14978   0.15751
 Alpha virt. eigenvalues --    0.16401   0.16937   0.17415   0.17993   0.18279

 Mulliken charges:
               1
     1  C   -0.381857
     2  C   -0.158233
     3  C   -0.154400
     4  C   -0.207370
     5  C    0.023836
     6  C   -0.202604
     7  C   -0.183911
     8  C   -0.178155
     9  C   -0.175765
    10  C   -0.198602
    11  C   -0.188384
    12  H    0.109434
    13  H    0.112230
    14  H    0.112120
    15  H    0.092374
    16  H    0.092736
    17  H    0.092798
    18  H    0.096593
    19  H    0.085579
    20  H    0.084020
    21  H    0.065449
    22  H    0.087542
    23  H    0.088078
    24  H    0.093652
    25  H    0.087622
    26  H    0.086210
    27  H    0.088447
    28  H    0.089548
    29  H    0.086448
    30  H    0.088450
    31  H    0.087949
    32  H    0.092146
    33  H    0.086019
 Sum of Mulliken charges =   0.00000

 Dipole moment (field-independent basis, Debye):
    X=             -0.0411    Y=             -0.0490    Z=              0.0418  Tot=              0.0764
 Quadrupole moment (field-independent basis, Debye-Ang):
   XX=            -73.5727   YY=            -72.9512   ZZ=            -72.6269
   XY=             -0.0259   XZ=              0.0386   YZ=              0.3441

  Exact polarizability: 135.105  -0.568 111.908   1.962   0.498 105.641
 Approx polarizability: 164.301  -0.016 161.211  -0.289   0.186 161.827

                      1                      2                      3
                      A                      A                      A
 Frequencies --     46.3959                63.6520                76.0985
 Red. masses --      2.5448                 2.7169                 1.7533
 Frc consts  --      0.0032                 0.0065                 0.0060
 IR Inten    --      0.0063                 0.0006                 0.0030

                      4                      5                      6
                      A                      A                      A
 Frequencies --    129.7966               140.0637               179.3893
 Red. masses --      2.5825                 2.3949                 1.9405
 Frc consts  --      0.0256                 0.0277                 0.0368
 IR Inten    --      0.0302                 0.0112                 0.0240

                      7                      8                      9
                      A                      A                      A
 Frequencies --    230.1909               244.4744               263.4501
 Red. masses --      2.5356                 1.1411                 2.0854
 Frc consts  --      0.0792                 0.0402                 0.0853
 IR Inten    --      0.0428                 0.0017                 0.0640

                     10                     11                     12
                      A                      A                      A
 Frequencies --    298.2659               317.7250               358.3131
 Red. masses --      3.2791                 2.1014                 2.3735
 Frc consts  --      0.1719                 0.1250                 0.1795
 IR Inten    --      0.2154                 0.0271                 0.0132

                     13                     14                     15
                      A                      A                      A
 Frequencies --    375.8976               405.9657               483.3255
 Red. masses --      2.3126                 2.4004                 1.5089
 Frc consts  --      0.1925                 0.2331                 0.2077
 IR Inten    --      0.0238                 0.0525                 0.4220

                     16                     17                     18
                      A                      A                      A
 Frequencies --    510.6859               593.2178               708.6491
 Red. masses --      1.9343                 2.5559                 2.6256
 Frc consts  --      0.2972                 0.5299                 0.7769
 IR Inten    --      0.1421                 0.7790                 0.1035

                     19                     20                     21
                      A                      A                      A
 Frequencies --    735.4324               783.2028               796.4212
 Red. masses --      1.0831                 1.2850                 2.4793
 Frc consts  --      0.3451                 0.4644                 0.9265
 IR Inten    --      2.4393                 0.3877                 0.0531

                     22                     23                     24
                      A                      A                      A
 Frequencies --    823.2676               836.7863               858.8908
 Red. masses --      1.5497                 1.9835                 1.4341
 Frc consts  --      0.6188                 0.8183                 0.6233
 IR Inten    --      1.4708                 0.4865                 1.3191

                     25                     26                     27
                      A                      A                      A
 Frequencies --    903.5912               912.8135               932.7384
 Red. masses --      1.8624                 2.2521                 1.3716
 Frc consts  --      0.8959                 1.1056                 0.7031
 IR Inten    --      3.1173                 1.1786                 1.3005

                     28                     29                     30
                      A                      A                      A
 Frequencies --    967.0510               970.5140               991.4208
 Red. masses --      2.2162                 2.1514                 1.8859
 Frc consts  --      1.2211                 1.1939                 1.0921
 IR Inten    --      1.7103                 0.7587                 0.7342

                     31                     32                     33
                      A                      A                      A
 Frequencies --   1018.8459              1026.8361              1055.3460
 Red. masses --      1.7756                 2.0748                 2.5396
 Frc consts  --      1.0860                 1.2889                 1.6665
 IR Inten    --      0.2479                 0.1912                 0.3254

                     34                     35                     36
                      A                      A                      A
 Frequencies --   1072.0145              1081.0102              1098.5862
 Red. masses --      1.5468                 1.9913                 1.8059
 Frc consts  --      1.0473                 1.3710                 1.2842
 IR Inten    --      0.8752                 0.2085                 1.6078

                     37                     38                     39
                      A                      A                      A
 Frequencies --   1112.2524              1131.3488              1170.7909
 Red. masses --      1.7921                 1.8921                 1.6208
 Frc consts  --      1.3062                 1.4269                 1.3090
 IR Inten    --      0.9865                 0.1753                 1.3477

                     40                     41                     42
                      A                      A                      A
 Frequencies --   1196.8962              1222.3969              1234.6666
 Red. masses --      2.1113                 1.2206                 1.2910
 Frc consts  --      1.7820                 1.0746                 1.1595
 IR Inten    --      0.2213                 0.3344                 0.7251

                     43                     44                     45
                      A                      A                      A
 Frequencies --   1246.7119              1264.9679              1276.5466
 Red. masses --      1.3544                 1.2683                 1.3510
 Frc consts  --      1.2403                 1.1957                 1.2971
 IR Inten    --      0.6957                 1.0148                 0.5049

                     46                     47                     48
                      A                      A                      A
 Frequencies --   1303.6972              1314.7564              1321.8253
 Red. masses --      1.2205                 1.1401                 1.1657
 Frc consts  --      1.2222                 1.1611                 1.2001
 IR Inten    --      2.0259                 0.9850                 0.9470

                     49                     50                     51
                      A                      A                      A
 Frequencies --   1333.4183              1336.9963              1361.5166
 Red. masses --      1.1390                 1.2156                 1.3022
 Frc consts  --      1.1932                 1.2803                 1.4223
 IR Inten    --      0.6911                 2.3399                 0.4653

                     52                     53                     54
                      A                      A                      A
 Frequencies --   1370.9381              1377.7987              1380.7123
 Red. masses --      1.3747                 1.4083                 1.3875
 Frc consts  --      1.5223                 1.5751                 1.5584
 IR Inten    --      1.2165                 1.4315                 5.1970

                     55                     56                     57
                      A                      A                      A
 Frequencies --   1388.3789              1392.7983              1394.7979
 Red. masses --      1.4461                 1.4239                 1.4323
 Frc consts  --      1.6423                 1.6275                 1.6417
 IR Inten    --      1.7972                 3.2979                 3.5513

                     58                     59                     60
                      A                      A                      A
 Frequencies --   1405.3708              1408.5155              1414.2252
 Red. masses --      1.3941                 1.3885                 1.2927
 Frc consts  --      1.6223                 1.6229                 1.5233
 IR Inten    --      3.5871                 3.9578                 1.9423

                     61                     62                     63
                      A                      A                      A
 Frequencies --   1478.3553              1482.6408              1485.0957
 Red. masses --      1.0820                 1.0845                 1.0908
 Frc consts  --      1.3932                 1.4046                 1.4174
 IR Inten    --      0.7734                 1.5159                 0.1767

                     64                     65                     66
                      A                      A                      A
 Frequencies --   1485.3897              1486.7759              1490.6294
 Red. masses --      1.0736                 1.0867                 1.0960
 Frc consts  --      1.3957                 1.4153                 1.4348
 IR Inten    --      0.7538                 2.3806                 3.3835

                     67                     68                     69
                      A                      A                      A
 Frequencies --   1499.0206              1499.8278              1502.4405
 Red. masses --      1.0719                 1.0405                 1.0790
 Frc consts  --      1.4191                 1.3790                 1.4351
 IR Inten    --      2.3563                 5.7039                10.9144

                     70                     71                     72
                      A                      A                      A
 Frequencies --   1504.2382              1512.9440              2986.2125
 Red. masses --      1.0862                 1.0890                 1.0768
 Frc consts  --      1.4481                 1.4687                 5.6574
 IR Inten    --      0.5274                 3.1502                 8.3803

                     73                     74                     75
                      A                      A                      A
 Frequencies --   3001.5950              3002.2536              3002.9593
 Red. masses --      1.0679                 1.0642                 1.0611
 Frc consts  --      5.6687                 5.6514                 5.6377
 IR Inten    --      9.0965                23.0267                20.2107

                     76                     77                     78
                      A                      A                      A
 Frequencies --   3008.8493              3009.0253              3015.0979
 Red. masses --      1.0592                 1.0615                 1.0626
 Frc consts  --      5.6499                 5.6629                 5.6912
 IR Inten    --     12.6597                 4.7966                30.8485

                     79                     80                     81
                      A                      A                      A
 Frequencies --   3016.4750              3018.8895              3024.3172
 Red. masses --      1.0639                 1.0610                 1.0639
 Frc consts  --      5.7034                 5.6971                 5.7334
 IR Inten    --     14.7007                63.7404                12.8893

                     82                     83                     84
                      A                      A                      A
 Frequencies --   3027.4187              3027.6894              3035.9497
 Red. masses --      1.0910                 1.0436                 1.1017
 Frc consts  --      5.8916                 5.6365                 5.9828
 IR Inten    --      8.8995                37.2612                 1.9747

                     85                     86                     87
                      A                      A                      A
 Frequencies --   3042.8342              3046.8576              3048.7492
 Red. masses --      1.0943                 1.1007                 1.0990
 Frc consts  --      5.9696                 6.0204                 6.0187
 IR Inten    --     92.2761                12.9809                29.1366

                     88                     89                     90
                      A                      A                      A
 Frequencies --   3052.9022              3054.1064              3064.0254
 Red. masses --      1.0988                 1.0973                 1.1031
 Frc consts  --      6.0341                 6.0303                 6.1020
 IR Inten    --     96.8172                20.6439                85.8701

                     91                     92                     93
                      A                      A                      A
 Frequencies --   3064.6568              3093.5933              3098.6656
 Red. masses --      1.1002                 1.1021                 1.1009
 Frc consts  --      6.0880                 6.2141                 6.2280
 IR Inten    --     88.0457                60.5060                41.3792

 - Thermochemistry -
 -------------------
 Temperature   298.150 Kelvin.  Pressure   1.00000 Atm.
 Atom     1 has atomic number  6 and mass  12.00000

 Molecular mass:   154.17215 amu.
 Principal axes and moments of inertia in atomic units:
                           1         2         3
     Eigenvalues --   979.319943571.122853782.79641
           X            0.99999   0.00302  -0.00252
           Y           -0.00303   0.99997  -0.00668
           Z            0.00250   0.00669   0.99997
 This molecule is an asymmetric top.
 Rotational symmetry number  1.
 Warning -- assumption of classical behavior for rotation
           may cause significant error
 Rotational temperatures (Kelvin)      0.08844     0.02425     0.02290
 Rotational constants (GHZ):           1.84285     0.50537     0.47709
 Zero-point vibrational energy     818384.1 (Joules/Mol)
                                  195.59849 (Kcal/Mol)
 Warning -- explicit consideration of  17 degrees of freedom as
           vibrations may cause significant error
 Vibrational temperatures:     66.75    91.58   109.49   186.75   201.52
          (Kelvin)            258.10   331.19   351.74   379.05   429.14
                              457.14   515.53   540.83   584.09   695.40
                              734.76   853.51  1019.59  1058.12  1126.85
                             1145.87  1184.50  1203.95  1235.75  1300.07
                             1313.33  1342.00  1391.37  1396.35  1426.43
                             1465.89  1477.39  1518.41  1542.39  1555.33
                             1580.62  1600.28  1627.76  1684.51  1722.07
                             1758.76  1776.41  1793.74  1820.01  1836.67
                             1875.73  1891.64  1901.81  1918.49  1923.64
                             1958.92  1972.47  1982.35  1986.54  1997.57
                             2003.93  2006.80  2022.02  2026.54  2034.75
                             2127.02  2133.19  2136.72  2137.14  2139.14
                             2144.68  2156.76  2157.92  2161.68  2164.26
                             2176.79  4296.49  4318.63  4319.57  4320.59
                             4329.06  4329.32  4338.05  4340.03  4343.51
                             4351.32  4355.78  4356.17  4368.05  4377.96
                             4383.75  4386.47  4392.45  4394.18  4408.45
                             4409.36  4450.99  4458.29

 Zero-point correction=                           0.311706 (Hartree/Particle)
 Thermal correction to Energy=                    0.324167
 Thermal correction to Enthalpy=                  0.325111
 Thermal correction to Gibbs Free Energy=         0.272943
 Sum of electronic and zero-point Energies=           -432.157976
 Sum of electronic and thermal Energies=              -432.145515
 Sum of electronic and thermal Enthalpies=            -432.144571
 Sum of electronic and thermal Free Energies=         -432.196739

                     E (Thermal)             CV                S
                      KCal/Mol        Cal/Mol-Kelvin    Cal/Mol-Kelvin
 Total                  203.418             47.998            109.798
 Electronic               0.000              0.000              0.000
 Translational            0.889              2.981             41.008
 Rotational               0.889              2.981             30.959
 Vibrational            201.640             42.036             37.830
 Vibration     1          0.595              1.979              4.965
 Vibration     2          0.597              1.972              4.341
 Vibration     3          0.599              1.965              3.989
 Vibration     4          0.612              1.923              2.949
 Vibration     5          0.615              1.913              2.803
 Vibration     6          0.629              1.868              2.335
 Vibration     7          0.652              1.795              1.877
 Vibration     8          0.660              1.772              1.770
 Vibration     9          0.670              1.740              1.639
 Vibration    10          0.691              1.677              1.427
 Vibration    11          0.704              1.640              1.322
 Vibration    12          0.733              1.558              1.129
 Vibration    13          0.747              1.521              1.056
 Vibration    14          0.771              1.457              0.941
 Vibration    15          0.840              1.287              0.701
 Vibration    16          0.866              1.226              0.632
 Vibration    17          0.951              1.046              0.461

 Optimization completed.
    -- Stationary point found.
 Normal termination of Gaussian 16 at Mon May 29 01:24:08 2023.
