 Gaussian 16, Revision A.03,
 Gaussian 16:  ES64L-G16RevA.03 25-Dec-2016

 -----------------------------
 # opt freq b3lyp/6-31g(2df,p)
 -----------------------------

 -------------------
 Title Card Required
 -------------------
 Symbolic Z-matrix:
 Charge =  0 Multiplicity = 1

 SCF Done:  E(RB3LYP) =  -702.036091241     A.U. after   12 cycles
 SCF Done:  E(RB3LYP) =  -702.049571060     A.U. after   12 cycles
 SCF Done:  E(RB3LYP) =  -702.052825440     A.U. after   10 cycles
 SCF Done:  E(RB3LYP) =  -702.054737752     A.U. after   10 cycles
 SCF Done:  E(RB3LYP) =  -702.055211084     A.U. after   10 cycles
 SCF Done:  E(RB3LYP) =  -702.055315065     A.U. after   10 cycles
 SCF Done:  E(RB3LYP) =  -702.055589557     A.U. after   10 cycles
 SCF Done:  E(RB3LYP) =  -702.055897583     A.U. after   10 cycles
 SCF Done:  E(RB3LYP) =  -702.056282369     A.U. after   10 cycles
 SCF Done:  E(RB3LYP) =  -702.056157978     A.U. after   10 cycles
 SCF Done:  E(RB3LYP) =  -702.056536743     A.U. after    8 cycles
 SCF Done:  E(RB3LYP) =  -702.056537853     A.U. after    8 cycles
 SCF Done:  E(RB3LYP) =  -702.056538864     A.U. after    8 cycles
 SCF Done:  E(RB3LYP) =  -702.056539812     A.U. after    8 cycles
 SCF Done:  E(RB3LYP) =  -702.056541016     A.U. after    8 cycles
 SCF Done:  E(RB3LYP) =  -702.056542551     A.U. after    9 cycles
 SCF Done:  E(RB3LYP) =  -702.056543587     A.U. after    7 cycles
 SCF Done:  E(RB3LYP) =  -702.056543925     A.U. after    8 cycles
 SCF Done:  E(RB3LYP) =  -702.056543948     A.U. after    6 cycles
 Optimization completed.
    -- Stationary point found.
 Normal termination of Gaussian 16 at Wed May 24 03:21:25 2023.

 ----------------------------------------------------------------------
 #N Geom=AllCheck Guess=TCheck SCRF=Check GenChk RB3LYP/6-31G(2df,p) Fr
 eq
 ----------------------------------------------------------------------

 Structure from the checkpoint file:  "CCCCqCOrCCOCCCqCCrCC.chk"
 -------------------
 Title Card Required
 -------------------
 Charge =  0 Multiplicity = 1

                         Standard orientation:
 ---------------------------------------------------------------------
 Center     Atomic      Atomic             Coordinates (Angstroms)
 Number     Number       Type             X           Y           Z
 ---------------------------------------------------------------------
      1          6           0       -6.717962   -1.646051   -0.463942
      2          6           0       -5.684887   -0.520212   -0.566997
      3          6           0       -4.340646   -0.902957    0.067250
      4          6           0       -3.207217    0.136878   -0.048907
      5          6           0       -3.469098    1.407231    0.781847
      6          8           0       -4.555233    2.206060    0.333144
      7          6           0       -1.858406   -0.490697    0.364360
      8          6           0       -0.628692    0.238823   -0.167916
      9          8           0        0.519248   -0.457506    0.264414
     10          6           0        1.730029    0.125513   -0.173083
     11          6           0        2.880190   -0.708249    0.378734
     12          6           0        4.289062   -0.317870   -0.107576
     13          6           0        4.669166    1.142163    0.250583
     14          6           0        4.388423    2.172267   -0.850484
     15          6           0        5.315691   -1.324703    0.454202
     16          6           0        6.677806   -1.299608   -0.246152
     17          1           0       -7.666041   -1.361517   -0.931245
     18          1           0       -6.926931   -1.896872    0.582287
     19          1           0       -6.364904   -2.559747   -0.956124
     20          1           0       -6.069336    0.389383   -0.099267
     21          1           0       -5.521822   -0.273041   -1.625610
     22          1           0       -3.994876   -1.837074   -0.396212
     23          1           0       -4.493182   -1.138578    1.130902
     24          1           0       -3.130920    0.440103   -1.106842
     25          1           0       -2.552070    2.012930    0.837800
     26          1           0       -3.723049    1.119834    1.809232
     27          1           0       -4.363319    2.483245   -0.568423
     28          1           0       -1.808158   -1.523273    0.002693
     29          1           0       -1.788304   -0.546469    1.458388
     30          1           0       -0.592599    1.283222    0.185447
     31          1           0       -0.661112    0.277643   -1.271666
     32          1           0        1.789452    1.170078    0.173807
     33          1           0        1.765086    0.149455   -1.276891
     34          1           0        2.682066   -1.752086    0.107610
     35          1           0        2.846525   -0.663171    1.475293
     36          1           0        4.305589   -0.414203   -1.204208
     37          1           0        5.737005    1.190382    0.491355
     38          1           0        4.148270    1.431902    1.172852
     39          1           0        4.958589    1.937840   -1.756265
     40          1           0        4.675425    3.179213   -0.530031
     41          1           0        3.331207    2.204715   -1.130192
     42          1           0        4.899737   -2.336704    0.374180
     43          1           0        5.447039   -1.137021    1.528867
     44          1           0        6.575991   -1.540966   -1.310260
     45          1           0        7.359643   -2.032636    0.196426
     46          1           0        7.162115   -0.320185   -0.175874
 ---------------------------------------------------------------------

 SCF Done:  E(RB3LYP) =  -702.056543948     A.U. after    1 cycles

 The electronic state is 1-A.
 Alpha  occ. eigenvalues --  -19.13472 -19.13448 -10.22486 -10.22326 -10.22235
 Alpha  occ. eigenvalues --  -10.18742 -10.18336 -10.17852 -10.17717 -10.17628
 Alpha  occ. eigenvalues --  -10.17394 -10.17353 -10.17286 -10.17149 -10.16818
 Alpha  occ. eigenvalues --  -10.16570  -1.02907  -1.01477  -0.81813  -0.81064
 Alpha  occ. eigenvalues --   -0.76829  -0.74720  -0.74354  -0.70709  -0.66924
 Alpha  occ. eigenvalues --   -0.66571  -0.61992  -0.61045  -0.59414  -0.57924
 Alpha  occ. eigenvalues --   -0.56902  -0.55599  -0.50181  -0.49272  -0.47906
 Alpha  occ. eigenvalues --   -0.47302  -0.45241  -0.44999  -0.44490  -0.43249
 Alpha  occ. eigenvalues --   -0.42614  -0.41899  -0.41084  -0.40634  -0.39743
 Alpha  occ. eigenvalues --   -0.39099  -0.38776  -0.37625  -0.36399  -0.36108
 Alpha  occ. eigenvalues --   -0.35989  -0.34899  -0.34534  -0.33925  -0.33393
 Alpha  occ. eigenvalues --   -0.33141  -0.31934  -0.31865  -0.31645  -0.31573
 Alpha  occ. eigenvalues --   -0.30893  -0.30196  -0.29885  -0.25952  -0.25076
 Alpha virt. eigenvalues --    0.07335   0.08294   0.08845   0.09466   0.10686
 Alpha virt. eigenvalues --    0.10976   0.11061   0.11500   0.11857   0.13473
 Alpha virt. eigenvalues --    0.13984   0.14619   0.15054   0.15664   0.15980

 Mulliken charges:
               1
     1  C   -0.378083
     2  C   -0.183169
     3  C   -0.165448
     4  C   -0.025780
     5  C   -0.056673
     6  O   -0.414395
     7  C   -0.215429
     8  C   -0.061225
     9  O   -0.245480
    10  C   -0.071192
    11  C   -0.204479
    12  C    0.045353
    13  C   -0.176404
    14  C   -0.385701
    15  C   -0.180781
    16  C   -0.391685
    17  H    0.108601
    18  H    0.112255
    19  H    0.108343
    20  H    0.123719
    21  H    0.080011
    22  H    0.087284
    23  H    0.091283
    24  H    0.056254
    25  H    0.087497
    26  H    0.110964
    27  H    0.279399
    28  H    0.104774
    29  H    0.104754
    30  H    0.083545
    31  H    0.080675
    32  H    0.086540
    33  H    0.080732
    34  H    0.101410
    35  H    0.100357
    36  H    0.063449
    37  H    0.094576
    38  H    0.093464
    39  H    0.114816
    40  H    0.110530
    41  H    0.118029
    42  H    0.091386
    43  H    0.093258
    44  H    0.112914
    45  H    0.112810
    46  H    0.116942
 Sum of Mulliken charges =  -0.00000

 Dipole moment (field-independent basis, Debye):
    X=              1.3688    Y=              0.4245    Z=             -1.2412  Tot=              1.8959
 Quadrupole moment (field-independent basis, Debye-Ang):
   XX=           -111.2307   YY=           -105.8454   ZZ=           -102.6767
   XY=              2.6350   XZ=              4.0707   YZ=             -2.2565

  Exact polarizability: 206.757   0.706 153.969   1.742  -2.445 137.887
 Approx polarizability: 226.588  -1.086 218.904   0.208  -2.071 219.810

                      1                      2                      3
                      A                      A                      A
 Frequencies --      8.7221                19.5463                34.6384
 Red. masses --      3.1295                 3.9181                 3.9453
 Frc consts  --      0.0001                 0.0009                 0.0028
 IR Inten    --      0.0177                 0.0123                 0.1444

                      4                      5                      6
                      A                      A                      A
 Frequencies --     52.1945                64.4279                72.8294
 Red. masses --      2.3230                 1.9935                 2.2030
 Frc consts  --      0.0037                 0.0049                 0.0069
 IR Inten    --      0.2151                 0.3765                 0.4548

                      7                      8                      9
                      A                      A                      A
 Frequencies --     79.9379                87.4750               111.0680
 Red. masses --      2.4727                 2.3591                 2.5696
 Frc consts  --      0.0093                 0.0106                 0.0187
 IR Inten    --      0.2683                 0.7799                 0.6191

                     10                     11                     12
                      A                      A                      A
 Frequencies --    113.6742               133.2280               143.0599
 Red. masses --      1.9625                 3.0952                 2.1437
 Frc consts  --      0.0149                 0.0324                 0.0258
 IR Inten    --      1.2320                 0.2558                 1.3310

                     13                     14                     15
                      A                      A                      A
 Frequencies --    161.6640               175.5843               185.0800
 Red. masses --      2.5239                 2.9993                 2.8746
 Frc consts  --      0.0389                 0.0545                 0.0580
 IR Inten    --      2.2402                 0.1084                 0.6421

                     16                     17                     18
                      A                      A                      A
 Frequencies --    211.2992               233.4812               242.0525
 Red. masses --      1.2548                 1.2740                 1.3251
 Frc consts  --      0.0330                 0.0409                 0.0457
 IR Inten    --      0.0863                 0.1356                 0.1676

                     19                     20                     21
                      A                      A                      A
 Frequencies --    255.5750               267.0745               293.0574
 Red. masses --      2.0910                 2.8520                 1.2544
 Frc consts  --      0.0805                 0.1199                 0.0635
 IR Inten    --      1.8226                 4.7105                94.9436

                     22                     23                     24
                      A                      A                      A
 Frequencies --    299.6600               322.2739               351.5918
 Red. masses --      2.0101                 2.7932                 3.5985
 Frc consts  --      0.1063                 0.1709                 0.2621
 IR Inten    --      0.1485                 7.1739                 0.5683

                     25                     26                     27
                      A                      A                      A
 Frequencies --    373.0536               398.7522               424.5236
 Red. masses --      2.6695                 2.8826                 2.4721
 Frc consts  --      0.2189                 0.2700                 0.2625
 IR Inten    --      0.8980                18.1969                 0.8803

                     28                     29                     30
                      A                      A                      A
 Frequencies --    464.0519               501.6798               538.4362
 Red. masses --      2.5790                 2.4315                 2.8367
 Frc consts  --      0.3272                 0.3606                 0.4845
 IR Inten    --      0.2154                 4.1123                 0.5599

                     31                     32                     33
                      A                      A                      A
 Frequencies --    591.8823               748.8574               758.0732
 Red. masses --      3.1169                 1.1123                 1.3433
 Frc consts  --      0.6433                 0.3675                 0.4548
 IR Inten    --      5.0830                 2.8938                 3.4708

                     34                     35                     36
                      A                      A                      A
 Frequencies --    773.5335               782.1848               795.3059
 Red. masses --      1.2353                 1.2533                 1.2623
 Frc consts  --      0.4355                 0.4518                 0.4704
 IR Inten    --      2.3904                 1.9429                 2.6758

                     37                     38                     39
                      A                      A                      A
 Frequencies --    851.3632               857.6071               868.6967
 Red. masses --      1.3831                 1.4608                 1.8181
 Frc consts  --      0.5906                 0.6330                 0.8084
 IR Inten    --      4.1440                 1.7603                 1.4708

                     40                     41                     42
                      A                      A                      A
 Frequencies --    916.2515               920.1734               952.3674
 Red. masses --      2.0987                 2.0098                 1.4811
 Frc consts  --      1.0381                 1.0027                 0.7915
 IR Inten    --      4.4472                 0.0849                22.3865

                     43                     44                     45
                      A                      A                      A
 Frequencies --    983.1457              1011.8218              1020.3992
 Red. masses --      2.8279                 1.9779                 1.6089
 Frc consts  --      1.6104                 1.1931                 0.9870
 IR Inten    --      2.1247                 6.4179                 3.1890

                     46                     47                     48
                      A                      A                      A
 Frequencies --   1024.9291              1030.6278              1041.5325
 Red. masses --      1.9616                 1.6601                 2.4920
 Frc consts  --      1.2141                 1.0389                 1.5927
 IR Inten    --      1.6107                 0.6115                 0.2074

                     49                     50                     51
                      A                      A                      A
 Frequencies --   1046.8059              1049.5361              1061.1923
 Red. masses --      2.2013                 1.8325                 2.2037
 Frc consts  --      1.4212                 1.1893                 1.4622
 IR Inten    --     12.7695                 4.3767                13.1110

                     52                     53                     54
                      A                      A                      A
 Frequencies --   1065.1155              1079.8131              1082.6391
 Red. masses --      2.8318                 3.1679                 2.7024
 Frc consts  --      1.8928                 2.1763                 1.8663
 IR Inten    --     11.1510                81.7118                15.4732

                     55                     56                     57
                      A                      A                      A
 Frequencies --   1114.9494              1139.3507              1143.3897
 Red. masses --      1.4076                 2.3820                 2.2096
 Frc consts  --      1.0310                 1.8218                 1.7020
 IR Inten    --      1.4222                41.0989                 4.8377

                     58                     59                     60
                      A                      A                      A
 Frequencies --   1158.4487              1163.1980              1170.6334
 Red. masses --      5.3793                 3.0372                 2.0283
 Frc consts  --      4.2533                 2.4212                 1.6377
 IR Inten    --    251.0505                 1.8247                14.0778

                     61                     62                     63
                      A                      A                      A
 Frequencies --   1181.7377              1213.6537              1236.7902
 Red. masses --      1.9375                 1.4638                 1.3845
 Frc consts  --      1.5942                 1.2703                 1.2477
 IR Inten    --      0.8469                 3.0681                 6.0567

                     64                     65                     66
                      A                      A                      A
 Frequencies --   1247.4450              1273.1341              1279.4133
 Red. masses --      1.3340                 1.2281                 1.2810
 Frc consts  --      1.2231                 1.1728                 1.2354
 IR Inten    --      3.7899                 2.3600                 4.2369

                     67                     68                     69
                      A                      A                      A
 Frequencies --   1287.9511              1294.4857              1302.7628
 Red. masses --      1.2381                 1.2049                 1.1556
 Frc consts  --      1.2100                 1.1895                 1.1556
 IR Inten    --      4.9416                 0.4726                 1.8942

                     70                     71                     72
                      A                      A                      A
 Frequencies --   1308.7316              1317.8804              1324.2901
 Red. masses --      1.1427                 1.1192                 1.2290
 Frc consts  --      1.1531                 1.1453                 1.2699
 IR Inten    --      0.7103                 1.0624                 0.5457

                     73                     74                     75
                      A                      A                      A
 Frequencies --   1333.1170              1342.3662              1351.3769
 Red. masses --      1.1633                 1.2425                 1.2799
 Frc consts  --      1.2181                 1.3191                 1.3771
 IR Inten    --      0.2804                 2.5913                 6.4709

                     76                     77                     78
                      A                      A                      A
 Frequencies --   1361.5401              1379.4771              1387.4889
 Red. masses --      1.3039                 1.3276                 1.4677
 Frc consts  --      1.4241                 1.4885                 1.6647
 IR Inten    --      2.9966                 7.2337                 1.2808

                     79                     80                     81
                      A                      A                      A
 Frequencies --   1389.9486              1391.7481              1399.9480
 Red. masses --      1.4486                 1.4342                 1.3049
 Frc consts  --      1.6489                 1.6368                 1.5068
 IR Inten    --      2.5332                 0.7490                11.2031

                     82                     83                     84
                      A                      A                      A
 Frequencies --   1408.7986              1411.5873              1413.7786
 Red. masses --      1.3370                 1.2372                 1.2667
 Frc consts  --      1.5635                 1.4524                 1.4917
 IR Inten    --     35.0027                 7.7053                19.3008

                     85                     86                     87
                      A                      A                      A
 Frequencies --   1414.9294              1424.9958              1453.8079
 Red. masses --      1.2321                 1.3073                 1.4949
 Frc consts  --      1.4533                 1.5641                 1.8615
 IR Inten    --      1.4565                21.4370                 2.1882

                     88                     89                     90
                      A                      A                      A
 Frequencies --   1479.3788              1480.9007              1488.1658
 Red. masses --      1.0811                 1.0740                 1.0610
 Frc consts  --      1.3941                 1.3877                 1.3844
 IR Inten    --      0.1817                 0.1564                 0.2233

                     91                     92                     93
                      A                      A                      A
 Frequencies --   1492.9628              1494.7071              1497.0178
 Red. masses --      1.0694                 1.0630                 1.0655
 Frc consts  --      1.4044                 1.3993                 1.4069
 IR Inten    --      2.4654                 3.2982                 2.1146

                     94                     95                     96
                      A                      A                      A
 Frequencies --   1499.6116              1500.5890              1502.1143
 Red. masses --      1.0409                 1.0453                 1.0429
 Frc consts  --      1.3792                 1.3868                 1.3865
 IR Inten    --      5.0342                 2.1491                 2.0442

                     97                     98                     99
                      A                      A                      A
 Frequencies --   1504.8154              1506.9359              1511.4254
 Red. masses --      1.0870                 1.0682                 1.0715
 Frc consts  --      1.4503                 1.4292                 1.4422
 IR Inten    --      0.8511                 2.8281                 8.6052

                    100                    101                    102
                      A                      A                      A
 Frequencies --   1515.3267              1517.3953              1538.4574
 Red. masses --      1.0908                 1.0861                 1.0920
 Frc consts  --      1.4757                 1.4733                 1.5229
 IR Inten    --      4.0546                 5.2085                 0.5925

                    103                    104                    105
                      A                      A                      A
 Frequencies --   2936.0266              2947.8023              2961.5517
 Red. masses --      1.0574                 1.0633                 1.0802
 Frc consts  --      5.3706                 5.4436                 5.5822
 IR Inten    --     25.0596                59.5793                32.2453

                    106                    107                    108
                      A                      A                      A
 Frequencies --   2967.6888              2980.1663              2981.5350
 Red. masses --      1.0954                 1.0972                 1.0808
 Frc consts  --      5.6842                 5.7411                 5.6607
 IR Inten    --     37.6634                35.0398                11.2983

                    109                    110                    111
                      A                      A                      A
 Frequencies --   2990.3288              2996.6847              3009.9921
 Red. masses --      1.0686                 1.0605                 1.0731
 Frc consts  --      5.6299                 5.6110                 5.7280
 IR Inten    --     86.2341                10.8894                31.1185

                    112                    113                    114
                      A                      A                      A
 Frequencies --   3010.9926              3018.7448              3025.1622
 Red. masses --      1.0607                 1.0628                 1.0363
 Frc consts  --      5.6659                 5.7061                 5.5880
 IR Inten    --     10.9416                10.2043                36.9852

                    115                    116                    117
                      A                      A                      A
 Frequencies --   3025.1853              3030.0777              3030.8082
 Red. masses --      1.0616                 1.0615                 1.0367
 Frc consts  --      5.7242                 5.7424                 5.6108
 IR Inten    --     52.6025                31.7876                26.1969

                    118                    119                    120
                      A                      A                      A
 Frequencies --   3033.1090              3033.2134              3046.1875
 Red. masses --      1.0979                 1.0369                 1.1001
 Frc consts  --      5.9511                 5.6207                 6.0145
 IR Inten    --     25.7199                33.4121                 8.4470

                    121                    122                    123
                      A                      A                      A
 Frequencies --   3055.7273              3059.1983              3067.2391
 Red. masses --      1.0963                 1.0950                 1.1024
 Frc consts  --      6.0311                 6.0376                 6.1107
 IR Inten    --     27.2932                42.2348                41.3328

                    124                    125                    126
                      A                      A                      A
 Frequencies --   3075.3042              3081.1982              3095.9714
 Red. masses --      1.1013                 1.0969                 1.1013
 Frc consts  --      6.1365                 6.1354                 6.2196
 IR Inten    --     38.9676                11.7357                23.6774

                    127                    128                    129
                      A                      A                      A
 Frequencies --   3096.9815              3097.6079              3101.2674
 Red. masses --      1.1011                 1.1011                 1.1006
 Frc consts  --      6.2221                 6.2251                 6.2369
 IR Inten    --     62.5273                38.9953                36.6807

                    130                    131                    132
                      A                      A                      A
 Frequencies --   3109.1525              3110.2381              3814.9904
 Red. masses --      1.1000                 1.0944                 1.0661
 Frc consts  --      6.2653                 6.2377                 9.1415
 IR Inten    --     50.8190                37.9054                15.2633

 - Thermochemistry -
 -------------------
 Temperature   298.150 Kelvin.  Pressure   1.00000 Atm.
 Atom     1 has atomic number  6 and mass  12.00000

 Molecular mass:   230.22458 amu.
 Principal axes and moments of inertia in atomic units:
                           1         2         3
     Eigenvalues --  1479.57965********************
           X            0.99998   0.00676   0.00045
           Y           -0.00676   0.99990  -0.01226
           Z           -0.00053   0.01226   0.99992
 This molecule is an asymmetric top.
 Rotational symmetry number  1.
 Warning -- assumption of classical behavior for rotation
           may cause significant error
 Rotational temperatures (Kelvin)      0.05854     0.00570     0.00534
 Rotational constants (GHZ):           1.21977     0.11874     0.11130
 Zero-point vibrational energy    1114181.7 (Joules/Mol)
                                  266.29582 (Kcal/Mol)
 Warning -- explicit consideration of  31 degrees of freedom as
           vibrations may cause significant error
 Vibrational temperatures:     12.55    28.12    49.84    75.10    92.70
          (Kelvin)            104.79   115.01   125.86   159.80   163.55
                              191.69   205.83   232.60   252.63   266.29
                              304.01   335.93   348.26   367.72   384.26
                              421.64   431.14   463.68   505.86   536.74
                              573.72   610.79   667.67   721.81   774.69
                              851.59  1077.44  1090.70  1112.94  1125.39
                             1144.27  1224.92  1233.91  1249.86  1318.28
                             1323.92  1370.24  1414.53  1455.79  1468.13
                             1474.64  1482.84  1498.53  1506.12  1510.05
                             1526.82  1532.46  1553.61  1557.68  1604.16
                             1639.27  1645.08  1666.75  1673.58  1684.28
                             1700.26  1746.18  1779.47  1794.80  1831.76
                             1840.79  1853.07  1862.48  1874.39  1882.97
                             1896.14  1905.36  1918.06  1931.37  1944.33
                             1958.95  1984.76  1996.29  1999.83  2002.42
                             2014.21  2026.95  2030.96  2034.11  2035.77
                             2050.25  2091.71  2128.50  2130.69  2141.14
                             2148.04  2150.55  2153.87  2157.61  2159.01
                             2161.21  2165.09  2168.14  2174.60  2180.22
                             2183.19  2213.50  4224.29  4241.23  4261.01
                             4269.84  4287.79  4289.76  4302.42  4311.56
                             4330.71  4332.15  4343.30  4352.53  4352.57
                             4359.61  4360.66  4363.97  4364.12  4382.78
                             4396.51  4401.50  4413.07  4424.68  4433.16
                             4454.41  4455.87  4456.77  4462.03  4473.38
                             4474.94  5488.92

 Zero-point correction=                           0.424369 (Hartree/Particle)
 Thermal correction to Energy=                    0.445888
 Thermal correction to Enthalpy=                  0.446832
 Thermal correction to Gibbs Free Energy=         0.370440
 Sum of electronic and zero-point Energies=           -701.632175
 Sum of electronic and thermal Energies=              -701.610656
 Sum of electronic and thermal Enthalpies=            -701.609712
 Sum of electronic and thermal Free Energies=         -701.686104

                     E (Thermal)             CV                S
                      KCal/Mol        Cal/Mol-Kelvin    Cal/Mol-Kelvin
 Total                  279.799             76.483            160.781
 Electronic               0.000              0.000              0.000
 Translational            0.889              2.981             42.204
 Rotational               0.889              2.981             34.255
 Vibrational            278.022             70.521             84.323
 Vibration     1          0.593              1.987              8.283
 Vibration     2          0.593              1.986              6.680
 Vibration     3          0.594              1.983              5.544
 Vibration     4          0.596              1.977              4.732
 Vibration     5          0.597              1.971              4.317
 Vibration     6          0.599              1.967              4.075
 Vibration     7          0.600              1.963              3.892
 Vibration     8          0.601              1.958              3.716
 Vibration     9          0.607              1.940              3.250
 Vibration    10          0.607              1.938              3.205
 Vibration    11          0.613              1.920              2.899
 Vibration    12          0.616              1.910              2.763
 Vibration    13          0.622              1.889              2.530
 Vibration    14          0.628              1.872              2.375
 Vibration    15          0.631              1.860              2.277
 Vibration    16          0.643              1.824              2.032
 Vibration    17          0.654              1.790              1.852
 Vibration    18          0.658              1.776              1.788
 Vibration    19          0.666              1.753              1.692
 Vibration    20          0.672              1.734              1.615
 Vibration    21          0.688              1.687              1.456
 Vibration    22          0.692              1.674              1.419
 Vibration    23          0.707              1.631              1.299
 Vibration    24          0.728              1.572              1.159
 Vibration    25          0.744              1.527              1.067
 Vibration    26          0.765              1.473              0.967
 Vibration    27          0.787              1.417              0.877
 Vibration    28          0.822              1.330              0.754
 Vibration    29          0.857              1.246              0.654
 Vibration    30          0.893              1.165              0.569
 Vibration    31          0.949              1.049              0.464

 Optimization completed.
    -- Stationary point found.
 Normal termination of Gaussian 16 at Wed May 24 07:06:18 2023.
