 Gaussian 16, Revision A.03,
 Gaussian 16:  ES64L-G16RevA.03 25-Dec-2016

 -----------------------------
 # opt freq b3lyp/6-31g(2df,p)
 -----------------------------

 -------------------
 Title Card Required
 -------------------
 Symbolic Z-matrix:
 Charge =  0 Multiplicity = 1

 SCF Done:  E(RB3LYP) =  -391.891780043     A.U. after   12 cycles
 SCF Done:  E(RB3LYP) =  -391.899819975     A.U. after   10 cycles
 SCF Done:  E(RB3LYP) =  -391.900866926     A.U. after   10 cycles
 SCF Done:  E(RB3LYP) =  -391.900999400     A.U. after    9 cycles
 SCF Done:  E(RB3LYP) =  -391.901066844     A.U. after    9 cycles
 SCF Done:  E(RB3LYP) =  -391.901086924     A.U. after    8 cycles
 SCF Done:  E(RB3LYP) =  -391.901089880     A.U. after    7 cycles
 SCF Done:  E(RB3LYP) =  -391.901090019     A.U. after    5 cycles
 Optimization completed.
    -- Stationary point found.
 Normal termination of Gaussian 16 at Sun May 28 11:48:52 2023.

 ----------------------------------------------------------------------
 #N Geom=AllCheck Guess=TCheck SCRF=Check GenChk RB3LYP/6-31G(2df,p) Fr
 eq
 ----------------------------------------------------------------------

 Structure from the checkpoint file:  "CCCCC1CC2CC1C2.chk"
 -------------------
 Title Card Required
 -------------------
 Charge =  0 Multiplicity = 1

                         Standard orientation:
 ---------------------------------------------------------------------
 Center     Atomic      Atomic             Coordinates (Angstroms)
 Number     Number       Type             X           Y           Z
 ---------------------------------------------------------------------
      1          6           0       -4.030743    0.828599    0.132185
      2          6           0       -3.092455   -0.359537   -0.095631
      3          6           0       -1.608066    0.018541   -0.015224
      4          6           0       -0.684784   -1.182593   -0.256646
      5          6           0        0.836639   -0.981839   -0.156452
      6          6           0        1.424696   -0.559961    1.236108
      7          6           0        2.350659    0.589960    0.787171
      8          6           0        2.975681    0.025208   -0.521987
      9          6           0        1.502042    0.117744   -1.022626
     10          6           0        1.414587    1.405781   -0.146355
     11          1           0       -5.081347    0.527869    0.068817
     12          1           0       -3.864026    1.613757   -0.613857
     13          1           0       -3.871765    1.275175    1.120221
     14          1           0       -3.298885   -0.807012   -1.077121
     15          1           0       -3.306318   -1.143246    0.643419
     16          1           0       -1.409320    0.462004    0.969346
     17          1           0       -1.401427    0.804543   -0.752431
     18          1           0       -0.906147   -1.586968   -1.254604
     19          1           0       -0.960862   -1.980201    0.448219
     20          1           0        1.276522   -1.944779   -0.444440
     21          1           0        1.967923   -1.375303    1.723338
     22          1           0        0.653643   -0.212693    1.931661
     23          1           0        2.957328    1.071556    1.555326
     24          1           0        3.446266   -0.962921   -0.490600
     25          1           0        3.637297    0.742336   -1.013917
     26          1           0        1.258152    0.126827   -2.086505
     27          1           0        0.447258    1.726297    0.243052
     28          1           0        1.926164    2.251336   -0.613176
 ---------------------------------------------------------------------

 SCF Done:  E(RB3LYP) =  -391.901090019     A.U. after    1 cycles

 The electronic state is 1-A.
 Alpha  occ. eigenvalues --  -10.18242 -10.18173 -10.17792 -10.17459 -10.17406
 Alpha  occ. eigenvalues --  -10.17250 -10.17215 -10.17178 -10.17083 -10.16890
 Alpha  occ. eigenvalues --   -0.87947  -0.79243  -0.74445  -0.69814  -0.67520
 Alpha  occ. eigenvalues --   -0.64891  -0.61521  -0.57603  -0.53623  -0.52083
 Alpha  occ. eigenvalues --   -0.49316  -0.46503  -0.45460  -0.44377  -0.41456
 Alpha  occ. eigenvalues --   -0.40727  -0.38527  -0.37923  -0.36073  -0.35384
 Alpha  occ. eigenvalues --   -0.34161  -0.33140  -0.32547  -0.32059  -0.31392
 Alpha  occ. eigenvalues --   -0.30061  -0.29714  -0.28861  -0.28500
 Alpha virt. eigenvalues --    0.08744   0.10015   0.10689   0.12342   0.12661
 Alpha virt. eigenvalues --    0.13106   0.14100   0.15242   0.15583   0.16737
 Alpha virt. eigenvalues --    0.16964   0.17561   0.18235   0.18810   0.19422

 Mulliken charges:
               1
     1  C   -0.382898
     2  C   -0.160514
     3  C   -0.159721
     4  C   -0.232836
     5  C    0.046251
     6  C   -0.235075
     7  C   -0.006086
     8  C   -0.222209
     9  C   -0.026001
    10  C   -0.218460
    11  H    0.109759
    12  H    0.112503
    13  H    0.112188
    14  H    0.092974
    15  H    0.092863
    16  H    0.094549
    17  H    0.098140
    18  H    0.089315
    19  H    0.089880
    20  H    0.065461
    21  H    0.089412
    22  H    0.093577
    23  H    0.053131
    24  H    0.082288
    25  H    0.090554
    26  H    0.051183
    27  H    0.090047
    28  H    0.089729
 Sum of Mulliken charges =  -0.00000

 Dipole moment (field-independent basis, Debye):
    X=             -0.0218    Y=             -0.0630    Z=             -0.0511  Tot=              0.0840
 Quadrupole moment (field-independent basis, Debye-Ang):
   XX=            -65.2562   YY=            -64.7467   ZZ=            -64.3447
   XY=              0.3272   XZ=             -0.1170   YZ=             -0.2331

  Exact polarizability: 121.108   0.535  97.294  -0.387  -0.553  92.536
 Approx polarizability: 147.387   0.253 145.346  -0.286  -0.363 144.117

                      1                      2                      3
                      A                      A                      A
 Frequencies --     60.5222                90.2130               101.7196
 Red. masses --      2.6882                 1.7143                 2.9990
 Frc consts  --      0.0058                 0.0082                 0.0183
 IR Inten    --      0.0012                 0.0076                 0.0076

                      4                      5                      6
                      A                      A                      A
 Frequencies --    146.6067               206.1547               244.6322
 Red. masses --      2.0871                 2.8557                 1.1437
 Frc consts  --      0.0264                 0.0715                 0.0403
 IR Inten    --      0.0064                 0.1249                 0.0110

                      7                      8                      9
                      A                      A                      A
 Frequencies --    274.9127               294.2638               385.7684
 Red. masses --      3.2133                 2.1543                 2.5859
 Frc consts  --      0.1431                 0.1099                 0.2267
 IR Inten    --      0.0493                 0.0891                 0.0168

                     10                     11                     12
                      A                      A                      A
 Frequencies --    417.6725               511.3037               589.7455
 Red. masses --      1.8850                 1.8276                 3.6011
 Frc consts  --      0.1937                 0.2815                 0.7379
 IR Inten    --      0.6280                 0.0219                 0.1007

                     13                     14                     15
                      A                      A                      A
 Frequencies --    652.2816               739.1954               774.6242
 Red. masses --      2.7314                 1.1020                 1.4663
 Frc consts  --      0.6847                 0.3548                 0.5184
 IR Inten    --      0.1263                 2.3707                 0.6428

                     16                     17                     18
                      A                      A                      A
 Frequencies --    789.7659               828.8203               833.5244
 Red. masses --      2.1878                 2.6323                 2.9174
 Frc consts  --      0.8040                 1.0654                 1.1942
 IR Inten    --      0.0501                 0.5531                 1.7701

                     19                     20                     21
                      A                      A                      A
 Frequencies --    852.5640               862.4444               902.8370
 Red. masses --      2.1996                 2.1425                 1.7562
 Frc consts  --      0.9420                 0.9389                 0.8434
 IR Inten    --      0.4675                 1.2201                 1.2493

                     22                     23                     24
                      A                      A                      A
 Frequencies --    922.5084               943.0881               949.7600
 Red. masses --      1.5672                 1.7238                 1.5297
 Frc consts  --      0.7858                 0.9033                 0.8130
 IR Inten    --      1.0468                 1.2411                 0.3011

                     25                     26                     27
                      A                      A                      A
 Frequencies --    977.9035               994.4920              1008.2742
 Red. masses --      1.7393                 2.2319                 1.5879
 Frc consts  --      0.9800                 1.3005                 0.9511
 IR Inten    --      0.2400                 0.0752                 0.6412

                     28                     29                     30
                      A                      A                      A
 Frequencies --   1032.5569              1057.1681              1061.4399
 Red. masses --      2.3207                 2.3821                 1.3088
 Frc consts  --      1.4578                 1.5685                 0.8688
 IR Inten    --      0.3281                 0.0666                 1.2940

                     31                     32                     33
                      A                      A                      A
 Frequencies --   1083.9333              1085.2794              1094.8234
 Red. masses --      1.5331                 1.1933                 1.4309
 Frc consts  --      1.0613                 0.8281                 1.0105
 IR Inten    --      0.1489                 0.6696                 0.9380

                     34                     35                     36
                      A                      A                      A
 Frequencies --   1132.0446              1143.9810              1155.6698
 Red. masses --      1.6516                 1.8074                 1.6767
 Frc consts  --      1.2470                 1.3936                 1.3194
 IR Inten    --      1.0920                 2.4942                 1.5690

                     37                     38                     39
                      A                      A                      A
 Frequencies --   1188.2066              1222.5676              1242.1214
 Red. masses --      1.4860                 1.4019                 1.5995
 Frc consts  --      1.2361                 1.2346                 1.4540
 IR Inten    --      0.4515                 0.0175                 0.6156

                     40                     41                     42
                      A                      A                      A
 Frequencies --   1251.2657              1254.3577              1265.4139
 Red. masses --      1.3874                 1.6029                 1.5084
 Frc consts  --      1.2798                 1.4859                 1.4231
 IR Inten    --      1.8518                 3.4445                 0.7737

                     43                     44                     45
                      A                      A                      A
 Frequencies --   1287.2719              1296.4829              1308.0011
 Red. masses --      1.4202                 1.5459                 1.3545
 Frc consts  --      1.3865                 1.5310                 1.3654
 IR Inten    --      0.8442                 0.3320                 2.3582

                     46                     47                     48
                      A                      A                      A
 Frequencies --   1329.1106              1333.2538              1357.2833
 Red. masses --      1.2535                 1.2000                 1.3305
 Frc consts  --      1.3046                 1.2568                 1.4441
 IR Inten    --      0.2460                 1.0860                 0.3457

                     49                     50                     51
                      A                      A                      A
 Frequencies --   1360.0105              1388.6831              1411.6006
 Red. masses --      1.5262                 1.5172                 1.2550
 Frc consts  --      1.6633                 1.7238                 1.4734
 IR Inten    --      4.4889                 1.0570                 2.5310

                     52                     53                     54
                      A                      A                      A
 Frequencies --   1419.5697              1479.0734              1484.7965
 Red. masses --      1.3783                 1.0819                 1.0707
 Frc consts  --      1.6365                 1.3945                 1.3907
 IR Inten    --     11.9348                 0.7082                 0.9101

                     55                     56                     57
                      A                      A                      A
 Frequencies --   1490.3725              1496.0220              1499.7371
 Red. masses --      1.0875                 1.0887                 1.0411
 Frc consts  --      1.4232                 1.4356                 1.3797
 IR Inten    --      1.3763                 0.9930                 5.1761

                     58                     59                     60
                      A                      A                      A
 Frequencies --   1500.7316              1513.3422              1528.5627
 Red. masses --      1.0738                 1.0899                 1.1219
 Frc consts  --      1.4249                 1.4707                 1.5444
 IR Inten    --      0.0414                 2.9205                 2.7754

                     61                     62                     63
                      A                      A                      A
 Frequencies --   2993.1019              3008.7596              3015.6867
 Red. masses --      1.0619                 1.0583                 1.0755
 Frc consts  --      5.6050                 5.6444                 5.7628
 IR Inten    --      9.6772                 2.0171                12.6692

                     64                     65                     66
                      A                      A                      A
 Frequencies --   3018.6644              3023.6036              3027.7468
 Red. masses --      1.0690                 1.0947                 1.0369
 Frc consts  --      5.7394                 5.8963                 5.6004
 IR Inten    --     81.8069                21.8352                37.8884

                     67                     68                     69
                      A                      A                      A
 Frequencies --   3035.4583              3042.7083              3044.6649
 Red. masses --      1.1001                 1.0586                 1.0596
 Frc consts  --      5.9724                 5.7745                 5.7874
 IR Inten    --      0.9867                52.8277                33.6332

                     70                     71                     72
                      A                      A                      A
 Frequencies --   3063.9110              3067.0522              3085.4682
 Red. masses --      1.1034                 1.0596                 1.1055
 Frc consts  --      6.1030                 5.8728                 6.2009
 IR Inten    --     44.1554                28.0157                36.0630

                     73                     74                     75
                      A                      A                      A
 Frequencies --   3093.7179              3095.4688              3098.9455
 Red. masses --      1.1013                 1.0893                 1.1009
 Frc consts  --      6.2105                 6.1498                 6.2292
 IR Inten    --     32.6341               106.9075                42.8128

                     76                     77                     78
                      A                      A                      A
 Frequencies --   3102.1349              3109.7079              3129.1967
 Red. masses --      1.0948                 1.1014                 1.1061
 Frc consts  --      6.2075                 6.2755                 6.3812
 IR Inten    --     28.6081                48.4361                38.9124

 - Thermochemistry -
 -------------------
 Temperature   298.150 Kelvin.  Pressure   1.00000 Atm.
 Atom     1 has atomic number  6 and mass  12.00000

 Molecular mass:   138.14085 amu.
 Principal axes and moments of inertia in atomic units:
                           1         2         3
     Eigenvalues --   591.564282847.280822972.55190
           X            0.99998  -0.00533  -0.00131
           Y            0.00532   0.99997  -0.00554
           Z            0.00134   0.00553   0.99998
 This molecule is an asymmetric top.
 Rotational symmetry number  1.
 Warning -- assumption of classical behavior for rotation
           may cause significant error
 Rotational temperatures (Kelvin)      0.14642     0.03042     0.02914
 Rotational constants (GHZ):           3.05079     0.63385     0.60714
 Zero-point vibrational energy     682866.3 (Joules/Mol)
                                  163.20896 (Kcal/Mol)
 Warning -- explicit consideration of  12 degrees of freedom as
           vibrations may cause significant error
 Vibrational temperatures:     87.08   129.80   146.35   210.93   296.61
          (Kelvin)            351.97   395.54   423.38   555.03   600.94
                              735.65   848.51   938.49  1063.54  1114.51
                             1136.30  1192.49  1199.26  1226.65  1240.87
                             1298.98  1327.28  1356.89  1366.49  1406.99
                             1430.85  1450.68  1485.62  1521.03  1527.18
                             1559.54  1561.48  1575.21  1628.76  1645.93
                             1662.75  1709.56  1759.00  1787.14  1800.29
                             1804.74  1820.65  1852.10  1865.35  1881.92
                             1912.29  1918.25  1952.83  1956.75  1998.01
                             2030.98  2042.44  2128.06  2136.29  2144.31
                             2152.44  2157.79  2159.22  2177.36  2199.26
                             4306.41  4328.93  4338.90  4343.18  4350.29
                             4356.25  4367.35  4377.78  4380.59  4408.28
                             4412.80  4439.30  4451.17  4453.69  4458.69
                             4463.28  4474.18  4502.22

 Zero-point correction=                           0.260090 (Hartree/Particle)
 Thermal correction to Energy=                    0.270216
 Thermal correction to Enthalpy=                  0.271161
 Thermal correction to Gibbs Free Energy=         0.224380
 Sum of electronic and zero-point Energies=           -391.641000
 Sum of electronic and thermal Energies=              -391.630874
 Sum of electronic and thermal Enthalpies=            -391.629929
 Sum of electronic and thermal Free Energies=         -391.676710

                     E (Thermal)             CV                S
                      KCal/Mol        Cal/Mol-Kelvin    Cal/Mol-Kelvin
 Total                  169.563             39.875             98.459
 Electronic               0.000              0.000              0.000
 Translational            0.889              2.981             40.681
 Rotational               0.889              2.981             29.994
 Vibrational            167.786             33.913             27.784
 Vibration     1          0.597              1.973              4.440
 Vibration     2          0.602              1.956              3.655
 Vibration     3          0.604              1.948              3.421
 Vibration     4          0.617              1.906              2.716
 Vibration     5          0.641              1.831              2.077
 Vibration     6          0.660              1.772              1.769
 Vibration     7          0.677              1.720              1.565
 Vibration     8          0.689              1.684              1.449
 Vibration     9          0.754              1.501              1.016
 Vibration    10          0.781              1.432              0.900
 Vibration    11          0.866              1.225              0.630
 Vibration    12          0.947              1.054              0.468

 Optimization completed.
    -- Stationary point found.
 Normal termination of Gaussian 16 at Sun May 28 12:44:10 2023.
