 Gaussian 16, Revision A.03,
 Gaussian 16:  ES64L-G16RevA.03 25-Dec-2016

 -----------------------------
 # opt freq b3lyp/6-31g(2df,p)
 -----------------------------

 -------------------
 Title Card Required
 -------------------
 Symbolic Z-matrix:
 Charge =  0 Multiplicity = 1

 SCF Done:  E(RB3LYP) =  -354.976153220     A.U. after   12 cycles
 SCF Done:  E(RB3LYP) =  -355.013986635     A.U. after   10 cycles
 SCF Done:  E(RB3LYP) =  -355.032970659     A.U. after   11 cycles
 SCF Done:  E(RB3LYP) =  -355.047981611     A.U. after   10 cycles
 SCF Done:  E(RB3LYP) =  -355.052707659     A.U. after   10 cycles
 SCF Done:  E(RB3LYP) =  -355.054285025     A.U. after   10 cycles
 SCF Done:  E(RB3LYP) =  -355.054606336     A.U. after    9 cycles
 SCF Done:  E(RB3LYP) =  -355.054633267     A.U. after    8 cycles
 SCF Done:  E(RB3LYP) =  -355.054636267     A.U. after    7 cycles
 SCF Done:  E(RB3LYP) =  -355.054636935     A.U. after    6 cycles
 SCF Done:  E(RB3LYP) =  -355.054637122     A.U. after    6 cycles
 SCF Done:  E(RB3LYP) =  -355.054637172     A.U. after    6 cycles
 Optimization completed.
    -- Stationary point found.
 Normal termination of Gaussian 16 at Sun May 28 06:29:38 2023.

 ----------------------------------------------------------------------
 #N Geom=AllCheck Guess=TCheck SCRF=Check GenChk RB3LYP/6-31G(2df,p) Fr
 eq
 ----------------------------------------------------------------------

 Structure from the checkpoint file:  "CCCCCCqCrCC.chk"
 -------------------
 Title Card Required
 -------------------
 Charge =  0 Multiplicity = 1

                         Standard orientation:
 ---------------------------------------------------------------------
 Center     Atomic      Atomic             Coordinates (Angstroms)
 Number     Number       Type             X           Y           Z
 ---------------------------------------------------------------------
      1          6           0        4.561622   -0.163362   -0.274677
      2          6           0        3.222742   -0.691915    0.247045
      3          6           0        2.022782    0.147763   -0.206910
      4          6           0        0.684029   -0.384202    0.318608
      5          6           0       -0.569729    0.352918   -0.192044
      6          6           0       -0.605149    1.815265    0.277388
      7          6           0       -1.838756   -0.415379    0.225774
      8          6           0       -3.148447    0.082421   -0.398073
      9          6           0       -4.351235   -0.788385   -0.021894
     10          1           0        5.397445   -0.783315    0.064876
     11          1           0        4.745098    0.860335    0.070670
     12          1           0        4.581729   -0.148983   -1.370258
     13          1           0        3.244931   -0.726308    1.344519
     14          1           0        3.084079   -1.729824   -0.083925
     15          1           0        1.996588    0.175387   -1.305762
     16          1           0        2.174158    1.184715    0.118448
     17          1           0        0.690025   -0.360508    1.418385
     18          1           0        0.599829   -1.444296    0.042525
     19          1           0       -0.529210    0.351113   -1.292443
     20          1           0        0.280547    2.367183   -0.049508
     21          1           0       -1.477795    2.345593   -0.114008
     22          1           0       -0.646074    1.869600    1.372535
     23          1           0       -1.708955   -1.473292   -0.041289
     24          1           0       -1.927580   -0.392225    1.322107
     25          1           0       -3.041533    0.105611   -1.491097
     26          1           0       -3.345031    1.116002   -0.090015
     27          1           0       -4.209987   -1.823677   -0.352172
     28          1           0       -5.273904   -0.416156   -0.478337
     29          1           0       -4.501507   -0.807690    1.063449
 ---------------------------------------------------------------------

 SCF Done:  E(RB3LYP) =  -355.054637172     A.U. after    1 cycles

 The electronic state is 1-A.
 Alpha  occ. eigenvalues --  -10.17904 -10.17433 -10.17390 -10.17147 -10.17015
 Alpha  occ. eigenvalues --  -10.17014 -10.16870 -10.16861 -10.16603  -0.81314
 Alpha  occ. eigenvalues --   -0.78199  -0.75191  -0.70250  -0.67179  -0.63296
 Alpha  occ. eigenvalues --   -0.58656  -0.56709  -0.55039  -0.47098  -0.45799
 Alpha  occ. eigenvalues --   -0.43689  -0.43368  -0.41672  -0.40912  -0.39505
 Alpha  occ. eigenvalues --   -0.38188  -0.37518  -0.36153  -0.35035  -0.34478
 Alpha  occ. eigenvalues --   -0.34102  -0.32708  -0.32448  -0.31602  -0.31205
 Alpha  occ. eigenvalues --   -0.30613  -0.29085
 Alpha virt. eigenvalues --    0.08620   0.09977   0.11186   0.11368   0.11971
 Alpha virt. eigenvalues --    0.13685   0.14404   0.14733   0.15799   0.16626
 Alpha virt. eigenvalues --    0.17252   0.17706   0.18210   0.18997   0.19501

 Mulliken charges:
               1
     1  C   -0.380011
     2  C   -0.160704
     3  C   -0.172385
     4  C   -0.178933
     5  C    0.024860
     6  C   -0.389608
     7  C   -0.158449
     8  C   -0.176595
     9  C   -0.377859
    10  H    0.109386
    11  H    0.112223
    12  H    0.112192
    13  H    0.093066
    14  H    0.092560
    15  H    0.088555
    16  H    0.094543
    17  H    0.087242
    18  H    0.085862
    19  H    0.064708
    20  H    0.113291
    21  H    0.112912
    22  H    0.108022
    23  H    0.085382
    24  H    0.086706
    25  H    0.091774
    26  H    0.097681
    27  H    0.112063
    28  H    0.108908
    29  H    0.112609
 Sum of Mulliken charges =  -0.00000

 Dipole moment (field-independent basis, Debye):
    X=             -0.0004    Y=             -0.0050    Z=             -0.0423  Tot=              0.0426
 Quadrupole moment (field-independent basis, Debye-Ang):
   XX=            -62.5610   YY=            -61.5325   ZZ=            -60.7473
   XY=             -0.4055   XZ=              0.2864   YZ=              0.4366

  Exact polarizability: 124.929   0.648  92.298   0.015  -0.337  86.603
 Approx polarizability: 137.008  -0.275 134.525   0.249   0.592 135.082

                      1                      2                      3
                      A                      A                      A
 Frequencies --     44.6799                57.7965                74.9562
 Red. masses --      2.0185                 1.7992                 2.0460
 Frc consts  --      0.0024                 0.0035                 0.0068
 IR Inten    --      0.0037                 0.0028                 0.0055

                      4                      5                      6
                      A                      A                      A
 Frequencies --     93.9692               110.1552               137.2633
 Red. masses --      2.7097                 2.3306                 1.7876
 Frc consts  --      0.0141                 0.0167                 0.0198
 IR Inten    --      0.0030                 0.0218                 0.0163

                      7                      8                      9
                      A                      A                      A
 Frequencies --    191.8585               230.3274               245.8248
 Red. masses --      2.7496                 1.1272                 1.1104
 Frc consts  --      0.0596                 0.0352                 0.0395
 IR Inten    --      0.0009                 0.0046                 0.0040

                     10                     11                     12
                      A                      A                      A
 Frequencies --    252.3827               278.9627               312.2220
 Red. masses --      1.1440                 3.8019                 2.4188
 Frc consts  --      0.0429                 0.1743                 0.1389
 IR Inten    --      0.0022                 0.0380                 0.0325

                     13                     14                     15
                      A                      A                      A
 Frequencies --    335.8701               409.2915               482.5571
 Red. masses --      2.5873                 2.0908                 2.4922
 Frc consts  --      0.1720                 0.2064                 0.3419
 IR Inten    --      0.1168                 0.0464                 0.2506

                     16                     17                     18
                      A                      A                      A
 Frequencies --    512.9185               733.7242               743.6757
 Red. masses --      2.5624                 1.0828                 1.1146
 Frc consts  --      0.3972                 0.3435                 0.3632
 IR Inten    --      0.0507                 1.3766                 3.8986

                     19                     20                     21
                      A                      A                      A
 Frequencies --    785.8669               836.3761               869.0353
 Red. masses --      1.2440                 1.9664                 1.3638
 Frc consts  --      0.4527                 0.8105                 0.6069
 IR Inten    --      0.1793                 0.4775                 0.8525

                     22                     23                     24
                      A                      A                      A
 Frequencies --    897.5955               905.2599               915.3751
 Red. masses --      1.9884                 1.8184                 1.2210
 Frc consts  --      0.9439                 0.8780                 0.6028
 IR Inten    --      0.5639                 1.4541                 1.4225

                     25                     26                     27
                      A                      A                      A
 Frequencies --    956.3825              1000.2853              1023.2772
 Red. masses --      1.8461                 1.2293                 2.6717
 Frc consts  --      0.9949                 0.7247                 1.6482
 IR Inten    --      3.7776                 0.0726                 0.2271

                     28                     29                     30
                      A                      A                      A
 Frequencies --   1041.3819              1056.5399              1065.2333
 Red. masses --      2.5300                 1.3524                 2.3135
 Frc consts  --      1.6166                 0.8895                 1.5467
 IR Inten    --      0.3002                 0.2762                 0.0703

                     31                     32                     33
                      A                      A                      A
 Frequencies --   1082.7442              1100.1296              1162.5807
 Red. masses --      2.4586                 1.8269                 2.6915
 Frc consts  --      1.6982                 1.3027                 2.1433
 IR Inten    --      0.1696                 1.9008                 0.0375

                     34                     35                     36
                      A                      A                      A
 Frequencies --   1178.5121              1202.5735              1241.8726
 Red. masses --      1.8393                 2.0061                 1.4580
 Frc consts  --      1.5051                 1.7093                 1.3249
 IR Inten    --      8.0589                 0.0073                 3.6373

                     37                     38                     39
                      A                      A                      A
 Frequencies --   1264.6296              1279.5497              1305.3401
 Red. masses --      1.3173                 1.2785                 1.2786
 Frc consts  --      1.2412                 1.2333                 1.2836
 IR Inten    --      1.5418                 0.7887                 0.1370

                     40                     41                     42
                      A                      A                      A
 Frequencies --   1317.7762              1329.0423              1333.5394
 Red. masses --      1.1953                 1.1031                 1.0891
 Frc consts  --      1.2230                 1.1480                 1.1411
 IR Inten    --      0.1274                 0.3539                 0.6712

                     43                     44                     45
                      A                      A                      A
 Frequencies --   1348.1119              1379.0200              1381.2209
 Red. masses --      1.3230                 1.4102                 1.3465
 Frc consts  --      1.4166                 1.5801                 1.5135
 IR Inten    --      1.6583                 2.1437                 2.3349

                     46                     47                     48
                      A                      A                      A
 Frequencies --   1393.4321              1400.7520              1410.3550
 Red. masses --      1.5786                 1.4824                 1.2466
 Frc consts  --      1.8059                 1.7137                 1.4609
 IR Inten    --      0.2725                 2.0742                 1.5609

                     49                     50                     51
                      A                      A                      A
 Frequencies --   1412.8696              1415.9053              1474.3803
 Red. masses --      1.2431                 1.2845                 1.0777
 Frc consts  --      1.4620                 1.5172                 1.3802
 IR Inten    --      0.1586                 6.0238                 0.1191

                     52                     53                     54
                      A                      A                      A
 Frequencies --   1484.2711              1486.3150              1493.6061
 Red. masses --      1.0720                 1.0687                 1.0626
 Frc consts  --      1.3915                 1.3910                 1.3966
 IR Inten    --      0.0596                 0.6808                 0.4768

                     55                     56                     57
                      A                      A                      A
 Frequencies --   1498.2542              1499.1897              1499.7972
 Red. masses --      1.0598                 1.0593                 1.0407
 Frc consts  --      1.4016                 1.4027                 1.3792
 IR Inten    --      0.6197                 1.0876                 8.0684

                     58                     59                     60
                      A                      A                      A
 Frequencies --   1499.9300              1506.7842              1511.4414
 Red. masses --      1.0516                 1.0539                 1.0800
 Frc consts  --      1.3939                 1.4097                 1.4537
 IR Inten    --      1.8923                 1.8320                 1.0626

                     61                     62                     63
                      A                      A                      A
 Frequencies --   1513.8013              2980.4937              2992.7568
 Red. masses --      1.0817                 1.0801                 1.0589
 Frc consts  --      1.4604                 5.6531                 5.5879
 IR Inten    --      8.5687                 6.4142                 0.5339

                     64                     65                     66
                      A                      A                      A
 Frequencies --   2999.0544              3004.7361              3014.7764
 Red. masses --      1.0604                 1.0612                 1.0628
 Frc consts  --      5.6192                 5.6449                 5.6913
 IR Inten    --     15.3248                10.7068                27.8188

                     67                     68                     69
                      A                      A                      A
 Frequencies --   3016.6897              3024.2373              3027.1860
 Red. masses --      1.0654                 1.0926                 1.0372
 Frc consts  --      5.7122                 5.8878                 5.5999
 IR Inten    --     74.5342                 1.4401                55.1608

                     70                     71                     72
                      A                      A                      A
 Frequencies --   3027.4474              3028.1016              3030.9798
 Red. masses --      1.0384                 1.0444                 1.0890
 Frc consts  --      5.6072                 5.6423                 5.8944
 IR Inten    --     15.7126                22.8743                16.0636

                     73                     74                     75
                      A                      A                      A
 Frequencies --   3037.2537              3057.7591              3062.1173
 Red. masses --      1.1003                 1.1010                 1.1022
 Frc consts  --      5.9805                 6.0652                 6.0889
 IR Inten    --      4.9376                 3.1126                95.6398

                     76                     77                     78
                      A                      A                      A
 Frequencies --   3093.6072              3094.1645              3096.7556
 Red. masses --      1.1020                 1.1019                 1.0961
 Frc consts  --      6.2141                 6.2154                 6.1931
 IR Inten    --     39.3503                87.2839                15.0957

                     79                     80                     81
                      A                      A                      A
 Frequencies --   3098.8609              3099.2219              3110.9060
 Red. masses --      1.1009                 1.1003                 1.1003
 Frc consts  --      6.2289                 6.2269                 6.2739
 IR Inten    --     33.0825                58.6789                40.0343

 - Thermochemistry -
 -------------------
 Temperature   298.150 Kelvin.  Pressure   1.00000 Atm.
 Atom     1 has atomic number  6 and mass  12.00000

 Molecular mass:   128.15650 amu.
 Principal axes and moments of inertia in atomic units:
                           1         2         3
     Eigenvalues --   406.520733740.813783977.00074
           X            1.00000   0.00193  -0.00130
           Y           -0.00194   0.99999  -0.00430
           Z            0.00129   0.00430   0.99999
 This molecule is an asymmetric top.
 Rotational symmetry number  1.
 Rotational temperatures (Kelvin)      0.21306     0.02315     0.02178
 Rotational constants (GHZ):           4.43948     0.48245     0.45379
 Zero-point vibrational energy     717196.4 (Joules/Mol)
                                  171.41406 (Kcal/Mol)
 Warning -- explicit consideration of  16 degrees of freedom as
           vibrations may cause significant error
 Vibrational temperatures:     64.28    83.16   107.85   135.20   158.49
          (Kelvin)            197.49   276.04   331.39   353.69   363.12
                              401.37   449.22   483.24   588.88   694.29
                              737.98  1055.67  1069.98  1130.69  1203.36
                             1250.35  1291.44  1302.47  1317.02  1376.02
                             1439.19  1472.27  1498.32  1520.13  1532.63
                             1557.83  1582.84  1672.69  1695.62  1730.24
                             1786.78  1819.52  1840.99  1878.09  1895.99
                             1912.20  1918.67  1939.63  1984.10  1987.27
                             2004.84  2015.37  2029.19  2032.80  2037.17
                             2121.30  2135.54  2138.48  2148.97  2155.65
                             2157.00  2157.87  2158.06  2167.93  2174.63
                             2178.02  4288.27  4305.91  4314.97  4323.15
                             4337.59  4340.34  4351.20  4355.45  4355.82
                             4356.76  4360.90  4369.93  4399.43  4405.70
                             4451.01  4451.81  4455.54  4458.57  4459.09
                             4475.90

 Zero-point correction=                           0.273166 (Hartree/Particle)
 Thermal correction to Energy=                    0.285692
 Thermal correction to Enthalpy=                  0.286636
 Thermal correction to Gibbs Free Energy=         0.234086
 Sum of electronic and zero-point Energies=           -354.781471
 Sum of electronic and thermal Energies=              -354.768945
 Sum of electronic and thermal Enthalpies=            -354.768001
 Sum of electronic and thermal Free Energies=         -354.820552

                     E (Thermal)             CV                S
                      KCal/Mol        Cal/Mol-Kelvin    Cal/Mol-Kelvin
 Total                  179.275             44.705            110.602
 Electronic               0.000              0.000              0.000
 Translational            0.889              2.981             40.457
 Rotational               0.889              2.981             30.182
 Vibrational            177.497             38.743             39.963
 Vibration     1          0.595              1.980              5.040
 Vibration     2          0.596              1.974              4.531
 Vibration     3          0.599              1.966              4.019
 Vibration     4          0.603              1.953              3.576
 Vibration     5          0.606              1.941              3.266
 Vibration     6          0.614              1.916              2.842
 Vibration     7          0.634              1.851              2.210
 Vibration     8          0.652              1.795              1.876
 Vibration     9          0.660              1.770              1.760
 Vibration    10          0.664              1.759              1.714
 Vibration    11          0.679              1.712              1.540
 Vibration    12          0.701              1.650              1.351
 Vibration    13          0.717              1.604              1.232
 Vibration    14          0.774              1.450              0.929
 Vibration    15          0.839              1.289              0.703
 Vibration    16          0.868              1.221              0.627

 Optimization completed.
    -- Stationary point found.
 Normal termination of Gaussian 16 at Sun May 28 07:09:17 2023.
