 Gaussian 16, Revision A.03,
 Gaussian 16:  ES64L-G16RevA.03 25-Dec-2016

 -----------------------------
 # opt freq b3lyp/6-31g(2df,p)
 -----------------------------

 -------------------
 Title Card Required
 -------------------
 Symbolic Z-matrix:
 Charge =  0 Multiplicity = 1

 SCF Done:  E(RB3LYP) =  -543.584032726     A.U. after   13 cycles
 SCF Done:  E(RB3LYP) =  -543.598220410     A.U. after   12 cycles
 SCF Done:  E(RB3LYP) =  -543.606873369     A.U. after   13 cycles
 SCF Done:  E(RB3LYP) =  -543.609814946     A.U. after   13 cycles
 SCF Done:  E(RB3LYP) =  -543.610986571     A.U. after   12 cycles
 SCF Done:  E(RB3LYP) =  -543.611970575     A.U. after   12 cycles
 SCF Done:  E(RB3LYP) =  -543.612815238     A.U. after   12 cycles
 SCF Done:  E(RB3LYP) =  -543.613252540     A.U. after   11 cycles
 SCF Done:  E(RB3LYP) =  -543.612930496     A.U. after   11 cycles
 SCF Done:  E(RB3LYP) =  -543.613564389     A.U. after   11 cycles
 SCF Done:  E(RB3LYP) =  -543.613599189     A.U. after    9 cycles
 SCF Done:  E(RB3LYP) =  -543.613589777     A.U. after    9 cycles
 SCF Done:  E(RB3LYP) =  -543.613613806     A.U. after    9 cycles
 SCF Done:  E(RB3LYP) =  -543.613614485     A.U. after    9 cycles
 SCF Done:  E(RB3LYP) =  -543.613615455     A.U. after    9 cycles
 SCF Done:  E(RB3LYP) =  -543.613617139     A.U. after    8 cycles
 SCF Done:  E(RB3LYP) =  -543.613617295     A.U. after    7 cycles
 SCF Done:  E(RB3LYP) =  -543.613617321     A.U. after    6 cycles
 Optimization completed.
    -- Stationary point found.
 Normal termination of Gaussian 16 at Mon May 22 16:41:42 2023.

 ----------------------------------------------------------------------
 #N Geom=AllCheck Guess=TCheck SCRF=Check GenChk RB3LYP/6-31G(2df,p) Fr
 eq
 ----------------------------------------------------------------------

 Structure from the checkpoint file:  "CCCCqCCCrCqCrOCdO.chk"
 -------------------
 Title Card Required
 -------------------
 Charge =  0 Multiplicity = 1

                         Standard orientation:
 ---------------------------------------------------------------------
 Center     Atomic      Atomic             Coordinates (Angstroms)
 Number     Number       Type             X           Y           Z
 ---------------------------------------------------------------------
      1          6           0       -4.162014   -1.162313    0.180047
      2          6           0       -2.916055   -0.352747   -0.191786
      3          6           0       -1.616035   -1.051672    0.227466
      4          6           0       -0.324482   -0.307898   -0.167884
      5          6           0       -0.249990    1.115468    0.447205
      6          6           0       -0.539431    2.246855   -0.548447
      7          6           0       -0.483420    3.634902    0.094102
      8          6           0        0.929094   -1.125985    0.196804
      9          6           0        0.972810   -2.549475   -0.351662
     10          8           0        2.061188   -0.407239   -0.354953
     11          6           0        3.183742   -0.323790    0.376681
     12          8           0        4.183559    0.196050   -0.021999
     13          1           0       -5.077300   -0.649896   -0.131652
     14          1           0       -4.222291   -1.321814    1.262478
     15          1           0       -4.152718   -2.148090   -0.298266
     16          1           0       -2.979265    0.638276    0.271762
     17          1           0       -2.899881   -0.182806   -1.276316
     18          1           0       -1.616498   -2.052206   -0.219558
     19          1           0       -1.624852   -1.203429    1.317230
     20          1           0       -0.310364   -0.213212   -1.262738
     21          1           0        0.747237    1.287473    0.865876
     22          1           0       -0.945312    1.184949    1.294154
     23          1           0       -1.523013    2.094733   -1.009469
     24          1           0        0.192093    2.188580   -1.364137
     25          1           0       -1.226755    3.733476    0.893482
     26          1           0       -0.678968    4.422431   -0.640238
     27          1           0        0.501502    3.827433    0.533793
     28          1           0        1.037898   -1.149760    1.291411
     29          1           0        0.816205   -2.551571   -1.434840
     30          1           0        0.212175   -3.179715    0.114416
     31          1           0        1.949502   -2.999154   -0.150040
     32          1           0        3.077314   -0.776249    1.383114
 ---------------------------------------------------------------------

 SCF Done:  E(RB3LYP) =  -543.613617321     A.U. after    1 cycles

 The electronic state is 1-A.
 Alpha  occ. eigenvalues --  -19.18356 -19.12633 -10.30478 -10.25471 -10.19538
 Alpha  occ. eigenvalues --  -10.18973 -10.18764 -10.18611 -10.18028 -10.17895
 Alpha  occ. eigenvalues --  -10.17833 -10.17161  -1.09843  -1.02160  -0.83131
 Alpha  occ. eigenvalues --   -0.77978  -0.77686  -0.72663  -0.68064  -0.65921
 Alpha  occ. eigenvalues --   -0.61727  -0.60016  -0.58450  -0.57048  -0.52791
 Alpha  occ. eigenvalues --   -0.48500  -0.47102  -0.46241  -0.45058  -0.43615
 Alpha  occ. eigenvalues --   -0.42860  -0.42024  -0.40937  -0.40122  -0.39515
 Alpha  occ. eigenvalues --   -0.38898  -0.38528  -0.36971  -0.36050  -0.34955
 Alpha  occ. eigenvalues --   -0.34547  -0.33508  -0.33391  -0.32499  -0.31791
 Alpha  occ. eigenvalues --   -0.31438  -0.29298  -0.27298
 Alpha virt. eigenvalues --    0.00900   0.08001   0.08530   0.09328   0.10352
 Alpha virt. eigenvalues --    0.11382   0.11958   0.12812   0.13041   0.13868
 Alpha virt. eigenvalues --    0.14567   0.15197   0.16084   0.16970   0.17291

 Mulliken charges:
               1
     1  C   -0.383548
     2  C   -0.174578
     3  C   -0.192089
     4  C    0.012997
     5  C   -0.189853
     6  C   -0.168612
     7  C   -0.383351
     8  C    0.087940
     9  C   -0.403245
    10  O   -0.190033
    11  C    0.167027
    12  O   -0.280730
    13  H    0.114378
    14  H    0.114421
    15  H    0.114264
    16  H    0.104934
    17  H    0.098535
    18  H    0.096612
    19  H    0.090913
    20  H    0.083364
    21  H    0.098109
    22  H    0.089276
    23  H    0.097109
    24  H    0.109421
    25  H    0.110769
    26  H    0.112783
    27  H    0.118862
    28  H    0.085631
    29  H    0.133204
    30  H    0.128846
    31  H    0.123386
    32  H    0.073258
 Sum of Mulliken charges =  -0.00000

 Dipole moment (field-independent basis, Debye):
    X=             -3.4806    Y=             -1.7409    Z=              1.2674  Tot=              4.0929
 Quadrupole moment (field-independent basis, Debye-Ang):
   XX=            -93.0723   YY=            -73.7274   ZZ=            -75.0003
   XY=             -4.2482   XZ=              4.1444   YZ=             -0.4780

  Exact polarizability: 137.177   5.361 119.343   0.610  -1.242  95.744
 Approx polarizability: 175.889   9.540 154.170  -1.006  -3.137 154.593

                      1                      2                      3
                      A                      A                      A
 Frequencies --     23.1804                40.7718                47.4375
 Red. masses --      3.3406                 4.0365                 3.6259
 Frc consts  --      0.0011                 0.0040                 0.0048
 IR Inten    --      0.6079                 1.7122                 0.6230

                      4                      5                      6
                      A                      A                      A
 Frequencies --     75.2432               101.5164               113.5005
 Red. masses --      1.9471                 2.2212                 1.8234
 Frc consts  --      0.0065                 0.0135                 0.0138
 IR Inten    --      0.0283                 0.2692                 1.3342

                      7                      8                      9
                      A                      A                      A
 Frequencies --    118.9456               152.2766               189.2712
 Red. masses --      2.4966                 2.6404                 2.2040
 Frc consts  --      0.0208                 0.0361                 0.0465
 IR Inten    --      3.8426                11.2422                 0.0686

                     10                     11                     12
                      A                      A                      A
 Frequencies --    221.3510               240.5375               246.3925
 Red. masses --      1.5022                 1.1374                 1.3475
 Frc consts  --      0.0434                 0.0388                 0.0482
 IR Inten    --      0.3275                 0.0882                 0.6168

                     13                     14                     15
                      A                      A                      A
 Frequencies --    255.8913               284.2999               294.1002
 Red. masses --      2.0460                 2.8616                 3.2625
 Frc consts  --      0.0789                 0.1363                 0.1663
 IR Inten    --      1.3434                 0.7000                 0.4844

                     16                     17                     18
                      A                      A                      A
 Frequencies --    307.9332               347.8334               418.2560
 Red. masses --      3.2010                 2.4486                 2.9849
 Frc consts  --      0.1788                 0.1745                 0.3077
 IR Inten    --      1.1284                 0.1094                 1.6323

                     19                     20                     21
                      A                      A                      A
 Frequencies --    469.4087               506.1818               557.8096
 Red. masses --      3.1139                 2.9478                 2.5271
 Frc consts  --      0.4043                 0.4450                 0.4633
 IR Inten    --      0.9639                 2.3665                 0.7707

                     22                     23                     24
                      A                      A                      A
 Frequencies --    657.4468               735.3142               751.6460
 Red. masses --      4.4260                 1.1075                 1.1187
 Frc consts  --      1.1272                 0.3528                 0.3724
 IR Inten    --      8.7546                 6.4084                 2.6939

                     25                     26                     27
                      A                      A                      A
 Frequencies --    850.4482               858.3156               889.1270
 Red. masses --      1.3614                 1.5608                 1.9331
 Frc consts  --      0.5802                 0.6775                 0.9004
 IR Inten    --      0.0981                 0.7072                 0.5607

                     28                     29                     30
                      A                      A                      A
 Frequencies --    904.3584               909.5982               937.7324
 Red. masses --      1.7738                 1.5333                 2.6619
 Frc consts  --      0.8547                 0.7474                 1.3791
 IR Inten    --      0.8979                 1.5275                12.2760

                     31                     32                     33
                      A                      A                      A
 Frequencies --    983.7519              1031.2247              1046.4574
 Red. masses --      1.9103                 3.3414                 1.6890
 Frc consts  --      1.0893                 2.0935                 1.0897
 IR Inten    --      9.0042                 4.2866                 5.8525

                     34                     35                     36
                      A                      A                      A
 Frequencies --   1052.9011              1056.5835              1073.4854
 Red. masses --      1.5649                 2.5492                 2.2688
 Frc consts  --      1.0222                 1.6767                 1.5404
 IR Inten    --      5.8934                 1.8172                 0.0740

                     37                     38                     39
                      A                      A                      A
 Frequencies --   1080.6255              1088.0931              1123.3741
 Red. masses --      1.8342                 1.8118                 2.2318
 Frc consts  --      1.2620                 1.2638                 1.6594
 IR Inten    --     33.7370                 2.5085                95.6797

                     40                     41                     42
                      A                      A                      A
 Frequencies --   1152.0742              1170.2085              1185.1309
 Red. masses --      2.6534                 2.5644                 1.9213
 Frc consts  --      2.0750                 2.0690                 1.5899
 IR Inten    --     23.0900                44.0003                 0.6840

                     43                     44                     45
                      A                      A                      A
 Frequencies --   1205.9106              1252.7285              1275.6376
 Red. masses --      3.9837                 1.4253                 1.3552
 Frc consts  --      3.4132                 1.3179                 1.2993
 IR Inten    --    230.3106                10.9328                31.0416

                     46                     47                     48
                      A                      A                      A
 Frequencies --   1288.0304              1302.7873              1332.1710
 Red. masses --      1.2877                 1.2538                 1.1578
 Frc consts  --      1.2587                 1.2538                 1.2106
 IR Inten    --     10.5617                 4.0252                 1.4100

                     49                     50                     51
                      A                      A                      A
 Frequencies --   1336.9076              1342.2510              1359.3445
 Red. masses --      1.0899                 1.3143                 1.2567
 Frc consts  --      1.1477                 1.3951                 1.3682
 IR Inten    --      1.9519                 2.1932                 5.8259

                     52                     53                     54
                      A                      A                      A
 Frequencies --   1367.7671              1385.9581              1389.8829
 Red. masses --      1.2296                 1.3678                 1.5128
 Frc consts  --      1.3553                 1.5480                 1.7218
 IR Inten    --     15.8287                 9.2891                 0.1308

                     55                     56                     57
                      A                      A                      A
 Frequencies --   1405.0451              1412.6537              1413.4776
 Red. masses --      1.4575                 1.2378                 1.2558
 Frc consts  --      1.6953                 1.4554                 1.4783
 IR Inten    --      3.2712                 3.5680                 4.8870

                     58                     59                     60
                      A                      A                      A
 Frequencies --   1414.8973              1438.6506              1481.3131
 Red. masses --      1.2644                 1.1572                 1.0759
 Frc consts  --      1.4914                 1.4112                 1.3910
 IR Inten    --      0.8800                 2.2101                 1.0860

                     61                     62                     63
                      A                      A                      A
 Frequencies --   1487.9454              1491.4556              1493.9221
 Red. masses --      1.0620                 1.0608                 1.0540
 Frc consts  --      1.3853                 1.3902                 1.3859
 IR Inten    --      1.4581                 1.2406                 1.8205

                     64                     65                     66
                      A                      A                      A
 Frequencies --   1495.7503              1497.5038              1499.6613
 Red. masses --      1.0554                 1.0561                 1.0406
 Frc consts  --      1.3912                 1.3954                 1.3788
 IR Inten    --      0.9340                 4.1384                 4.9482

                     67                     68                     69
                      A                      A                      A
 Frequencies --   1500.0298              1509.3734              1512.8450
 Red. masses --      1.0407                 1.0800                 1.0880
 Frc consts  --      1.3797                 1.4497                 1.4671
 IR Inten    --      6.9829                 3.9416                 1.7532

                     70                     71                     72
                      A                      A                      A
 Frequencies --   1859.5766              2934.2074              2993.6001
 Red. masses --      9.7390                 1.0870                 1.0812
 Frc consts  --     19.8423                 5.5138                 5.7088
 IR Inten    --    425.4381                50.3917                13.2618

                     73                     74                     75
                      A                      A                      A
 Frequencies --   2996.9584              3012.1631              3018.2695
 Red. masses --      1.0681                 1.0762                 1.0653
 Frc consts  --      5.6524                 5.7531                 5.7178
 IR Inten    --      5.7027                 5.6711                12.6905

                     76                     77                     78
                      A                      A                      A
 Frequencies --   3022.4148              3027.1571              3028.9136
 Red. masses --      1.0624                 1.0423                 1.0372
 Frc consts  --      5.7182                 5.6276                 5.6062
 IR Inten    --     20.8689                20.1684                42.2679

                     79                     80                     81
                      A                      A                      A
 Frequencies --   3031.7958              3043.8802              3049.9764
 Red. masses --      1.0570                 1.0422                 1.0913
 Frc consts  --      5.7245                 5.6891                 5.9811
 IR Inten    --     73.4899                 4.9455                 8.4194

                     82                     83                     84
                      A                      A                      A
 Frequencies --   3051.2649              3068.3243              3072.4635
 Red. masses --      1.0908                 1.0990                 1.1000
 Frc consts  --      5.9835                 6.0960                 6.1184
 IR Inten    --      1.0795                37.8180                19.2624

                     85                     86                     87
                      A                      A                      A
 Frequencies --   3095.5867              3097.0682              3102.0642
 Red. masses --      1.1023                 1.1023                 1.1008
 Frc consts  --      6.2234                 6.2298                 6.2413
 IR Inten    --     50.3469                64.6701                27.3976

                     88                     89                     90
                      A                      A                      A
 Frequencies --   3103.1100              3114.0922              3130.3282
 Red. masses --      1.1007                 1.1020                 1.1005
 Frc consts  --      6.2449                 6.2965                 6.3538
 IR Inten    --     46.1298                22.6879                19.6197

 - Thermochemistry -
 -------------------
 Temperature   298.150 Kelvin.  Pressure   1.00000 Atm.
 Atom     1 has atomic number  6 and mass  12.00000

 Molecular mass:   172.14633 amu.
 Principal axes and moments of inertia in atomic units:
                           1         2         3
     Eigenvalues --  1780.239843489.544985034.33868
           X            0.99999   0.00184   0.00259
           Y           -0.00184   1.00000  -0.00024
           Z           -0.00259   0.00024   1.00000
 This molecule is an asymmetric top.
 Rotational symmetry number  1.
 Warning -- assumption of classical behavior for rotation
           may cause significant error
 Rotational temperatures (Kelvin)      0.04865     0.02482     0.01720
 Rotational constants (GHZ):           1.01376     0.51719     0.35849
 Zero-point vibrational energy     755424.7 (Joules/Mol)
                                  180.55084 (Kcal/Mol)
 Warning -- explicit consideration of  21 degrees of freedom as
           vibrations may cause significant error
 Vibrational temperatures:     33.35    58.66    68.25   108.26   146.06
          (Kelvin)            163.30   171.14   219.09   272.32   318.47
                              346.08   354.50   368.17   409.04   423.14
                              443.05   500.45   601.78   675.37   728.28
                              802.56   945.92  1057.95  1081.45  1223.61
                             1234.92  1279.26  1301.17  1308.71  1349.19
                             1415.40  1483.70  1505.62  1514.89  1520.19
                             1544.51  1554.78  1565.52  1616.28  1657.58
                             1683.67  1705.14  1735.04  1802.40  1835.36
                             1853.19  1874.42  1916.70  1923.51  1931.20
                             1955.79  1967.91  1994.08  1999.73  2021.55
                             2032.49  2033.68  2035.72  2069.90  2131.28
                             2140.82  2145.87  2149.42  2152.05  2154.57
                             2157.68  2158.21  2171.65  2176.65  2675.52
                             4221.67  4307.12  4311.95  4333.83  4342.62
                             4348.58  4355.40  4357.93  4362.08  4379.46
                             4388.24  4390.09  4414.63  4420.59  4453.86
                             4455.99  4463.18  4464.68  4480.48  4503.84

 Zero-point correction=                           0.287726 (Hartree/Particle)
 Thermal correction to Energy=                    0.303064
 Thermal correction to Enthalpy=                  0.304009
 Thermal correction to Gibbs Free Energy=         0.243734
 Sum of electronic and zero-point Energies=           -543.325891
 Sum of electronic and thermal Energies=              -543.310553
 Sum of electronic and thermal Enthalpies=            -543.309609
 Sum of electronic and thermal Free Energies=         -543.369884

                     E (Thermal)             CV                S
                      KCal/Mol        Cal/Mol-Kelvin    Cal/Mol-Kelvin
 Total                  190.176             54.284            126.859
 Electronic               0.000              0.000              0.000
 Translational            0.889              2.981             41.337
 Rotational               0.889              2.981             31.814
 Vibrational            188.398             48.322             53.708
 Vibration     1          0.593              1.985              6.341
 Vibration     2          0.594              1.981              5.221
 Vibration     3          0.595              1.979              4.921
 Vibration     4          0.599              1.966              4.011
 Vibration     5          0.604              1.948              3.425
 Vibration     6          0.607              1.938              3.208
 Vibration     7          0.609              1.934              3.117
 Vibration     8          0.619              1.900              2.644
 Vibration     9          0.633              1.855              2.235
 Vibration    10          0.648              1.809              1.948
 Vibration    11          0.658              1.778              1.799
 Vibration    12          0.661              1.769              1.756
 Vibration    13          0.666              1.753              1.690
 Vibration    14          0.683              1.703              1.508
 Vibration    15          0.689              1.685              1.450
 Vibration    16          0.698              1.659              1.373
 Vibration    17          0.725              1.580              1.176
 Vibration    18          0.781              1.431              0.898
 Vibration    19          0.827              1.318              0.739
 Vibration    20          0.861              1.236              0.643
 Vibration    21          0.913              1.123              0.528

                           ! Non-Optimized Parameters !
 Normal termination of Gaussian 16 at Mon May 22 18:07:03 2023.
