 Gaussian 16, Revision A.03,
 Gaussian 16:  ES64L-G16RevA.03 25-Dec-2016

 -----------------------------
 # opt freq b3lyp/6-31g(2df,p)
 -----------------------------

 -------------------
 Title Card Required
 -------------------
 Symbolic Z-matrix:
 Charge =  0 Multiplicity = 1

 SCF Done:  E(RB3LYP) =  -1075.39569946     A.U. after   18 cycles
 SCF Done:  E(RB3LYP) =  -1075.41904064     A.U. after   14 cycles
 SCF Done:  E(RB3LYP) =  -1075.43233992     A.U. after   14 cycles
 SCF Done:  E(RB3LYP) =  -1075.43512905     A.U. after   14 cycles
 SCF Done:  E(RB3LYP) =  -1075.43616448     A.U. after   13 cycles
 SCF Done:  E(RB3LYP) =  -1075.43818584     A.U. after   12 cycles
 SCF Done:  E(RB3LYP) =  -1075.43885520     A.U. after   12 cycles
 SCF Done:  E(RB3LYP) =  -1075.43939202     A.U. after   13 cycles
 SCF Done:  E(RB3LYP) =  -1075.44007548     A.U. after   12 cycles
 SCF Done:  E(RB3LYP) =  -1075.44056391     A.U. after   12 cycles
 SCF Done:  E(RB3LYP) =  -1075.44971603     A.U. after   12 cycles
 SCF Done:  E(RB3LYP) =  -1075.45015271     A.U. after   13 cycles
 SCF Done:  E(RB3LYP) =  -1075.45018880     A.U. after   11 cycles
 SCF Done:  E(RB3LYP) =  -1075.45023072     A.U. after   11 cycles
 SCF Done:  E(RB3LYP) =  -1075.45024377     A.U. after   10 cycles
 SCF Done:  E(RB3LYP) =  -1075.45024939     A.U. after   10 cycles
 SCF Done:  E(RB3LYP) =  -1075.45025019     A.U. after    8 cycles
 SCF Done:  E(RB3LYP) =  -1075.45025021     A.U. after    8 cycles
 SCF Done:  E(RB3LYP) =  -1075.45025019     A.U. after    7 cycles
 Optimization completed.
    -- Stationary point found.
 Normal termination of Gaussian 16 at Sun May 28 21:20:09 2023.

 ----------------------------------------------------------------------
 #N Geom=AllCheck Guess=TCheck SCRF=Check GenChk RB3LYP/6-31G(2df,p) Fr
 eq
 ----------------------------------------------------------------------

 Structure from the checkpoint file:  "CCCCCCdCCqNrdCC[SH]dCCdCCdO.chk"
 -------------------
 Title Card Required
 -------------------
 Charge =  0 Multiplicity = 1

                         Standard orientation:
 ---------------------------------------------------------------------
 Center     Atomic      Atomic             Coordinates (Angstroms)
 Number     Number       Type             X           Y           Z
 ---------------------------------------------------------------------
      1          6           0        9.199112    0.030107    0.187651
      2          6           0        7.788934    0.355254    0.687385
      3          6           0        6.700538    0.069682   -0.353064
      4          6           0        5.287034    0.392740    0.141336
      5          6           0        4.198587    0.099078   -0.909048
      6          6           0        2.822102    0.463834   -0.440693
      7          6           0        1.808249   -0.397598   -0.293310
      8          6           0        0.458947   -0.079808    0.175428
      9          7           0        0.140370    1.262961    0.320317
     10          6           0       -0.387312   -1.090731    0.513673
     11          6           0       -1.765774   -0.920752    1.001037
     12         16           0       -2.999896   -0.706623   -0.489553
     13          6           0       -4.605804   -1.050885   -0.128219
     14          6           0       -5.550986   -0.006502   -0.220114
     15          6           0       -6.864658   -0.042907    0.146005
     16          6           0       -7.712922    1.108191   -0.044157
     17          8           0       -8.894408    1.192624    0.243198
     18          1           0        9.952967    0.243919    0.951597
     19          1           0        9.449998    0.619204   -0.701531
     20          1           0        9.289549   -1.028025   -0.082143
     21          1           0        7.738479    1.411754    0.982403
     22          1           0        7.579448   -0.222677    1.597173
     23          1           0        6.750020   -0.987614   -0.649020
     24          1           0        6.908214    0.647668   -1.264607
     25          1           0        5.233328    1.450852    0.431536
     26          1           0        5.070976   -0.182899    1.050370
     27          1           0        4.228092   -0.961022   -1.187962
     28          1           0        4.433639    0.668350   -1.820650
     29          1           0        2.683719    1.510552   -0.171304
     30          1           0        1.973165   -1.448171   -0.519471
     31          1           0        0.605043    1.883181   -0.325386
     32          1           0       -0.840363    1.481794    0.402385
     33          1           0       -0.020551   -2.104186    0.400159
     34          1           0       -1.950746   -0.020466    1.591947
     35          1           0       -2.147875   -1.782339    1.549788
     36          1           0       -2.492240   -1.803320   -1.115848
     37          1           0       -4.847408   -2.012986    0.306807
     38          1           0       -5.192803    0.932186   -0.649417
     39          1           0       -7.310055   -0.930827    0.585823
     40          1           0       -7.179874    1.981112   -0.501068
 ---------------------------------------------------------------------

 SCF Done:  E(RB3LYP) =  -1075.45025019     A.U. after    1 cycles

 The electronic state is 1-A.
 Alpha  occ. eigenvalues --  -88.96484 -19.07429 -14.35937 -10.24989 -10.23674
 Alpha  occ. eigenvalues --  -10.21547 -10.20786 -10.20427 -10.20094 -10.19401
 Alpha  occ. eigenvalues --  -10.19349 -10.19300 -10.19190 -10.18771 -10.18670
 Alpha  occ. eigenvalues --  -10.17885 -10.14501  -8.02220  -5.98507  -5.98431
 Alpha  occ. eigenvalues --   -5.98037  -0.97986  -0.94206  -0.85970  -0.82816
 Alpha  occ. eigenvalues --   -0.80325  -0.79310  -0.76778  -0.75093  -0.71138
 Alpha  occ. eigenvalues --   -0.67752  -0.65514  -0.61753  -0.58620  -0.58229
 Alpha  occ. eigenvalues --   -0.57324  -0.56206  -0.55120  -0.53674  -0.50481
 Alpha  occ. eigenvalues --   -0.48773  -0.47770  -0.46914  -0.45416  -0.44314
 Alpha  occ. eigenvalues --   -0.43687  -0.43496  -0.42265  -0.41853  -0.41600
 Alpha  occ. eigenvalues --   -0.40597  -0.39855  -0.38222  -0.38122  -0.37290
 Alpha  occ. eigenvalues --   -0.36758  -0.36386  -0.35183  -0.34644  -0.34598
 Alpha  occ. eigenvalues --   -0.33754  -0.33232  -0.33115  -0.32853  -0.29080
 Alpha  occ. eigenvalues --   -0.27649  -0.22886  -0.20205  -0.17450
 Alpha virt. eigenvalues --   -0.05374  -0.01322   0.01578   0.03139   0.04528
 Alpha virt. eigenvalues --    0.06866   0.07951   0.08415   0.09035   0.09970
 Alpha virt. eigenvalues --    0.10329   0.10960   0.11247   0.11498   0.11986

 Mulliken charges:
               1
     1  C   -0.379662
     2  C   -0.166382
     3  C   -0.158077
     4  C   -0.172447
     5  C   -0.249142
     6  C   -0.086778
     7  C   -0.102476
     8  C    0.344095
     9  N   -0.578045
    10  C   -0.188305
    11  C   -0.325277
    12  S    0.043201
    13  C   -0.215938
    14  C    0.000252
    15  C   -0.218287
    16  C    0.139058
    17  O   -0.326389
    18  H    0.113501
    19  H    0.114138
    20  H    0.114234
    21  H    0.095470
    22  H    0.096346
    23  H    0.093616
    24  H    0.092723
    25  H    0.096562
    26  H    0.103230
    27  H    0.100336
    28  H    0.108233
    29  H    0.089723
    30  H    0.092985
    31  H    0.255200
    32  H    0.256233
    33  H    0.091283
    34  H    0.138574
    35  H    0.146126
    36  H    0.153636
    37  H    0.106796
    38  H    0.083821
    39  H    0.074502
    40  H    0.023330
 Sum of Mulliken charges =  -0.00000

 Dipole moment (field-independent basis, Debye):
    X=             11.6643    Y=             -1.7111    Z=             -0.9820  Tot=             11.8300
 Quadrupole moment (field-independent basis, Debye-Ang):
   XX=           -212.4344   YY=           -104.4628   ZZ=           -113.8611
   XY=             17.0666   XZ=              0.8825   YZ=             -2.4074

  Exact polarizability: 482.583  -5.156 167.725 -15.888  -5.121 125.178
 Approx polarizability: 610.344  -1.697 285.364 -34.109  -8.755 201.430

                      1                      2                      3
                      A                      A                      A
 Frequencies --     12.0989                16.1326                25.9473
 Red. masses --      5.9434                 5.0212                 3.8789
 Frc consts  --      0.0005                 0.0008                 0.0015
 IR Inten    --      2.6173                 1.5051                 0.9370

                      4                      5                      6
                      A                      A                      A
 Frequencies --     42.3845                44.6085                55.7613
 Red. masses --      2.7834                 3.4556                 3.1869
 Frc consts  --      0.0029                 0.0041                 0.0058
 IR Inten    --      1.0490                 0.1688                 1.5468

                      7                      8                      9
                      A                      A                      A
 Frequencies --     73.2602                98.4299               109.5265
 Red. masses --      3.9744                 2.5900                 2.7964
 Frc consts  --      0.0126                 0.0148                 0.0198
 IR Inten    --      0.4380                 0.4442                 1.7531

                     10                     11                     12
                      A                      A                      A
 Frequencies --    126.4629               137.1246               143.5326
 Red. masses --      2.0044                 3.9002                 4.5897
 Frc consts  --      0.0189                 0.0432                 0.0557
 IR Inten    --      0.0643                 3.8018                 0.4096

                     13                     14                     15
                      A                      A                      A
 Frequencies --    154.5318               167.9362               172.6290
 Red. masses --      3.3387                 2.8066                 2.7052
 Frc consts  --      0.0470                 0.0466                 0.0475
 IR Inten    --      1.9225                 0.9092                 0.2829

                     16                     17                     18
                      A                      A                      A
 Frequencies --    215.7385               247.5336               257.4804
 Red. masses --      3.5295                 1.1256                 2.3945
 Frc consts  --      0.0968                 0.0406                 0.0935
 IR Inten    --      2.8378                 0.0327                 3.7836

                     19                     20                     21
                      A                      A                      A
 Frequencies --    265.0459               297.8882               330.0663
 Red. masses --      3.4257                 3.5712                 2.2710
 Frc consts  --      0.1418                 0.1867                 0.1458
 IR Inten    --      1.3718                 1.6900                 6.2722

                     22                     23                     24
                      A                      A                      A
 Frequencies --    348.7193               362.6829               389.0816
 Red. masses --      3.2552                 2.2991                 1.8960
 Frc consts  --      0.2332                 0.1782                 0.1691
 IR Inten    --     19.6847                20.3828                13.6774

                     25                     26                     27
                      A                      A                      A
 Frequencies --    417.0522               428.8381               445.6637
 Red. masses --      4.1087                 2.9250                 3.0327
 Frc consts  --      0.4211                 0.3169                 0.3549
 IR Inten    --     12.3948                 0.2523                11.3503

                     28                     29                     30
                      A                      A                      A
 Frequencies --    484.2955               557.2556               570.0250
 Red. masses --      3.2293                 2.5837                 1.4020
 Frc consts  --      0.4463                 0.4727                 0.2684
 IR Inten    --      5.9888                45.1874               204.2051

                     31                     32                     33
                      A                      A                      A
 Frequencies --    599.7157               622.6395               668.1488
 Red. masses --      4.0348                 2.3395                 1.6140
 Frc consts  --      0.8550                 0.5344                 0.4245
 IR Inten    --     15.7397                 1.7924                75.0232

                     34                     35                     36
                      A                      A                      A
 Frequencies --    692.4591               727.8253               733.1862
 Red. masses --      2.1138                 1.3016                 1.0735
 Frc consts  --      0.5972                 0.4062                 0.3400
 IR Inten    --     15.6340                26.0965                 6.3852

                     37                     38                     39
                      A                      A                      A
 Frequencies --    758.2626               775.4808               828.8134
 Red. masses --      1.1490                 1.3340                 1.4405
 Frc consts  --      0.3892                 0.4726                 0.5830
 IR Inten    --      2.5394                15.5456                 8.2360

                     40                     41                     42
                      A                      A                      A
 Frequencies --    845.4832               861.0618               873.8120
 Red. masses --      1.5386                 1.8975                 1.7211
 Frc consts  --      0.6480                 0.8289                 0.7743
 IR Inten    --     13.3463                 2.0336                 6.9275

                     43                     44                     45
                      A                      A                      A
 Frequencies --    899.7278               909.5104               940.3936
 Red. masses --      1.9305                 2.8869                 2.3586
 Frc consts  --      0.9207                 1.4070                 1.2289
 IR Inten    --      1.3592                81.6496               227.5725

                     46                     47                     48
                      A                      A                      A
 Frequencies --    967.0455               988.9715              1004.0364
 Red. masses --      1.4205                 1.3502                 1.1198
 Frc consts  --      0.7827                 0.7780                 0.6651
 IR Inten    --      6.6315                23.9682                25.7881

                     49                     50                     51
                      A                      A                      A
 Frequencies --   1005.9219              1024.8216              1034.0884
 Red. masses --      2.9367                 1.6814                 2.7376
 Frc consts  --      1.7508                 1.0404                 1.7248
 IR Inten    --      3.7181                94.8519                 5.7250

                     52                     53                     54
                      A                      A                      A
 Frequencies --   1040.7467              1057.2495              1068.9226
 Red. masses --      1.4006                 1.7787                 2.2318
 Frc consts  --      0.8939                 1.1714                 1.5025
 IR Inten    --      5.6226                99.7225                 8.8368

                     55                     56                     57
                      A                      A                      A
 Frequencies --   1090.4047              1126.9061              1138.3845
 Red. masses --      1.6649                 2.0588                 1.7540
 Frc consts  --      1.1663                 1.5404                 1.3392
 IR Inten    --     62.7573                 5.5140                 4.2193

                     58                     59                     60
                      A                      A                      A
 Frequencies --   1153.6631              1164.8460              1170.0761
 Red. masses --      1.2864                 1.9088                 2.0071
 Frc consts  --      1.0088                 1.5259                 1.6190
 IR Inten    --     29.1253                57.5480                85.8448

                     61                     62                     63
                      A                      A                      A
 Frequencies --   1195.3746              1208.3974              1227.3991
 Red. masses --      1.2485                 1.2537                 1.5509
 Frc consts  --      1.0511                 1.0786                 1.3766
 IR Inten    --    140.4218                29.7996                 0.5528

                     64                     65                     66
                      A                      A                      A
 Frequencies --   1248.6050              1253.4760              1279.2814
 Red. masses --      2.0105                 1.2928                 1.2790
 Frc consts  --      1.8468                 1.1968                 1.2333
 IR Inten    --    156.8254                 6.4753                 0.2498

                     67                     68                     69
                      A                      A                      A
 Frequencies --   1294.7737              1308.8717              1320.1660
 Red. masses --      1.3099                 1.4773                 1.2698
 Frc consts  --      1.2939                 1.4911                 1.3039
 IR Inten    --      1.8027                19.5586                 1.2446

                     70                     71                     72
                      A                      A                      A
 Frequencies --   1326.4263              1332.0848              1342.0947
 Red. masses --      1.2023                 1.0836                 1.4301
 Frc consts  --      1.2463                 1.1329                 1.5177
 IR Inten    --      1.2348                 0.3573                 5.5895

                     73                     74                     75
                      A                      A                      A
 Frequencies --   1343.5031              1360.4787              1383.8185
 Red. masses --      1.6417                 1.4956                 1.4919
 Frc consts  --      1.7460                 1.6310                 1.6832
 IR Inten    --      4.1318                 7.0369                 1.6495

                     76                     77                     78
                      A                      A                      A
 Frequencies --   1399.1136              1413.8107              1425.4902
 Red. masses --      1.5981                 1.2405                 1.8756
 Frc consts  --      1.8432                 1.4609                 2.2455
 IR Inten    --      0.8203                 0.5350                40.2151

                     79                     80                     81
                      A                      A                      A
 Frequencies --   1437.7420              1476.0188              1482.3983
 Red. masses --      1.3336                 1.0901                 1.2217
 Frc consts  --      1.6242                 1.3993                 1.5817
 IR Inten    --     37.2118                 4.4748                 4.7156

                     82                     83                     84
                      A                      A                      A
 Frequencies --   1483.5700              1490.0342              1500.0381
 Red. masses --      1.0712                 1.0714                 1.0402
 Frc consts  --      1.3891                 1.4015                 1.3790
 IR Inten    --      1.9579                 1.5719                 5.2410

                     85                     86                     87
                      A                      A                      A
 Frequencies --   1502.8827              1513.5628              1627.2064
 Red. masses --      1.0794                 1.0917                 4.6352
 Frc consts  --      1.4364                 1.4735                 7.2310
 IR Inten    --      0.0486                 3.5714               915.5727

                     88                     89                     90
                      A                      A                      A
 Frequencies --   1640.3671              1671.2767              1710.6753
 Red. masses --      2.3897                 1.6452                 5.4548
 Frc consts  --      3.7885                 2.7075                 9.4051
 IR Inten    --     13.0538               118.0414                24.6403

                     91                     92                     93
                      A                      A                      A
 Frequencies --   1760.0528              2483.9356              2793.7002
 Red. masses --      9.2007                 1.0388                 1.0781
 Frc consts  --     16.7927                 3.7761                 4.9574
 IR Inten    --    728.7350                54.2565               146.5103

                     94                     95                     96
                      A                      A                      A
 Frequencies --   2997.1736              3001.9805              3012.0070
 Red. masses --      1.0638                 1.0579                 1.0604
 Frc consts  --      5.6306                 5.6172                 5.6679
 IR Inten    --     16.0033                13.0127                 0.0436

                     97                     98                     99
                      A                      A                      A
 Frequencies --   3019.1819              3026.2116              3029.3836
 Red. masses --      1.0640                 1.0951                 1.0361
 Frc consts  --      5.7146                 5.9087                 5.6025
 IR Inten    --     64.3200                 6.0824                46.1129

                    100                    101                    102
                      A                      A                      A
 Frequencies --   3042.7654              3053.2614              3069.7053
 Red. masses --      1.0966                 1.1002                 1.1035
 Frc consts  --      5.9821                 6.0428                 6.1264
 IR Inten    --      7.6869                 8.6926                60.9929

                    103                    104                    105
                      A                      A                      A
 Frequencies --   3071.3779              3095.5313              3101.1966
 Red. masses --      1.0598                 1.1021                 1.0854
 Frc consts  --      5.8902                 6.2222                 6.1502
 IR Inten    --     10.1307                57.1216                 8.9136

                    106                    107                    108
                      A                      A                      A
 Frequencies --   3102.3370              3132.1290              3136.7591
 Red. masses --      1.1009                 1.0881                 1.1071
 Frc consts  --      6.2429                 6.2890                 6.4178
 IR Inten    --     38.0108                16.4673                 3.7815

                    109                    110                    111
                      A                      A                      A
 Frequencies --   3159.1209              3169.7393              3191.0492
 Red. masses --      1.0879                 1.0892                 1.0888
 Frc consts  --      6.3972                 6.4479                 6.5326
 IR Inten    --     12.3617                11.6405                14.9153

                    112                    113                    114
                      A                      A                      A
 Frequencies --   3194.6001              3583.2013              3678.0503
 Red. masses --      1.0878                 1.0475                 1.0975
 Frc consts  --      6.5409                 7.9237                 8.7476
 IR Inten    --      4.2515                10.7781                10.1778

 - Thermochemistry -
 -------------------
 Temperature   298.150 Kelvin.  Pressure   1.00000 Atm.
 Atom     1 has atomic number  6 and mass  12.00000

 Molecular mass:   253.15004 amu.
 Principal axes and moments of inertia in atomic units:
                           1         2         3
     Eigenvalues --   821.06323********************
           X            1.00000   0.00255  -0.00023
           Y           -0.00256   0.99954  -0.03022
           Z            0.00016   0.03022   0.99954
 This molecule is an asymmetric top.
 Rotational symmetry number  1.
 Warning -- assumption of classical behavior for rotation
           may cause significant error
 Rotational temperatures (Kelvin)      0.10549     0.00333     0.00329
 Rotational constants (GHZ):           2.19805     0.06936     0.06849
 Zero-point vibrational energy     896444.0 (Joules/Mol)
                                  214.25525 (Kcal/Mol)
 Warning -- explicit consideration of  31 degrees of freedom as
           vibrations may cause significant error
 Vibrational temperatures:     17.41    23.21    37.33    60.98    64.18
          (Kelvin)             80.23   105.41   141.62   157.58   181.95
                              197.29   206.51   222.34   241.62   248.37
                              310.40   356.15   370.46   381.34   428.59
                              474.89   501.73   521.82   559.80   600.05
                              617.00   641.21   696.79   801.77   820.14
                              862.86   895.84   961.32   996.29  1047.18
                             1054.89  1090.97  1115.74  1192.48  1216.46
                             1238.88  1257.22  1294.51  1308.58  1353.02
                             1391.36  1422.91  1444.58  1447.30  1474.49
                             1487.82  1497.40  1521.15  1537.94  1568.85
                             1621.37  1637.88  1659.86  1675.95  1683.48
                             1719.88  1738.61  1765.95  1796.46  1803.47
                             1840.60  1862.89  1883.17  1899.42  1908.43
                             1916.57  1930.97  1933.00  1957.43  1991.01
                             2013.01  2034.16  2050.96  2068.59  2123.66
                             2132.84  2134.53  2143.83  2158.22  2162.31
                             2177.68  2341.19  2360.12  2404.59  2461.28
                             2532.32  3573.83  4019.51  4312.26  4319.18
                             4333.61  4343.93  4354.04  4358.61  4377.86
                             4392.96  4416.62  4419.03  4453.78  4461.93
                             4463.57  4506.44  4513.10  4545.27  4560.55
                             4591.21  4596.32  5155.43  5291.89

 Zero-point correction=                           0.341437 (Hartree/Particle)
 Thermal correction to Energy=                    0.362874
 Thermal correction to Enthalpy=                  0.363818
 Thermal correction to Gibbs Free Energy=         0.286693
 Sum of electronic and zero-point Energies=          -1075.108813
 Sum of electronic and thermal Energies=             -1075.087376
 Sum of electronic and thermal Enthalpies=           -1075.086432
 Sum of electronic and thermal Free Energies=        -1075.163558

                     E (Thermal)             CV                S
                      KCal/Mol        Cal/Mol-Kelvin    Cal/Mol-Kelvin
 Total                  227.707             76.360            162.324
 Electronic               0.000              0.000              0.000
 Translational            0.889              2.981             42.487
 Rotational               0.889              2.981             34.686
 Vibrational            225.929             70.398             85.152
 Vibration     1          0.593              1.987              7.633
 Vibration     2          0.593              1.986              7.061
 Vibration     3          0.593              1.985              6.117
 Vibration     4          0.595              1.980              5.144
 Vibration     5          0.595              1.980              5.043
 Vibration     6          0.596              1.975              4.602
 Vibration     7          0.599              1.967              4.064
 Vibration     8          0.604              1.950              3.485
 Vibration     9          0.606              1.942              3.277
 Vibration    10          0.611              1.927              2.999
 Vibration    11          0.614              1.916              2.844
 Vibration    12          0.616              1.910              2.756
 Vibration    13          0.620              1.898              2.616
 Vibration    14          0.625              1.882              2.458
 Vibration    15          0.626              1.876              2.407
 Vibration    16          0.645              1.817              1.995
 Vibration    17          0.661              1.767              1.748
 Vibration    18          0.667              1.750              1.679
 Vibration    19          0.671              1.737              1.628
 Vibration    20          0.691              1.678              1.429
 Vibration    21          0.713              1.615              1.260
 Vibration    22          0.726              1.578              1.172
 Vibration    23          0.737              1.549              1.111
 Vibration    24          0.757              1.494              1.004
 Vibration    25          0.780              1.433              0.902
 Vibration    26          0.790              1.407              0.862
 Vibration    27          0.805              1.370              0.809
 Vibration    28          0.840              1.285              0.699
 Vibration    29          0.913              1.124              0.529
 Vibration    30          0.926              1.096              0.504
 Vibration    31          0.958              1.032              0.450

 Optimization completed.
    -- Stationary point found.
 Normal termination of Gaussian 16 at Sun May 28 23:55:17 2023.
