 Gaussian 16, Revision A.03,
 Gaussian 16:  ES64L-G16RevA.03 25-Dec-2016

 -----------------------------
 # opt freq b3lyp/6-31g(2df,p)
 -----------------------------

 -------------------
 Title Card Required
 -------------------
 Symbolic Z-matrix:
 Charge =  0 Multiplicity = 1

 SCF Done:  E(RB3LYP) =  -355.040040359     A.U. after   12 cycles
 SCF Done:  E(RB3LYP) =  -355.044159206     A.U. after   10 cycles
 SCF Done:  E(RB3LYP) =  -355.046735932     A.U. after   10 cycles
 SCF Done:  E(RB3LYP) =  -355.048274015     A.U. after   10 cycles
 SCF Done:  E(RB3LYP) =  -355.048910449     A.U. after   10 cycles
 SCF Done:  E(RB3LYP) =  -355.049037800     A.U. after    9 cycles
 SCF Done:  E(RB3LYP) =  -355.049167148     A.U. after    9 cycles
 SCF Done:  E(RB3LYP) =  -355.048181966     A.U. after   10 cycles
 SCF Done:  E(RB3LYP) =  -355.010839370     A.U. after   11 cycles
 SCF Done:  E(RB3LYP) =  -355.003291423     A.U. after   11 cycles
 SCF Done:  E(RB3LYP) =  -355.049804028     A.U. after   10 cycles
 SCF Done:  E(RB3LYP) =  -355.050043406     A.U. after    9 cycles
 SCF Done:  E(RB3LYP) =  -355.050064968     A.U. after    8 cycles
 SCF Done:  E(RB3LYP) =  -355.050079318     A.U. after    8 cycles
 SCF Done:  E(RB3LYP) =  -355.050078165     A.U. after    6 cycles
 SCF Done:  E(RB3LYP) =  -355.050086288     A.U. after    8 cycles
 SCF Done:  E(RB3LYP) =  -355.050076086     A.U. after    8 cycles
 SCF Done:  E(RB3LYP) =  -355.050086790     A.U. after    8 cycles
 SCF Done:  E(RB3LYP) =  -355.050086831     A.U. after    6 cycles
 Optimization completed.
    -- Stationary point found.
 Normal termination of Gaussian 16 at Sun May 28 08:28:10 2023.

 ----------------------------------------------------------------------
 #N Geom=AllCheck Guess=TCheck SCRF=Check GenChk RB3LYP/6-31G(2df,p) Fr
 eq
 ----------------------------------------------------------------------

 Structure from the checkpoint file:  "CCCCCqCCrCC.chk"
 -------------------
 Title Card Required
 -------------------
 Charge =  0 Multiplicity = 1

                         Standard orientation:
 ---------------------------------------------------------------------
 Center     Atomic      Atomic             Coordinates (Angstroms)
 Number     Number       Type             X           Y           Z
 ---------------------------------------------------------------------
      1          6           0        4.080723   -0.293661    0.459082
      2          6           0        2.853439   -0.476964   -0.437985
      3          6           0        1.530460   -0.196132    0.282737
      4          6           0        0.297190   -0.404410   -0.607018
      5          6           0       -1.062117   -0.116555    0.083959
      6          6           0       -1.614630    1.280871   -0.261608
      7          6           0       -0.714103    2.460435    0.120215
      8          6           0       -2.081568   -1.224115   -0.257981
      9          6           0       -3.412959   -1.154585    0.497507
     10          1           0        5.008843   -0.500062   -0.083350
     11          1           0        4.043694   -0.966816    1.323009
     12          1           0        4.140879    0.730824    0.843363
     13          1           0        2.838955   -1.500883   -0.835114
     14          1           0        2.936442    0.183287   -1.311765
     15          1           0        1.543961    0.827824    0.676506
     16          1           0        1.451030   -0.852687    1.160869
     17          1           0        0.308902   -1.442864   -0.962749
     18          1           0        0.389781    0.214412   -1.510246
     19          1           0       -0.901532   -0.150827    1.172813
     20          1           0       -2.582522    1.415307    0.234021
     21          1           0       -1.820019    1.316495   -1.341162
     22          1           0       -0.486701    2.456585    1.192231
     23          1           0       -1.204372    3.412096   -0.109614
     24          1           0        0.236654    2.444867   -0.421292
     25          1           0       -1.611783   -2.193378   -0.047689
     26          1           0       -2.271653   -1.212569   -1.340667
     27          1           0       -3.250688   -1.127163    1.581368
     28          1           0       -4.029239   -2.032429    0.278142
     29          1           0       -3.999252   -0.271312    0.227881
 ---------------------------------------------------------------------

 SCF Done:  E(RB3LYP) =  -355.050086831     A.U. after    1 cycles

 The electronic state is 1-A.
 Alpha  occ. eigenvalues --  -10.17700 -10.17389 -10.17296 -10.17248 -10.17106
 Alpha  occ. eigenvalues --  -10.16943 -10.16870 -10.16847 -10.16833  -0.81378
 Alpha  occ. eigenvalues --   -0.77898  -0.74213  -0.72033  -0.66878  -0.61407
 Alpha  occ. eigenvalues --   -0.60242  -0.57079  -0.54698  -0.47199  -0.44831
 Alpha  occ. eigenvalues --   -0.43929  -0.42989  -0.41714  -0.41478  -0.38956
 Alpha  occ. eigenvalues --   -0.38680  -0.37116  -0.36484  -0.35692  -0.34494
 Alpha  occ. eigenvalues --   -0.33577  -0.33328  -0.32506  -0.31746  -0.30837
 Alpha  occ. eigenvalues --   -0.29840  -0.29063
 Alpha virt. eigenvalues --    0.08666   0.09635   0.11048   0.11483   0.12284
 Alpha virt. eigenvalues --    0.13620   0.14479   0.15039   0.16109   0.16741
 Alpha virt. eigenvalues --    0.17069   0.17723   0.18416   0.18534   0.19061

 Mulliken charges:
               1
     1  C   -0.379736
     2  C   -0.162732
     3  C   -0.161586
     4  C   -0.201777
     5  C    0.051024
     6  C   -0.168403
     7  C   -0.386643
     8  C   -0.180079
     9  C   -0.391463
    10  H    0.109387
    11  H    0.112170
    12  H    0.112470
    13  H    0.092823
    14  H    0.092493
    15  H    0.095850
    16  H    0.089069
    17  H    0.086091
    18  H    0.088289
    19  H    0.061071
    20  H    0.093608
    21  H    0.089219
    22  H    0.112306
    23  H    0.107914
    24  H    0.118006
    25  H    0.089783
    26  H    0.091352
    27  H    0.111563
    28  H    0.109669
    29  H    0.118261
 Sum of Mulliken charges =  -0.00000

 Dipole moment (field-independent basis, Debye):
    X=             -0.0611    Y=             -0.0287    Z=             -0.0302  Tot=              0.0739
 Quadrupole moment (field-independent basis, Debye-Ang):
   XX=            -62.3081   YY=            -61.0932   ZZ=            -61.2247
   XY=             -0.2522   XZ=             -0.1283   YZ=             -0.3171

  Exact polarizability: 116.955   1.494  97.878  -0.210   0.357  86.855
 Approx polarizability: 136.349  -0.148 135.986  -0.318  -0.415 134.791

                      1                      2                      3
                      A                      A                      A
 Frequencies --     40.2351                70.3502                82.5225
 Red. masses --      2.6302                 1.8128                 2.0145
 Frc consts  --      0.0025                 0.0053                 0.0081
 IR Inten    --      0.0081                 0.0026                 0.0008

                      4                      5                      6
                      A                      A                      A
 Frequencies --    108.1339               130.7141               136.4738
 Red. masses --      1.8713                 1.8889                 2.2416
 Frc consts  --      0.0129                 0.0190                 0.0246
 IR Inten    --      0.0407                 0.0093                 0.0239

                      7                      8                      9
                      A                      A                      A
 Frequencies --    212.9453               227.1182               242.3496
 Red. masses --      2.2311                 1.5707                 1.1385
 Frc consts  --      0.0596                 0.0477                 0.0394
 IR Inten    --      0.0113                 0.0190                 0.0021

                     10                     11                     12
                      A                      A                      A
 Frequencies --    262.1035               277.0208               307.9705
 Red. masses --      1.1890                 1.6597                 3.2906
 Frc consts  --      0.0481                 0.0750                 0.1839
 IR Inten    --      0.0209                 0.0243                 0.1081

                     13                     14                     15
                      A                      A                      A
 Frequencies --    368.3664               406.1008               477.1245
 Red. masses --      2.4640                 2.1246                 2.5866
 Frc consts  --      0.1970                 0.2064                 0.3469
 IR Inten    --      0.0572                 0.1075                 0.1106

                     16                     17                     18
                      A                      A                      A
 Frequencies --    511.9141               729.1535               759.2726
 Red. masses --      2.5407                 1.0846                 1.4297
 Frc consts  --      0.3923                 0.3397                 0.4856
 IR Inten    --      0.3973                 3.3495                 1.1376

                     19                     20                     21
                      A                      A                      A
 Frequencies --    775.6987               788.6831               851.2571
 Red. masses --      1.1759                 1.2214                 1.6081
 Frc consts  --      0.4169                 0.4476                 0.6866
 IR Inten    --      1.2227                 1.2819                 1.4435

                     22                     23                     24
                      A                      A                      A
 Frequencies --    895.5950               911.0353               945.8692
 Red. masses --      1.7250                 1.6466                 1.3397
 Frc consts  --      0.8152                 0.8052                 0.7062
 IR Inten    --      0.6099                 0.9103                 3.0689

                     25                     26                     27
                      A                      A                      A
 Frequencies --    968.9664              1017.8124              1028.4437
 Red. masses --      2.4281                 1.2579                 2.7247
 Frc consts  --      1.3432                 0.7678                 1.6980
 IR Inten    --      1.0010                 0.1694                 0.4879

                     28                     29                     30
                      A                      A                      A
 Frequencies --   1048.6583              1056.2841              1068.3976
 Red. masses --      2.6793                 2.4249                 2.2128
 Frc consts  --      1.7360                 1.5941                 1.4882
 IR Inten    --      0.4639                 0.2172                 0.4984

                     31                     32                     33
                      A                      A                      A
 Frequencies --   1073.5101              1096.8990              1159.0539
 Red. masses --      1.4249                 1.7691                 2.2942
 Frc consts  --      0.9675                 1.2541                 1.8159
 IR Inten    --      0.1511                 2.4729                 1.4220

                     34                     35                     36
                      A                      A                      A
 Frequencies --   1168.6282              1195.2060              1245.5033
 Red. masses --      2.1422                 1.9888                 1.4106
 Frc consts  --      1.7237                 1.6739                 1.2892
 IR Inten    --      1.2457                 0.0752                 1.0274

                     37                     38                     39
                      A                      A                      A
 Frequencies --   1268.5620              1279.9164              1308.3483
 Red. masses --      1.2832                 1.3062                 1.2569
 Frc consts  --      1.2167                 1.2608                 1.2677
 IR Inten    --      3.6148                 2.0047                 2.1664

                     40                     41                     42
                      A                      A                      A
 Frequencies --   1318.9924              1329.6379              1336.7977
 Red. masses --      1.1456                 1.0812                 1.1834
 Frc consts  --      1.1743                 1.1262                 1.2460
 IR Inten    --      0.2977                 0.8132                 1.0229

                     43                     44                     45
                      A                      A                      A
 Frequencies --   1351.3757              1371.5397              1385.7785
 Red. masses --      1.2351                 1.3960                 1.4413
 Frc consts  --      1.3289                 1.5472                 1.6308
 IR Inten    --      3.0960                 3.6057                 1.1419

                     46                     47                     48
                      A                      A                      A
 Frequencies --   1392.0188              1399.9334              1410.6414
 Red. masses --      1.5009                 1.4958                 1.2365
 Frc consts  --      1.7136                 1.7272                 1.4497
 IR Inten    --      1.3753                 0.8258                 1.9702

                     49                     50                     51
                      A                      A                      A
 Frequencies --   1412.9883              1413.8155              1481.6075
 Red. masses --      1.2485                 1.2447                 1.0676
 Frc consts  --      1.4686                 1.4659                 1.3808
 IR Inten    --      0.5696                 1.2998                 0.9861

                     52                     53                     54
                      A                      A                      A
 Frequencies --   1483.8322              1487.9085              1488.6731
 Red. masses --      1.0638                 1.0730                 1.0634
 Frc consts  --      1.3800                 1.3996                 1.3885
 IR Inten    --      0.2049                 0.6063                 0.8271

                     55                     56                     57
                      A                      A                      A
 Frequencies --   1499.5643              1499.8210              1500.8251
 Red. masses --      1.0603                 1.0404                 1.0539
 Frc consts  --      1.4048                 1.3789                 1.3986
 IR Inten    --      3.0500                 5.1945                 3.8175

                     58                     59                     60
                      A                      A                      A
 Frequencies --   1504.1005              1508.1022              1510.5827
 Red. masses --      1.0570                 1.0556                 1.0678
 Frc consts  --      1.4088                 1.4145                 1.4355
 IR Inten    --      3.0382                 2.5954                 6.0488

                     61                     62                     63
                      A                      A                      A
 Frequencies --   1514.4054              2977.7527              3002.5722
 Red. masses --      1.0831                 1.0804                 1.0597
 Frc consts  --      1.4636                 5.6444                 5.6287
 IR Inten    --      2.9533                 5.5801                 1.3329

                     64                     65                     66
                      A                      A                      A
 Frequencies --   3004.6179              3006.0833              3011.3457
 Red. masses --      1.0639                 1.0627                 1.0628
 Frc consts  --      5.6591                 5.6581                 5.6786
 IR Inten    --      9.5436                 6.2364                 5.6508

                     67                     68                     69
                      A                      A                      A
 Frequencies --   3017.5324              3027.2873              3029.5668
 Red. masses --      1.0643                 1.0394                 1.0484
 Frc consts  --      5.7100                 5.6120                 5.6693
 IR Inten    --    104.4802                36.9262                24.0716

                     70                     71                     72
                      A                      A                      A
 Frequencies --   3030.2047              3032.8365              3036.8867
 Red. masses --      1.0410                 1.0745                 1.0999
 Frc consts  --      5.6319                 5.8233                 5.9766
 IR Inten    --     17.5143                16.2011                 5.7223

                     73                     74                     75
                      A                      A                      A
 Frequencies --   3042.8208              3058.6617              3063.8856
 Red. masses --      1.0985                 1.0939                 1.1022
 Frc consts  --      5.9922                 6.0297                 6.0963
 IR Inten    --     24.6526                29.9875                66.3930

                     76                     77                     78
                      A                      A                      A
 Frequencies --   3093.5318              3093.8528              3094.3416
 Red. masses --      1.1017                 1.1010                 1.1006
 Frc consts  --      6.2117                 6.2091                 6.2091
 IR Inten    --     78.9600                 7.2053                49.9708

                     79                     80                     81
                      A                      A                      A
 Frequencies --   3098.8715              3104.0953              3107.6897
 Red. masses --      1.1009                 1.1010                 1.0999
 Frc consts  --      6.2290                 6.2505                 6.2585
 IR Inten    --     42.5288                37.4535                50.7197

 - Thermochemistry -
 -------------------
 Temperature   298.150 Kelvin.  Pressure   1.00000 Atm.
 Atom     1 has atomic number  6 and mass  12.00000

 Molecular mass:   128.15650 amu.
 Principal axes and moments of inertia in atomic units:
                           1         2         3
     Eigenvalues --   764.606712671.179923190.27787
           X            1.00000   0.00215   0.00034
           Y           -0.00215   1.00000   0.00182
           Z           -0.00034  -0.00182   1.00000
 This molecule is an asymmetric top.
 Rotational symmetry number  1.
 Warning -- assumption of classical behavior for rotation
           may cause significant error
 Rotational temperatures (Kelvin)      0.11328     0.03243     0.02715
 Rotational constants (GHZ):           2.36035     0.67563     0.56570
 Zero-point vibrational energy     717996.1 (Joules/Mol)
                                  171.60519 (Kcal/Mol)
 Warning -- explicit consideration of  16 degrees of freedom as
           vibrations may cause significant error
 Vibrational temperatures:     57.89   101.22   118.73   155.58   188.07
          (Kelvin)            196.36   306.38   326.77   348.69   377.11
                              398.57   443.10   530.00   584.29   686.48
                              736.53  1049.09  1092.42  1116.06  1134.74
                             1224.77  1288.56  1310.78  1360.89  1394.13
                             1464.40  1479.70  1508.79  1519.76  1537.19
                             1544.54  1578.19  1667.62  1681.40  1719.63
                             1792.00  1825.18  1841.51  1882.42  1897.74
                             1913.05  1923.35  1944.33  1973.34  1993.83
                             2002.80  2014.19  2029.60  2032.98  2034.17
                             2131.70  2134.90  2140.77  2141.87  2157.54
                             2157.91  2159.35  2164.07  2169.82  2173.39
                             2178.89  4284.32  4320.03  4322.97  4325.08
                             4332.65  4341.56  4355.59  4358.87  4359.79
                             4363.58  4369.40  4377.94  4400.73  4408.25
                             4450.90  4451.36  4452.07  4458.58  4466.10
                             4471.27

 Zero-point correction=                           0.273470 (Hartree/Particle)
 Thermal correction to Energy=                    0.285851
 Thermal correction to Enthalpy=                  0.286796
 Thermal correction to Gibbs Free Energy=         0.234796
 Sum of electronic and zero-point Energies=           -354.776617
 Sum of electronic and thermal Energies=              -354.764235
 Sum of electronic and thermal Enthalpies=            -354.763291
 Sum of electronic and thermal Free Energies=         -354.815291

                     E (Thermal)             CV                S
                      KCal/Mol        Cal/Mol-Kelvin    Cal/Mol-Kelvin
 Total                  179.374             44.621            109.443
 Electronic               0.000              0.000              0.000
 Translational            0.889              2.981             40.457
 Rotational               0.889              2.981             30.256
 Vibrational            177.597             38.659             38.730
 Vibration     1          0.594              1.981              5.247
 Vibration     2          0.598              1.968              4.144
 Vibration     3          0.600              1.961              3.830
 Vibration     4          0.606              1.943              3.302
 Vibration     5          0.612              1.923              2.936
 Vibration     6          0.614              1.917              2.853
 Vibration     7          0.644              1.821              2.018
 Vibration     8          0.651              1.800              1.902
 Vibration     9          0.659              1.775              1.786
 Vibration    10          0.669              1.742              1.648
 Vibration    11          0.678              1.716              1.552
 Vibration    12          0.698              1.659              1.373
 Vibration    13          0.741              1.537              1.087
 Vibration    14          0.771              1.457              0.940
 Vibration    15          0.834              1.301              0.718
 Vibration    16          0.867              1.224              0.629

 Optimization completed.
    -- Stationary point found.
 Normal termination of Gaussian 16 at Sun May 28 09:11:30 2023.
