 Gaussian 16, Revision A.03,
 Gaussian 16:  ES64L-G16RevA.03 25-Dec-2016

 -----------------------------
 # opt freq b3lyp/6-31g(2df,p)
 -----------------------------

 -------------------
 Title Card Required
 -------------------
 Symbolic Z-matrix:
 Charge =  0 Multiplicity = 1

 SCF Done:  E(RB3LYP) =  -1413.48943887     A.U. after   14 cycles
 SCF Done:  E(RB3LYP) =  -1413.50856153     A.U. after   13 cycles
 SCF Done:  E(RB3LYP) =  -1413.51549583     A.U. after   12 cycles
 SCF Done:  E(RB3LYP) =  -1413.51945593     A.U. after   12 cycles
 SCF Done:  E(RB3LYP) =  -1413.52142607     A.U. after   12 cycles
 SCF Done:  E(RB3LYP) =  -1413.52112396     A.U. after   12 cycles
 SCF Done:  E(RB3LYP) =  -1413.52348654     A.U. after   12 cycles
 SCF Done:  E(RB3LYP) =  -1413.52405710     A.U. after   12 cycles
 SCF Done:  E(RB3LYP) =  -1413.52439504     A.U. after   12 cycles
 SCF Done:  E(RB3LYP) =  -1413.52461706     A.U. after   11 cycles
 SCF Done:  E(RB3LYP) =  -1413.52587531     A.U. after   10 cycles
 SCF Done:  E(RB3LYP) =  -1413.52600906     A.U. after   10 cycles
 SCF Done:  E(RB3LYP) =  -1413.52605227     A.U. after   10 cycles
 SCF Done:  E(RB3LYP) =  -1413.52605447     A.U. after    9 cycles
 SCF Done:  E(RB3LYP) =  -1413.52606025     A.U. after    9 cycles
 SCF Done:  E(RB3LYP) =  -1413.52606058     A.U. after    8 cycles
 SCF Done:  E(RB3LYP) =  -1413.52606158     A.U. after    7 cycles
 SCF Done:  E(RB3LYP) =  -1413.52606265     A.U. after    9 cycles
 SCF Done:  E(RB3LYP) =  -1413.52606283     A.U. after    6 cycles
 Optimization completed.
    -- Stationary point found.
 Normal termination of Gaussian 16 at Mon May 29 19:07:29 2023.

 ----------------------------------------------------------------------
 #N Geom=AllCheck Guess=TCheck SCRF=Check GenChk RB3LYP/6-31G(2df,p) Fr
 eq
 ----------------------------------------------------------------------

 Structure from the checkpoint file:  "CCCCC1CSCOSCNdCqCNrC1.chk"
 -------------------
 Title Card Required
 -------------------
 Charge =  0 Multiplicity = 1

                         Standard orientation:
 ---------------------------------------------------------------------
 Center     Atomic      Atomic             Coordinates (Angstroms)
 Number     Number       Type             X           Y           Z
 ---------------------------------------------------------------------
      1          6           0       -5.824484   -0.542040   -1.435249
      2          6           0       -5.104629   -0.132265   -0.147785
      3          6           0       -3.582518   -0.039424   -0.311583
      4          6           0       -2.873878    0.378589    0.984133
      5          6           0       -1.328993    0.425848    0.944992
      6          6           0       -0.716320   -0.954760    0.611923
      7         16           0        0.757126   -1.305161    1.669075
      8          6           0        1.960014   -2.084719    0.542557
      9          8           0        2.966776   -1.200801    0.046603
     10         16           0        2.997851   -0.919928   -1.612012
     11          6           0        2.438285    0.816032   -1.707252
     12          7           0        1.057230    0.952470   -1.324638
     13          6           0        0.676734    1.527734   -0.250785
     14          6           0        1.464058    2.244593    0.843088
     15          7           0        2.871063    1.883808    0.977919
     16          6           0       -0.823470    1.534251   -0.017450
     17          1           0       -6.907285   -0.600256   -1.286827
     18          1           0       -5.483279   -1.522888   -1.784769
     19          1           0       -5.636972    0.177290   -2.240221
     20          1           0       -5.339666   -0.850426    0.649031
     21          1           0       -5.490643    0.836602    0.196250
     22          1           0       -3.356103    0.671869   -1.115447
     23          1           0       -3.200081   -1.011124   -0.651573
     24          1           0       -3.168820   -0.313271    1.784724
     25          1           0       -3.242627    1.367084    1.289876
     26          1           0       -1.011446    0.693516    1.960450
     27          1           0       -0.403658   -1.005508   -0.432650
     28          1           0       -1.437342   -1.752483    0.803013
     29          1           0        1.432596   -2.578080   -0.276889
     30          1           0        2.477406   -2.831549    1.151019
     31          1           0        2.530509    1.000808   -2.786815
     32          1           0        3.145729    1.443696   -1.163364
     33          1           0        0.885032    2.109998    1.772294
     34          1           0        1.400149    3.319791    0.613852
     35          1           0        2.952640    0.884503    1.150156
     36          1           0        3.265581    2.362043    1.781358
     37          1           0       -1.292282    1.402962   -0.994447
     38          1           0       -1.140127    2.506297    0.382651
 ---------------------------------------------------------------------

 SCF Done:  E(RB3LYP) =  -1413.52606283     A.U. after    1 cycles

 The electronic state is 1-A.
 Alpha  occ. eigenvalues --  -88.90590 -88.86938 -19.17285 -14.31407 -14.30868
 Alpha  occ. eigenvalues --  -10.26309 -10.23036 -10.22220 -10.21624 -10.20991
 Alpha  occ. eigenvalues --  -10.20045 -10.18453 -10.18392 -10.18105 -10.18025
 Alpha  occ. eigenvalues --  -10.17330  -7.96298  -7.93288  -5.93049  -5.92409
 Alpha  occ. eigenvalues --   -5.91683  -5.89753  -5.89400  -5.88854  -1.04036
 Alpha  occ. eigenvalues --   -0.92261  -0.87397  -0.83106  -0.79415  -0.77045
 Alpha  occ. eigenvalues --   -0.76663  -0.72192  -0.69021  -0.67820  -0.65437
 Alpha  occ. eigenvalues --   -0.62396  -0.59197  -0.58741  -0.55619  -0.53097
 Alpha  occ. eigenvalues --   -0.49867  -0.48701  -0.48132  -0.47478  -0.46739
 Alpha  occ. eigenvalues --   -0.45830  -0.44389  -0.43842  -0.43215  -0.42483
 Alpha  occ. eigenvalues --   -0.42219  -0.40635  -0.40188  -0.39794  -0.38811
 Alpha  occ. eigenvalues --   -0.37302  -0.36600  -0.35390  -0.34569  -0.34456
 Alpha  occ. eigenvalues --   -0.33927  -0.32450  -0.32289  -0.31933  -0.30404
 Alpha  occ. eigenvalues --   -0.29071  -0.27011  -0.25273  -0.23906  -0.22335
 Alpha  occ. eigenvalues --   -0.21364
 Alpha virt. eigenvalues --   -0.00927  -0.00095   0.03097   0.05656   0.08097
 Alpha virt. eigenvalues --    0.08561   0.08918   0.10238   0.10800   0.11579
 Alpha virt. eigenvalues --    0.12271   0.12605   0.13709   0.13963   0.14319

 Mulliken charges:
               1
     1  C   -0.382602
     2  C   -0.158846
     3  C   -0.161392
     4  C   -0.219666
     5  C    0.001860
     6  C   -0.221961
     7  S   -0.165898
     8  C   -0.072569
     9  O   -0.258839
    10  S    0.007581
    11  C   -0.186254
    12  N   -0.247291
    13  C    0.291657
    14  C   -0.224267
    15  N   -0.524759
    16  C   -0.272653
    17  H    0.111788
    18  H    0.114456
    19  H    0.114777
    20  H    0.094432
    21  H    0.094521
    22  H    0.101662
    23  H    0.095667
    24  H    0.095068
    25  H    0.093149
    26  H    0.089453
    27  H    0.157008
    28  H    0.123467
    29  H    0.143297
    30  H    0.140237
    31  H    0.127810
    32  H    0.168574
    33  H    0.102969
    34  H    0.121711
    35  H    0.259064
    36  H    0.229128
    37  H    0.120041
    38  H    0.097620
 Sum of Mulliken charges =  -0.00000

 Dipole moment (field-independent basis, Debye):
    X=             -1.9580    Y=              1.0881    Z=              1.0881  Tot=              2.4903
 Quadrupole moment (field-independent basis, Debye-Ang):
   XX=           -116.8383   YY=           -106.7779   ZZ=           -114.5733
   XY=              1.3810   XZ=              2.4664   YZ=              2.7051

  Exact polarizability: 204.607  -8.276 160.454 -10.534   2.758 159.533
 Approx polarizability: 264.736 -18.522 251.269 -18.787   7.293 266.023

                      1                      2                      3
                      A                      A                      A
 Frequencies --     27.3928                50.3300                56.3962
 Red. masses --      5.5908                 3.5300                 1.6008
 Frc consts  --      0.0025                 0.0053                 0.0030
 IR Inten    --      0.5084                 0.1889                 0.1200

                      4                      5                      6
                      A                      A                      A
 Frequencies --     65.7586                92.4505                95.8993
 Red. masses --      5.1678                 3.5892                 3.8965
 Frc consts  --      0.0132                 0.0181                 0.0211
 IR Inten    --      0.9375                 3.0071                 3.8322

                      7                      8                      9
                      A                      A                      A
 Frequencies --    114.4125               133.0303               137.7354
 Red. masses --      4.2538                 3.0565                 2.7456
 Frc consts  --      0.0328                 0.0319                 0.0307
 IR Inten    --      0.7054                 0.6970                 0.9247

                     10                     11                     12
                      A                      A                      A
 Frequencies --    159.4376               197.4618               217.8980
 Red. masses --      3.1532                 3.6173                 2.8911
 Frc consts  --      0.0472                 0.0831                 0.0809
 IR Inten    --      1.3053                 0.9154                 0.3070

                     13                     14                     15
                      A                      A                      A
 Frequencies --    228.1908               245.1299               249.5945
 Red. masses --      5.0242                 1.3717                 2.8466
 Frc consts  --      0.1541                 0.0486                 0.1045
 IR Inten    --      0.5376                 0.3211                 1.3043

                     16                     17                     18
                      A                      A                      A
 Frequencies --    300.0400               319.9439               330.6551
 Red. masses --      3.2967                 3.3103                 3.2205
 Frc consts  --      0.1749                 0.1996                 0.2075
 IR Inten    --      1.6913                 9.6693                 2.2205

                     19                     20                     21
                      A                      A                      A
 Frequencies --    338.1283               351.9504               366.7740
 Red. masses --      2.1781                 1.4970                 3.3031
 Frc consts  --      0.1467                 0.1093                 0.2618
 IR Inten    --     31.9462                31.3964                 4.8561

                     22                     23                     24
                      A                      A                      A
 Frequencies --    374.3157               385.5188               425.5205
 Red. masses --      2.2825                 3.1587                 2.9212
 Frc consts  --      0.1884                 0.2766                 0.3116
 IR Inten    --      3.6941                 2.5786                 1.9031

                     25                     26                     27
                      A                      A                      A
 Frequencies --    446.1646               534.9537               567.6302
 Red. masses --      3.3946                 3.8261                 3.1690
 Frc consts  --      0.3981                 0.6451                 0.6016
 IR Inten    --      4.0749                 1.5436                 3.2631

                     28                     29                     30
                      A                      A                      A
 Frequencies --    657.3779               670.8115               693.1269
 Red. masses --      3.4881                 4.8367                 4.3333
 Frc consts  --      0.8881                 1.2823                 1.2266
 IR Inten    --     12.7228                18.1454                29.7363

                     31                     32                     33
                      A                      A                      A
 Frequencies --    716.1365               731.0758               739.5697
 Red. masses --      6.3756                 1.3385                 2.2554
 Frc consts  --      1.9265                 0.4215                 0.7268
 IR Inten    --      4.2935                 7.2284                12.0553

                     34                     35                     36
                      A                      A                      A
 Frequencies --    778.9703               792.6491               836.5716
 Red. masses --      3.0292                 1.2606                 2.5622
 Frc consts  --      1.0830                 0.4666                 1.0565
 IR Inten    --      1.7511                 0.3846                 9.2276

                     37                     38                     39
                      A                      A                      A
 Frequencies --    857.8962               881.2265               906.7537
 Red. masses --      1.6671                 1.5072                 1.8142
 Frc consts  --      0.7229                 0.6896                 0.8788
 IR Inten    --      2.5454                46.8003                 5.3319

                     40                     41                     42
                      A                      A                      A
 Frequencies --    919.9105               923.3903               942.3512
 Red. masses --      1.8150                 1.4724                 2.2256
 Frc consts  --      0.9049                 0.7397                 1.1644
 IR Inten    --      3.9305                 3.2628                36.0003

                     43                     44                     45
                      A                      A                      A
 Frequencies --    948.9152               979.3141               999.8311
 Red. masses --      2.0873                 3.8793                 2.5018
 Frc consts  --      1.1073                 2.1921                 1.4735
 IR Inten    --     38.2369               126.2701                33.6386

                     46                     47                     48
                      A                      A                      A
 Frequencies --   1011.1294              1023.5557              1054.4833
 Red. masses --      2.3426                 1.9856                 2.6345
 Frc consts  --      1.4111                 1.2256                 1.7260
 IR Inten    --     23.3014                 1.9491                 3.4639

                     49                     50                     51
                      A                      A                      A
 Frequencies --   1072.4465              1093.5818              1101.8367
 Red. masses --      2.3295                 2.1437                 2.7227
 Frc consts  --      1.5786                 1.5105                 1.9475
 IR Inten    --      5.7588                 0.7570                 9.2715

                     52                     53                     54
                      A                      A                      A
 Frequencies --   1119.3248              1136.5309              1167.4970
 Red. masses --      2.1982                 1.3303                 1.9662
 Frc consts  --      1.6227                 1.0124                 1.5790
 IR Inten    --      3.7677                 2.9978                 3.6616

                     55                     56                     57
                      A                      A                      A
 Frequencies --   1192.2813              1215.7581              1233.1472
 Red. masses --      1.3553                 1.6095                 1.2528
 Frc consts  --      1.1351                 1.4016                 1.1224
 IR Inten    --      0.3709                 4.8705                 3.1211

                     58                     59                     60
                      A                      A                      A
 Frequencies --   1249.5517              1254.1528              1266.1199
 Red. masses --      1.3018                 1.2576                 1.2630
 Frc consts  --      1.1975                 1.1654                 1.1929
 IR Inten    --      0.8298                 1.1863                 3.8884

                     61                     62                     63
                      A                      A                      A
 Frequencies --   1274.1702              1288.9236              1304.5273
 Red. masses --      1.2004                 1.2627                 1.2284
 Frc consts  --      1.1482                 1.2359                 1.2317
 IR Inten    --      4.5938                24.7277                 4.3948

                     64                     65                     66
                      A                      A                      A
 Frequencies --   1307.1161              1322.2062              1333.0249
 Red. masses --      1.2427                 1.1599                 1.1915
 Frc consts  --      1.2509                 1.1947                 1.2475
 IR Inten    --      8.5624                 7.2436                 7.0444

                     67                     68                     69
                      A                      A                      A
 Frequencies --   1333.9031              1339.9955              1357.3400
 Red. masses --      1.1900                 1.0977                 1.4061
 Frc consts  --      1.2475                 1.1613                 1.5264
 IR Inten    --     13.2302                 2.4516                 5.8940

                     70                     71                     72
                      A                      A                      A
 Frequencies --   1380.0567              1387.6933              1405.3647
 Red. masses --      1.3247                 1.3823                 1.4644
 Frc consts  --      1.4865                 1.5684                 1.7041
 IR Inten    --      3.7290                 0.7489                 9.3557

                     73                     74                     75
                      A                      A                      A
 Frequencies --   1414.6608              1431.9981              1447.6781
 Red. masses --      1.2567                 1.3947                 1.0729
 Frc consts  --      1.4818                 1.6850                 1.3249
 IR Inten    --      2.3917                 0.9035                 4.5847

                     76                     77                     78
                      A                      A                      A
 Frequencies --   1462.7048              1468.2949              1478.7510
 Red. masses --      1.1216                 1.0868                 1.1026
 Frc consts  --      1.4139                 1.3805                 1.4205
 IR Inten    --      2.3508                 7.4491                 1.4760

                     79                     80                     81
                      A                      A                      A
 Frequencies --   1482.7100              1484.7761              1486.2851
 Red. masses --      1.0834                 1.0874                 1.0718
 Frc consts  --      1.4033                 1.4125                 1.3950
 IR Inten    --      2.4890                 7.9585                 5.5311

                     82                     83                     84
                      A                      A                      A
 Frequencies --   1498.7395              1499.9171              1512.3934
 Red. masses --      1.0702                 1.0404                 1.0884
 Frc consts  --      1.4164                 1.3791                 1.4668
 IR Inten    --      0.0813                 5.3792                 2.3785

                     85                     86                     87
                      A                      A                      A
 Frequencies --   1663.6957              1725.2868              2953.3605
 Red. masses --      1.1062                 7.5886                 1.0702
 Frc consts  --      1.8039                13.3087                 5.4996
 IR Inten    --     23.6887                76.6742                51.6548

                     88                     89                     90
                      A                      A                      A
 Frequencies --   2999.4045              3003.1419              3010.3713
 Red. masses --      1.0868                 1.0629                 1.0585
 Frc consts  --      5.7607                 5.6481                 5.6519
 IR Inten    --     18.3769                 6.3475                 5.4007

                     91                     92                     93
                      A                      A                      A
 Frequencies --   3013.8143              3018.4103              3021.8502
 Red. masses --      1.0643                 1.0743                 1.0642
 Frc consts  --      5.6956                 5.7668                 5.7254
 IR Inten    --     27.0593                15.2367                47.0725

                     94                     95                     96
                      A                      A                      A
 Frequencies --   3027.5233              3029.2465              3033.3524
 Red. masses --      1.0681                 1.0384                 1.0948
 Frc consts  --      5.7681                 5.6141                 5.9349
 IR Inten    --     44.0929                38.0295                 9.1440

                     97                     98                     99
                      A                      A                      A
 Frequencies --   3040.2471              3053.7589              3062.3309
 Red. masses --      1.1025                 1.0545                 1.0712
 Frc consts  --      6.0041                 5.7940                 5.9185
 IR Inten    --      1.5870                22.5972                20.6724

                    100                    101                    102
                      A                      A                      A
 Frequencies --   3068.1270              3095.5469              3101.1808
 Red. masses --      1.0913                 1.1021                 1.1010
 Frc consts  --      6.0528                 6.2221                 6.2386
 IR Inten    --     52.4261                56.3118                40.2598

                    103                    104                    105
                      A                      A                      A
 Frequencies --   3111.7974              3112.7030              3119.9447
 Red. masses --      1.0970                 1.0952                 1.1110
 Frc consts  --      6.2589                 6.2522                 6.3717
 IR Inten    --      3.6455                16.8289                 4.5954

                    106                    107                    108
                      A                      A                      A
 Frequencies --   3126.5152              3484.1573              3569.8581
 Red. masses --      1.1065                 1.0497                 1.0929
 Frc consts  --      6.3728                 7.5079                 8.2061
 IR Inten    --      1.8960                12.6232                 9.7766

 - Thermochemistry -
 -------------------
 Temperature   298.150 Kelvin.  Pressure   1.00000 Atm.
 Atom     1 has atomic number  6 and mass  12.00000

 Molecular mass:   262.11736 amu.
 Principal axes and moments of inertia in atomic units:
                           1         2         3
     Eigenvalues --  2766.096638386.167258643.97678
           X            0.99983   0.01019   0.01554
           Y           -0.01185   0.99375   0.11099
           Z           -0.01432  -0.11116   0.99370
 This molecule is an asymmetric top.
 Rotational symmetry number  1.
 Warning -- assumption of classical behavior for rotation
           may cause significant error
 Rotational temperatures (Kelvin)      0.03131     0.01033     0.01002
 Rotational constants (GHZ):           0.65245     0.21520     0.20879
 Zero-point vibrational energy     862081.9 (Joules/Mol)
                                  206.04253 (Kcal/Mol)
 Warning -- explicit consideration of  27 degrees of freedom as
           vibrations may cause significant error
 Vibrational temperatures:     39.41    72.41    81.14    94.61   133.02
          (Kelvin)            137.98   164.61   191.40   198.17   229.40
                              284.10   313.51   328.32   352.69   359.11
                              431.69   460.33   475.74   486.49   506.38
                              527.71   538.56   554.68   612.23   641.93
                              769.68   816.69   945.82   965.15   997.25
                             1030.36  1051.86  1064.08  1120.76  1140.45
                             1203.64  1234.32  1267.89  1304.62  1323.55
                             1328.55  1355.83  1365.28  1409.01  1438.53
                             1454.79  1472.67  1517.17  1543.01  1573.42
                             1585.30  1610.46  1635.21  1679.77  1715.43
                             1749.20  1774.22  1797.83  1804.45  1821.66
                             1833.25  1854.47  1876.92  1880.65  1902.36
                             1917.93  1919.19  1927.95  1952.91  1985.59
                             1996.58  2022.01  2035.38  2060.33  2082.89
                             2104.51  2112.55  2127.59  2133.29  2136.26
                             2138.43  2156.35  2158.05  2176.00  2393.69
                             2482.30  4249.23  4315.47  4320.85  4331.25
                             4336.21  4342.82  4347.77  4355.93  4358.41
                             4364.32  4374.24  4393.68  4406.01  4414.35
                             4453.80  4461.91  4477.18  4478.49  4488.90
                             4498.36  5012.93  5136.23

 Zero-point correction=                           0.328350 (Hartree/Particle)
 Thermal correction to Energy=                    0.347017
 Thermal correction to Enthalpy=                  0.347961
 Thermal correction to Gibbs Free Energy=         0.280851
 Sum of electronic and zero-point Energies=          -1413.197713
 Sum of electronic and thermal Energies=             -1413.179046
 Sum of electronic and thermal Enthalpies=           -1413.178102
 Sum of electronic and thermal Free Energies=        -1413.245211

                     E (Thermal)             CV                S
                      KCal/Mol        Cal/Mol-Kelvin    Cal/Mol-Kelvin
 Total                  217.756             69.644            141.244
 Electronic               0.000              0.000              0.000
 Translational            0.889              2.981             42.590
 Rotational               0.889              2.981             33.661
 Vibrational            215.979             63.683             64.994
 Vibration     1          0.593              1.984              6.010
 Vibration     2          0.595              1.977              4.804
 Vibration     3          0.596              1.975              4.579
 Vibration     4          0.597              1.971              4.276
 Vibration     5          0.602              1.955              3.608
 Vibration     6          0.603              1.952              3.536
 Vibration     7          0.607              1.937              3.193
 Vibration     8          0.613              1.920              2.902
 Vibration     9          0.614              1.916              2.835
 Vibration    10          0.621              1.892              2.556
 Vibration    11          0.637              1.843              2.157
 Vibration    12          0.646              1.814              1.976
 Vibration    13          0.651              1.798              1.893
 Vibration    14          0.660              1.771              1.765
 Vibration    15          0.662              1.763              1.733
 Vibration    16          0.693              1.674              1.417
 Vibration    17          0.706              1.635              1.310
 Vibration    18          0.713              1.614              1.257
 Vibration    19          0.718              1.599              1.221
 Vibration    20          0.728              1.571              1.157
 Vibration    21          0.740              1.541              1.093
 Vibration    22          0.745              1.525              1.062
 Vibration    23          0.754              1.501              1.017
 Vibration    24          0.787              1.415              0.873
 Vibration    25          0.805              1.369              0.807
 Vibration    26          0.890              1.173              0.576
 Vibration    27          0.924              1.101              0.509

                           ! Non-Optimized Parameters !
 Normal termination of Gaussian 16 at Mon May 29 22:49:01 2023.
