 Gaussian 16, Revision A.03,
 Gaussian 16:  ES64L-G16RevA.03 25-Dec-2016

 -----------------------------
 # opt freq b3lyp/6-31g(2df,p)
 -----------------------------

 -------------------
 Title Card Required
 -------------------
 Symbolic Z-matrix:
 Charge =  0 Multiplicity = 1

 SCF Done:  E(RB3LYP) =  -587.511258156     A.U. after   12 cycles
 SCF Done:  E(RB3LYP) =  -587.528241322     A.U. after   11 cycles
 SCF Done:  E(RB3LYP) =  -587.532067788     A.U. after   10 cycles
 SCF Done:  E(RB3LYP) =  -587.534223056     A.U. after   11 cycles
 SCF Done:  E(RB3LYP) =  -587.534856420     A.U. after   10 cycles
 SCF Done:  E(RB3LYP) =  -587.535116976     A.U. after   10 cycles
 SCF Done:  E(RB3LYP) =  -587.535275464     A.U. after   10 cycles
 SCF Done:  E(RB3LYP) =  -587.535391063     A.U. after   10 cycles
 SCF Done:  E(RB3LYP) =  -587.535674712     A.U. after   10 cycles
 SCF Done:  E(RB3LYP) =  -587.509259230     A.U. after   11 cycles
 SCF Done:  E(RB3LYP) =  -587.536699189     A.U. after    9 cycles
 SCF Done:  E(RB3LYP) =  -587.536729352     A.U. after    9 cycles
 SCF Done:  E(RB3LYP) =  -587.536748416     A.U. after    9 cycles
 SCF Done:  E(RB3LYP) =  -587.536772512     A.U. after    8 cycles
 SCF Done:  E(RB3LYP) =  -587.536780327     A.U. after    8 cycles
 SCF Done:  E(RB3LYP) =  -587.536785284     A.U. after    8 cycles
 SCF Done:  E(RB3LYP) =  -587.536786798     A.U. after    7 cycles
 SCF Done:  E(RB3LYP) =  -587.536787017     A.U. after    6 cycles
 SCF Done:  E(RB3LYP) =  -587.536787030     A.U. after    5 cycles
 Optimization completed.
    -- Stationary point found.
 Normal termination of Gaussian 16 at Wed May 24 01:49:28 2023.

 ----------------------------------------------------------------------
 #N Geom=AllCheck Guess=TCheck SCRF=Check GenChk RB3LYP/6-31G(2df,p) Fr
 eq
 ----------------------------------------------------------------------

 Structure from the checkpoint file:  "CCCCqCrCCqCrCCCqOrCC.chk"
 -------------------
 Title Card Required
 -------------------
 Charge =  0 Multiplicity = 1

                         Standard orientation:
 ---------------------------------------------------------------------
 Center     Atomic      Atomic             Coordinates (Angstroms)
 Number     Number       Type             X           Y           Z
 ---------------------------------------------------------------------
      1          6           0       -5.949065   -1.756679    0.237694
      2          6           0       -4.885707   -0.941005   -0.504262
      3          6           0       -3.732727   -0.503129    0.407580
      4          6           0       -2.575805    0.236199   -0.292886
      5          6           0       -3.030252    1.578246   -0.884935
      6          6           0       -1.386210    0.386031    0.678708
      7          6           0       -0.082143    0.970320    0.072749
      8          6           0        0.085497    2.460085    0.413988
      9          6           0        1.137823    0.141881    0.521458
     10          6           0        2.473653    0.544150   -0.113635
     11          6           0        3.610273   -0.439297    0.198065
     12          8           0        3.293557   -1.761987   -0.241667
     13          6           0        4.958149    0.026857   -0.367776
     14          6           0        6.118491   -0.905459   -0.012082
     15          1           0       -6.760717   -2.059655   -0.431374
     16          1           0       -6.391496   -1.177858    1.056293
     17          1           0       -5.519101   -2.665624    0.673263
     18          1           0       -5.361289   -0.064782   -0.960310
     19          1           0       -4.482735   -1.535865   -1.335155
     20          1           0       -3.326399   -1.395452    0.903323
     21          1           0       -4.129088    0.132457    1.213294
     22          1           0       -2.235355   -0.398766   -1.125853
     23          1           0       -3.377978    2.255897   -0.095304
     24          1           0       -3.851803    1.447399   -1.595054
     25          1           0       -2.219164    2.078879   -1.421205
     26          1           0       -1.171826   -0.608249    1.089536
     27          1           0       -1.699091    0.999208    1.535787
     28          1           0       -0.147142    0.879303   -1.021994
     29          1           0        0.248572    2.590301    1.491051
     30          1           0       -0.803902    3.036782    0.145853
     31          1           0        0.937082    2.907687   -0.107573
     32          1           0        0.957357   -0.913284    0.288092
     33          1           0        1.226493    0.199761    1.616372
     34          1           0        2.777721    1.543304    0.219956
     35          1           0        2.359534    0.609678   -1.207557
     36          1           0        3.702236   -0.538752    1.288484
     37          1           0        3.200872   -1.730729   -1.201020
     38          1           0        5.162421    1.041106   -0.002315
     39          1           0        4.866747    0.111464   -1.461143
     40          1           0        6.278656   -0.936911    1.071399
     41          1           0        7.051723   -0.575154   -0.478110
     42          1           0        5.907358   -1.925451   -0.343394
 ---------------------------------------------------------------------

 SCF Done:  E(RB3LYP) =  -587.536787030     A.U. after    1 cycles

 The electronic state is 1-A.
 Alpha  occ. eigenvalues --  -19.13090 -10.22467 -10.17972 -10.17963 -10.17809
 Alpha  occ. eigenvalues --  -10.17497 -10.17403 -10.17009 -10.16906 -10.16861
 Alpha  occ. eigenvalues --  -10.16795 -10.16778 -10.16684 -10.16652  -1.01175
 Alpha  occ. eigenvalues --   -0.81840  -0.79508  -0.77572  -0.75183  -0.72747
 Alpha  occ. eigenvalues --   -0.67866  -0.66784  -0.66273  -0.61125  -0.58975
 Alpha  occ. eigenvalues --   -0.58303  -0.55203  -0.55028  -0.47604  -0.46692
 Alpha  occ. eigenvalues --   -0.46033  -0.45753  -0.44325  -0.43871  -0.43194
 Alpha  occ. eigenvalues --   -0.41956  -0.40380  -0.40218  -0.39404  -0.38546
 Alpha  occ. eigenvalues --   -0.38038  -0.36896  -0.36541  -0.35898  -0.35312
 Alpha  occ. eigenvalues --   -0.34765  -0.34031  -0.33505  -0.33258  -0.32552
 Alpha  occ. eigenvalues --   -0.31755  -0.31525  -0.30948  -0.30528  -0.30176
 Alpha  occ. eigenvalues --   -0.28802  -0.26048
 Alpha virt. eigenvalues --    0.07185   0.08567   0.10351   0.10512   0.11495
 Alpha virt. eigenvalues --    0.11738   0.12169   0.12976   0.13530   0.14044
 Alpha virt. eigenvalues --    0.14235   0.14735   0.15380   0.15848   0.16534

 Mulliken charges:
               1
     1  C   -0.377575
     2  C   -0.177378
     3  C   -0.159875
     4  C    0.028531
     5  C   -0.388449
     6  C   -0.211209
     7  C    0.030591
     8  C   -0.395180
     9  C   -0.189696
    10  C   -0.219179
    11  C    0.137645
    12  O   -0.427836
    13  C   -0.186199
    14  C   -0.380374
    15  H    0.108813
    16  H    0.112663
    17  H    0.112757
    18  H    0.097361
    19  H    0.091788
    20  H    0.087553
    21  H    0.087265
    22  H    0.064668
    23  H    0.108650
    24  H    0.110984
    25  H    0.115297
    26  H    0.088376
    27  H    0.085383
    28  H    0.062841
    29  H    0.109093
    30  H    0.113465
    31  H    0.109760
    32  H    0.104802
    33  H    0.088254
    34  H    0.096784
    35  H    0.078516
    36  H    0.083146
    37  H    0.274147
    38  H    0.094815
    39  H    0.082463
    40  H    0.113187
    41  H    0.107027
    42  H    0.126324
 Sum of Mulliken charges =  -0.00000

 Dipole moment (field-independent basis, Debye):
    X=              0.1058    Y=              0.9740    Z=             -0.9421  Tot=              1.3592
 Quadrupole moment (field-independent basis, Debye-Ang):
   XX=            -93.0369   YY=            -96.4044   ZZ=            -89.9512
   XY=              3.5305   XZ=             -2.3809   YZ=              2.5424

  Exact polarizability: 184.556   3.575 137.985   0.622  -0.332 126.766
 Approx polarizability: 203.053   1.075 200.623   0.454   1.927 202.465

                      1                      2                      3
                      A                      A                      A
 Frequencies --     22.8402                34.5723                41.4446
 Red. masses --      3.5454                 3.0203                 2.6887
 Frc consts  --      0.0011                 0.0021                 0.0027
 IR Inten    --      0.0296                 0.9017                 0.0503

                      4                      5                      6
                      A                      A                      A
 Frequencies --     64.5517                71.7131                86.0639
 Red. masses --      1.9745                 2.3290                 2.9173
 Frc consts  --      0.0048                 0.0071                 0.0127
 IR Inten    --      0.0250                 0.0193                 0.5174

                      7                      8                      9
                      A                      A                      A
 Frequencies --    104.5082               117.9595               130.9322
 Red. masses --      2.7480                 2.2061                 2.3022
 Frc consts  --      0.0177                 0.0181                 0.0233
 IR Inten    --      0.0708                 0.0656                 0.2040

                     10                     11                     12
                      A                      A                      A
 Frequencies --    152.4730               190.7283               217.6067
 Red. masses --      2.0114                 2.9658                 1.9046
 Frc consts  --      0.0276                 0.0636                 0.0531
 IR Inten    --      0.1999                 0.0043                 0.7164

                     13                     14                     15
                      A                      A                      A
 Frequencies --    227.3527               243.8246               247.0350
 Red. masses --      1.3194                 1.1870                 1.2214
 Frc consts  --      0.0402                 0.0416                 0.0439
 IR Inten    --      0.0952                 0.2841                 0.3923

                     16                     17                     18
                      A                      A                      A
 Frequencies --    262.1540               273.4679               287.5942
 Red. masses --      1.3950                 2.4023                 2.0430
 Frc consts  --      0.0565                 0.1058                 0.0996
 IR Inten    --      0.0126                 0.8414                 2.3837

                     19                     20                     21
                      A                      A                      A
 Frequencies --    305.1996               317.9418               349.5082
 Red. masses --      1.1289                 2.4977                 2.5857
 Frc consts  --      0.0620                 0.1488                 0.1861
 IR Inten    --     98.4902                30.0490                 2.4259

                     22                     23                     24
                      A                      A                      A
 Frequencies --    402.9444               418.1326               433.3650
 Red. masses --      2.0824                 2.2201                 2.2994
 Frc consts  --      0.1992                 0.2287                 0.2544
 IR Inten    --      0.5634                 0.1391                 1.7720

                     25                     26                     27
                      A                      A                      A
 Frequencies --    462.6536               492.5006               533.5599
 Red. masses --      2.1425                 2.6406                 2.5678
 Frc consts  --      0.2702                 0.3774                 0.4307
 IR Inten    --      2.2231                 9.3735                 1.4576

                     28                     29                     30
                      A                      A                      A
 Frequencies --    562.9472               742.5523               763.6520
 Red. masses --      2.5637                 1.1152                 1.2618
 Frc consts  --      0.4787                 0.3623                 0.4335
 IR Inten    --      8.0223                 2.1346                 0.1106

                     31                     32                     33
                      A                      A                      A
 Frequencies --    779.9718               827.6687               854.4643
 Red. masses --      1.4248                 2.5284                 1.7699
 Frc consts  --      0.5107                 1.0205                 0.7613
 IR Inten    --      0.8353                 1.0683                 1.4531

                     34                     35                     36
                      A                      A                      A
 Frequencies --    857.0030               870.6984               887.1332
 Red. masses --      1.5705                 1.9761                 1.3222
 Frc consts  --      0.6796                 0.8827                 0.6131
 IR Inten    --      1.5254                10.5445                 1.4611

                     37                     38                     39
                      A                      A                      A
 Frequencies --    899.7662               930.6111               947.4920
 Red. masses --      2.1909                 1.4608                 1.9818
 Frc consts  --      1.0450                 0.7454                 1.0482
 IR Inten    --      3.7788                 2.3195                 0.1731

                     40                     41                     42
                      A                      A                      A
 Frequencies --    970.7305               982.9988              1007.5469
 Red. masses --      1.8766                 1.7512                 1.4019
 Frc consts  --      1.0419                 0.9970                 0.8385
 IR Inten    --     19.4477                10.3875                 1.8514

                     43                     44                     45
                      A                      A                      A
 Frequencies --   1016.4011              1028.4084              1044.3849
 Red. masses --      1.9322                 1.7977                 2.6767
 Frc consts  --      1.1761                 1.1202                 1.7202
 IR Inten    --      2.4894                 3.7698                 0.7581

                     46                     47                     48
                      A                      A                      A
 Frequencies --   1062.7029              1068.5620              1082.8435
 Red. masses --      1.8781                 2.5743                 2.3902
 Frc consts  --      1.2497                 1.7319                 1.6512
 IR Inten    --      1.7423                 6.1445                 0.4340

                     49                     50                     51
                      A                      A                      A
 Frequencies --   1085.7082              1106.9453              1132.9315
 Red. masses --      1.8477                 1.4402                 1.9990
 Frc consts  --      1.2832                 1.0398                 1.5117
 IR Inten    --     17.8402                20.9989                19.1467

                     52                     53                     54
                      A                      A                      A
 Frequencies --   1133.9067              1160.9488              1174.8652
 Red. masses --      1.8449                 2.8169                 1.9722
 Frc consts  --      1.3976                 2.2369                 1.6039
 IR Inten    --     11.2037                 6.2604                 4.7011

                     55                     56                     57
                      A                      A                      A
 Frequencies --   1190.5864              1206.8871              1246.2093
 Red. masses --      1.8966                 1.7088                 1.3847
 Frc consts  --      1.5839                 1.4665                 1.2670
 IR Inten    --      9.2977                 7.0553                 3.3210

                     58                     59                     60
                      A                      A                      A
 Frequencies --   1261.2138              1270.2866              1279.2216
 Red. masses --      1.3152                 1.2451                 1.2886
 Frc consts  --      1.2326                 1.1837                 1.2424
 IR Inten    --      4.3431                 4.7134                 0.8726

                     61                     62                     63
                      A                      A                      A
 Frequencies --   1292.7318              1306.1877              1314.0074
 Red. masses --      1.1844                 1.2522                 1.1957
 Frc consts  --      1.1662                 1.2587                 1.2164
 IR Inten    --      0.0486                 3.7212                 3.8152

                     64                     65                     66
                      A                      A                      A
 Frequencies --   1330.5428              1338.4096              1355.0814
 Red. masses --      1.1112                 1.3055                 1.3553
 Frc consts  --      1.1591                 1.3778                 1.4663
 IR Inten    --      0.9748                 0.3602                 0.2055

                     67                     68                     69
                      A                      A                      A
 Frequencies --   1365.7612              1368.1971              1381.5031
 Red. masses --      1.3048                 1.3393                 1.4363
 Frc consts  --      1.4340                 1.4771                 1.6151
 IR Inten    --      2.2650                 4.3843                 2.0555

                     70                     71                     72
                      A                      A                      A
 Frequencies --   1385.1176              1389.7557              1394.1140
 Red. masses --      1.4059                 1.4780                 1.5460
 Frc consts  --      1.5892                 1.6819                 1.7704
 IR Inten    --      0.3451                 2.6700                 2.2540

                     73                     74                     75
                      A                      A                      A
 Frequencies --   1397.3785              1406.0223              1410.3914
 Red. masses --      1.4213                 1.2293                 1.2411
 Frc consts  --      1.6352                 1.4318                 1.4546
 IR Inten    --      0.6572                10.5417                 4.4781

                     76                     77                     78
                      A                      A                      A
 Frequencies --   1412.7748              1416.6049              1421.7485
 Red. masses --      1.2501                 1.2957                 1.2132
 Frc consts  --      1.4700                 1.5320                 1.4448
 IR Inten    --      6.4697                 3.1833                25.4452

                     79                     80                     81
                      A                      A                      A
 Frequencies --   1472.3790              1476.3803              1483.2955
 Red. masses --      1.0811                 1.0770                 1.0786
 Frc consts  --      1.3809                 1.3831                 1.3982
 IR Inten    --      0.2027                 0.0873                 2.6994

                     82                     83                     84
                      A                      A                      A
 Frequencies --   1489.0336              1494.0088              1495.5251
 Red. masses --      1.0730                 1.0679                 1.0516
 Frc consts  --      1.4018                 1.4044                 1.3857
 IR Inten    --      0.1940                 1.2903                 0.4482

                     85                     86                     87
                      A                      A                      A
 Frequencies --   1495.7753              1497.0594              1499.9048
 Red. masses --      1.0474                 1.0695                 1.0420
 Frc consts  --      1.3808                 1.4122                 1.3811
 IR Inten    --      5.1457                 1.3304                 4.9045

                     88                     89                     90
                      A                      A                      A
 Frequencies --   1501.3299              1506.7036              1509.0422
 Red. masses --      1.0755                 1.0474                 1.0693
 Frc consts  --      1.4283                 1.4010                 1.4347
 IR Inten    --      2.3585                 5.1514                 0.1809

                     91                     92                     93
                      A                      A                      A
 Frequencies --   1509.5069              1513.9441              2977.1216
 Red. masses --      1.0609                 1.0598                 1.0809
 Frc consts  --      1.4243                 1.4311                 5.6447
 IR Inten    --      4.2772                 7.8097                 4.5452

                     94                     95                     96
                      A                      A                      A
 Frequencies --   2982.9695              2984.5480              2995.6017
 Red. masses --      1.0724                 1.0754                 1.0596
 Frc consts  --      5.6221                 5.6439                 5.6020
 IR Inten    --      3.1871                12.0122                 6.6875

                     97                     98                     99
                      A                      A                      A
 Frequencies --   2996.9142              3003.2990              3009.5080
 Red. masses --      1.0676                 1.0641                 1.0655
 Frc consts  --      5.6495                 5.6547                 5.6860
 IR Inten    --     17.6293                 0.2769                42.4448

                    100                    101                    102
                      A                      A                      A
 Frequencies --   3016.6382              3022.1816              3027.0920
 Red. masses --      1.0648                 1.0793                 1.0415
 Frc consts  --      5.7091                 5.8084                 5.6228
 IR Inten    --     42.9403                59.8450                 7.3117

                    103                    104                    105
                      A                      A                      A
 Frequencies --   3027.4862              3028.4119              3029.0491
 Red. masses --      1.0361                 1.0842                 1.0499
 Frc consts  --      5.5952                 5.8587                 5.6754
 IR Inten    --     42.4895                24.0733                15.3412

                    106                    107                    108
                      A                      A                      A
 Frequencies --   3036.2493              3044.5558              3045.6882
 Red. masses --      1.0402                 1.0922                 1.0972
 Frc consts  --      5.6501                 5.9650                 5.9968
 IR Inten    --     32.5063                 8.7383                19.3034

                    109                    110                    111
                      A                      A                      A
 Frequencies --   3055.5558              3058.3474              3073.7300
 Red. masses --      1.0922                 1.1003                 1.0964
 Frc consts  --      6.0079                 6.0638                 6.1032
 IR Inten    --     21.5298                39.5349                62.0675

                    112                    113                    114
                      A                      A                      A
 Frequencies --   3092.8981              3094.3700              3096.4875
 Red. masses --      1.0971                 1.1017                 1.0968
 Frc consts  --      6.1833                 6.2155                 6.1960
 IR Inten    --     21.6374                63.1635                20.5366

                    115                    116                    117
                      A                      A                      A
 Frequencies --   3099.2729              3100.2855              3107.3437
 Red. masses --      1.1005                 1.1007                 1.1007
 Frc consts  --      6.2282                 6.2334                 6.2618
 IR Inten    --     47.3138                41.1124                85.8597

                    118                    119                    120
                      A                      A                      A
 Frequencies --   3113.6422              3121.6313              3787.7735
 Red. masses --      1.0994                 1.1008                 1.0657
 Frc consts  --      6.2795                 6.3202                 9.0084
 IR Inten    --      6.4144                24.9744                 9.7727

 - Thermochemistry -
 -------------------
 Temperature   298.150 Kelvin.  Pressure   1.00000 Atm.
 Atom     1 has atomic number  6 and mass  12.00000

 Molecular mass:   200.21402 amu.
 Principal axes and moments of inertia in atomic units:
                           1         2         3
     Eigenvalues --  1292.833169887.29964**********
           X            0.99999   0.00512  -0.00030
           Y           -0.00512   0.99997  -0.00574
           Z            0.00027   0.00574   0.99998
 This molecule is an asymmetric top.
 Rotational symmetry number  1.
 Warning -- assumption of classical behavior for rotation
           may cause significant error
 Rotational temperatures (Kelvin)      0.06700     0.00876     0.00806
 Rotational constants (GHZ):           1.39596     0.18253     0.16795
 Zero-point vibrational energy    1026334.6 (Joules/Mol)
                                  245.29986 (Kcal/Mol)
 Warning -- explicit consideration of  28 degrees of freedom as
           vibrations may cause significant error
 Vibrational temperatures:     32.86    49.74    59.63    92.88   103.18
          (Kelvin)            123.83   150.36   169.72   188.38   219.37
                              274.42   313.09   327.11   350.81   355.43
                              377.18   393.46   413.78   439.11   457.45
                              502.86   579.75   601.60   623.52   665.66
                              708.60   767.67   809.96  1068.37  1098.72
                             1122.21  1190.83  1229.38  1233.04  1252.74
                             1276.39  1294.56  1338.94  1363.23  1396.66
                             1414.32  1449.64  1462.37  1479.65  1502.64
                             1528.99  1537.42  1557.97  1562.09  1592.65
                             1630.04  1631.44  1670.35  1690.37  1712.99
                             1736.44  1793.02  1814.61  1827.66  1840.51
                             1859.95  1879.31  1890.56  1914.35  1925.67
                             1949.66  1965.03  1968.53  1987.67  1992.88
                             1999.55  2005.82  2010.52  2022.95  2029.24
                             2032.67  2038.18  2045.58  2118.43  2124.18
                             2134.13  2142.39  2149.55  2151.73  2152.09
                             2153.93  2158.03  2160.08  2167.81  2171.18
                             2171.84  2178.23  4283.41  4291.83  4294.10
                             4310.00  4311.89  4321.08  4330.01  4340.27
                             4348.25  4355.31  4355.88  4357.21  4358.13
                             4368.49  4380.44  4382.07  4396.26  4400.28
                             4422.41  4449.99  4452.11  4455.15  4459.16
                             4460.62  4470.77  4479.84  4491.33  5449.76

 Zero-point correction=                           0.390910 (Hartree/Particle)
 Thermal correction to Energy=                    0.409818
 Thermal correction to Enthalpy=                  0.410762
 Thermal correction to Gibbs Free Energy=         0.342523
 Sum of electronic and zero-point Energies=           -587.145877
 Sum of electronic and thermal Energies=              -587.126969
 Sum of electronic and thermal Enthalpies=            -587.126025
 Sum of electronic and thermal Free Energies=         -587.194265

                     E (Thermal)             CV                S
                      KCal/Mol        Cal/Mol-Kelvin    Cal/Mol-Kelvin
 Total                  257.165             68.991            143.622
 Electronic               0.000              0.000              0.000
 Translational            0.889              2.981             41.787
 Rotational               0.889              2.981             33.285
 Vibrational            255.387             63.030             68.550
 Vibration     1          0.593              1.985              6.371
 Vibration     2          0.594              1.983              5.548
 Vibration     3          0.594              1.981              5.189
 Vibration     4          0.597              1.971              4.313
 Vibration     5          0.598              1.967              4.106
 Vibration     6          0.601              1.959              3.748
 Vibration     7          0.605              1.946              3.368
 Vibration     8          0.608              1.934              3.134
 Vibration     9          0.612              1.922              2.932
 Vibration    10          0.619              1.900              2.641
 Vibration    11          0.634              1.853              2.221
 Vibration    12          0.646              1.814              1.979
 Vibration    13          0.651              1.799              1.900
 Vibration    14          0.659              1.773              1.775
 Vibration    15          0.661              1.768              1.752
 Vibration    16          0.669              1.742              1.647
 Vibration    17          0.676              1.722              1.574
 Vibration    18          0.685              1.697              1.488
 Vibration    19          0.696              1.664              1.388
 Vibration    20          0.704              1.639              1.321
 Vibration    21          0.727              1.576              1.168
 Vibration    22          0.768              1.464              0.952
 Vibration    23          0.781              1.431              0.898
 Vibration    24          0.794              1.398              0.848
 Vibration    25          0.820              1.333              0.758
 Vibration    26          0.848              1.267              0.677
 Vibration    27          0.889              1.176              0.579
 Vibration    28          0.919              1.111              0.518

 Optimization completed.
    -- Stationary point found.
 Normal termination of Gaussian 16 at Wed May 24 04:26:51 2023.
