 Gaussian 16, Revision A.03,
 Gaussian 16:  ES64L-G16RevA.03 25-Dec-2016

 -----------------------------
 # opt freq b3lyp/6-31g(2df,p)
 -----------------------------

 -------------------
 Title Card Required
 -------------------
 Symbolic Z-matrix:
 Charge =  0 Multiplicity = 1

 SCF Done:  E(RB3LYP) =  -237.104554952     A.U. after   11 cycles
 SCF Done:  E(RB3LYP) =  -237.105631309     A.U. after    9 cycles
 SCF Done:  E(RB3LYP) =  -237.105779637     A.U. after    8 cycles
 SCF Done:  E(RB3LYP) =  -237.105791795     A.U. after    8 cycles
 SCF Done:  E(RB3LYP) =  -237.105793762     A.U. after    7 cycles
 SCF Done:  E(RB3LYP) =  -237.105793905     A.U. after    6 cycles
 Optimization completed.
    -- Stationary point found.
 Normal termination of Gaussian 16 at Sat May 27 23:56:34 2023.

 ----------------------------------------------------------------------
 #N Geom=AllCheck Guess=TCheck SCRF=Check GenChk RB3LYP/6-31G(2df,p) Fr
 eq
 ----------------------------------------------------------------------

 Structure from the checkpoint file:  "CCCCqCrC.chk"
 -------------------
 Title Card Required
 -------------------
 Charge =  0 Multiplicity = 1

                         Standard orientation:
 ---------------------------------------------------------------------
 Center     Atomic      Atomic             Coordinates (Angstroms)
 Number     Number       Type             X           Y           Z
 ---------------------------------------------------------------------
      1          6           0       -2.843110   -0.212165    0.150040
      2          6           0       -1.496774    0.359355   -0.304746
      3          6           0       -0.304785   -0.481125    0.168459
      4          6           0        1.073417   -0.012973   -0.333502
      5          6           0        1.451436    1.378099    0.195458
      6          6           0        2.155499   -1.038292    0.032258
      7          1           0       -3.678501    0.402540   -0.199882
      8          1           0       -2.902518   -0.262643    1.243119
      9          1           0       -2.992666   -1.227552   -0.234023
     10          1           0       -1.400921    1.387884    0.062928
     11          1           0       -1.479239    0.425330   -1.401101
     12          1           0       -0.459810   -1.519469   -0.156195
     13          1           0       -0.293843   -0.509853    1.268276
     14          1           0        1.024251    0.045794   -1.431082
     15          1           0        1.488051    1.380784    1.291949
     16          1           0        0.737645    2.146211   -0.115737
     17          1           0        2.439396    1.679847   -0.168268
     18          1           0        2.245058   -1.140997    1.120630
     19          1           0        3.135730   -0.737524   -0.352590
     20          1           0        1.923273   -2.027745   -0.375822
 ---------------------------------------------------------------------

 SCF Done:  E(RB3LYP) =  -237.105793905     A.U. after    1 cycles

 The electronic state is 1-A.
 Alpha  occ. eigenvalues --  -10.18106 -10.17421 -10.17074 -10.16893 -10.16686
 Alpha  occ. eigenvalues --  -10.16674  -0.80630  -0.75560  -0.67624  -0.66931
 Alpha  occ. eigenvalues --   -0.58759  -0.55124  -0.46552  -0.43902  -0.43342
 Alpha  occ. eigenvalues --   -0.41162  -0.39108  -0.37643  -0.37312  -0.35838
 Alpha  occ. eigenvalues --   -0.34269  -0.32809  -0.31354  -0.31081  -0.30419
 Alpha virt. eigenvalues --    0.08596   0.10897   0.12261   0.12912   0.14968
 Alpha virt. eigenvalues --    0.15722   0.16394   0.16807   0.17804   0.18597
 Alpha virt. eigenvalues --    0.19399   0.19823   0.21515   0.21895   0.23180

 Mulliken charges:
               1
     1  C   -0.378028
     2  C   -0.172915
     3  C   -0.143250
     4  C    0.045171
     5  C   -0.379716
     6  C   -0.387656
     7  H    0.109121
     8  H    0.112653
     9  H    0.112163
    10  H    0.097491
    11  H    0.091854
    12  H    0.085371
    13  H    0.086082
    14  H    0.068053
    15  H    0.108836
    16  H    0.112744
    17  H    0.107875
    18  H    0.109840
    19  H    0.106838
    20  H    0.107474
 Sum of Mulliken charges =  -0.00000

 Dipole moment (field-independent basis, Debye):
    X=             -0.0139    Y=              0.0322    Z=             -0.0824  Tot=              0.0896
 Quadrupole moment (field-independent basis, Debye-Ang):
   XX=            -42.1341   YY=            -41.6838   ZZ=            -40.9928
   XY=             -0.0281   XZ=             -0.0429   YZ=              0.1649

  Exact polarizability:  77.598  -0.106  64.965  -0.041  -0.059  59.776
 Approx polarizability:  91.563   0.201  90.156  -0.002   0.192  90.684

                      1                      2                      3
                      A                      A                      A
 Frequencies --     74.5463               109.6123               178.3087
 Red. masses --      1.6611                 2.1853                 2.4408
 Frc consts  --      0.0054                 0.0155                 0.0457
 IR Inten    --      0.0047                 0.0151                 0.0211

                      4                      5                      6
                      A                      A                      A
 Frequencies --    223.9726               245.2852               254.7561
 Red. masses --      1.0476                 1.0954                 1.1218
 Frc consts  --      0.0310                 0.0388                 0.0429
 IR Inten    --      0.0122                 0.0026                 0.0027

                      7                      8                      9
                      A                      A                      A
 Frequencies --    317.8720               373.9428               439.1111
 Red. masses --      2.4452                 2.2657                 2.1806
 Frc consts  --      0.1456                 0.1867                 0.2477
 IR Inten    --      0.0098                 0.1161                 0.2108

                     10                     11                     12
                      A                      A                      A
 Frequencies --    443.5410               743.9248               815.8405
 Red. masses --      2.3191                 1.1141                 2.3517
 Frc consts  --      0.2688                 0.3633                 0.9222
 IR Inten    --      0.0149                 2.3755                 0.3875

                     13                     14                     15
                      A                      A                      A
 Frequencies --    862.8458               899.8604               927.7331
 Red. masses --      1.2510                 1.9045                 1.1773
 Frc consts  --      0.5487                 0.9086                 0.5970
 IR Inten    --      0.8422                 0.5062                 1.1883

                     16                     17                     18
                      A                      A                      A
 Frequencies --    963.6208               969.5825              1024.6113
 Red. masses --      1.6351                 1.6251                 1.3188
 Frc consts  --      0.8945                 0.9001                 0.8157
 IR Inten    --      1.1245                 1.2874                 0.0827

                     19                     20                     21
                      A                      A                      A
 Frequencies --   1049.3554              1081.4189              1167.6366
 Red. masses --      2.2600                 2.0885                 2.1670
 Frc consts  --      1.4662                 1.4391                 1.7407
 IR Inten    --      0.1602                 0.2753                 2.1217

                     22                     23                     24
                      A                      A                      A
 Frequencies --   1193.7649              1205.6004              1271.2280
 Red. masses --      1.7732                 1.9917                 1.3634
 Frc consts  --      1.4888                 1.7056                 1.2981
 IR Inten    --      3.0827                 0.3219                 2.3556

                     25                     26                     27
                      A                      A                      A
 Frequencies --   1301.6528              1329.4373              1358.3951
 Red. masses --      1.2596                 1.1129                 1.3862
 Frc consts  --      1.2574                 1.1589                 1.5071
 IR Inten    --      3.6344                 0.3686                 1.1228

                     28                     29                     30
                      A                      A                      A
 Frequencies --   1371.4683              1395.5990              1400.2063
 Red. masses --      1.3377                 1.5458                 1.2571
 Frc consts  --      1.4824                 1.7739                 1.4521
 IR Inten    --      3.4185                 1.8773                 3.7340

                     31                     32                     33
                      A                      A                      A
 Frequencies --   1412.3625              1421.9667              1478.0630
 Red. masses --      1.2382                 1.2448                 1.0718
 Frc consts  --      1.4553                 1.4830                 1.3795
 IR Inten    --      1.1933                 2.4467                 0.0742

                     34                     35                     36
                      A                      A                      A
 Frequencies --   1488.9782              1492.5891              1496.0494
 Red. masses --      1.0444                 1.0544                 1.0618
 Frc consts  --      1.3643                 1.3839                 1.4002
 IR Inten    --      0.5402                 1.0691                 0.7279

                     37                     38                     39
                      A                      A                      A
 Frequencies --   1499.6455              1505.3511              1508.9197
 Red. masses --      1.0405                 1.0545                 1.0679
 Frc consts  --      1.3787                 1.4079                 1.4325
 IR Inten    --      6.6075                 1.9772                 2.4983

                     40                     41                     42
                      A                      A                      A
 Frequencies --   1512.9201              2988.7008              2996.6992
 Red. masses --      1.0647                 1.0773                 1.0631
 Frc consts  --      1.4359                 5.6696                 5.6250
 IR Inten    --      7.7828                 5.6485                21.4307

                     43                     44                     45
                      A                      A                      A
 Frequencies --   3016.2437              3020.9404              3026.2224
 Red. masses --      1.0650                 1.0363                 1.0389
 Frc consts  --      5.7088                 5.5723                 5.6059
 IR Inten    --     29.7125                33.1390                35.9896

                     46                     47                     48
                      A                      A                      A
 Frequencies --   3027.5598              3028.3794              3057.3735
 Red. masses --      1.0364                 1.0933                 1.1004
 Frc consts  --      5.5970                 5.9073                 6.0605
 IR Inten    --     28.3189                 9.8933                29.4626

                     49                     50                     51
                      A                      A                      A
 Frequencies --   3084.7881              3090.7646              3094.1266
 Red. masses --      1.1001                 1.0999                 1.1020
 Frc consts  --      6.1681                 6.1907                 6.2161
 IR Inten    --      4.9987                48.7451                67.1930

                     52                     53                     54
                      A                      A                      A
 Frequencies --   3096.1192              3099.0826              3105.5533
 Red. masses --      1.1014                 1.1009                 1.0996
 Frc consts  --      6.2207                 6.2298                 6.2486
 IR Inten    --     48.6951                34.4664                42.3711

 - Thermochemistry -
 -------------------
 Temperature   298.150 Kelvin.  Pressure   1.00000 Atm.
 Atom     1 has atomic number  6 and mass  12.00000

 Molecular mass:    86.10955 amu.
 Principal axes and moments of inertia in atomic units:
                           1         2         3
     Eigenvalues --   273.556021064.810341237.45168
           X            1.00000   0.00107   0.00058
           Y           -0.00107   1.00000  -0.00218
           Z           -0.00058   0.00218   1.00000
 This molecule is an asymmetric top.
 Rotational symmetry number  1.
 Rotational temperatures (Kelvin)      0.31662     0.08134     0.06999
 Rotational constants (GHZ):           6.59734     1.69489     1.45843
 Zero-point vibrational energy     493723.5 (Joules/Mol)
                                  118.00276 (Kcal/Mol)
 Warning -- explicit consideration of  10 degrees of freedom as
           vibrations may cause significant error
 Vibrational temperatures:    107.26   157.71   256.55   322.25   352.91
          (Kelvin)            366.54   457.35   538.02   631.78   638.16
                             1070.34  1173.81  1241.44  1294.70  1334.80
                             1386.44  1395.01  1474.19  1509.79  1555.92
                             1679.97  1717.56  1734.59  1829.01  1872.79
                             1912.76  1954.43  1973.24  2007.96  2014.58
                             2032.07  2045.89  2126.60  2142.31  2147.50
                             2152.48  2157.66  2165.86  2171.00  2176.75
                             4300.07  4311.58  4339.70  4346.46  4354.06
                             4355.98  4357.16  4398.88  4438.32  4446.92
                             4451.76  4454.62  4458.89  4468.20

 Zero-point correction=                           0.188049 (Hartree/Particle)
 Thermal correction to Energy=                    0.196433
 Thermal correction to Enthalpy=                  0.197378
 Thermal correction to Gibbs Free Energy=         0.155821
 Sum of electronic and zero-point Energies=           -236.917745
 Sum of electronic and thermal Energies=              -236.909361
 Sum of electronic and thermal Enthalpies=            -236.908416
 Sum of electronic and thermal Free Energies=         -236.949972

                     E (Thermal)             CV                S
                      KCal/Mol        Cal/Mol-Kelvin    Cal/Mol-Kelvin
 Total                  123.264             30.025             87.462
 Electronic               0.000              0.000              0.000
 Translational            0.889              2.981             39.272
 Rotational               0.889              2.981             27.380
 Vibrational            121.486             24.063             20.810
 Vibration     1          0.599              1.966              4.030
 Vibration     2          0.606              1.942              3.276
 Vibration     3          0.629              1.869              2.346
 Vibration     4          0.649              1.805              1.927
 Vibration     5          0.660              1.771              1.764
 Vibration     6          0.665              1.755              1.697
 Vibration     7          0.704              1.639              1.321
 Vibration     8          0.745              1.526              1.064
 Vibration     9          0.799              1.385              0.829
 Vibration    10          0.803              1.375              0.816

 Optimization completed.
    -- Stationary point found.
 Normal termination of Gaussian 16 at Sun May 28 00:13:37 2023.
