 Gaussian 16, Revision A.03,
 Gaussian 16:  ES64L-G16RevA.03 25-Dec-2016

 -----------------------------
 # opt freq b3lyp/6-31g(2df,p)
 -----------------------------

 -------------------
 Title Card Required
 -------------------
 Symbolic Z-matrix:
 Charge =  0 Multiplicity = 1

 SCF Done:  E(RB3LYP) =  -355.052522315     A.U. after   12 cycles
 SCF Done:  E(RB3LYP) =  -355.054944113     A.U. after   10 cycles
 SCF Done:  E(RB3LYP) =  -355.055302801     A.U. after    9 cycles
 SCF Done:  E(RB3LYP) =  -355.055333527     A.U. after    8 cycles
 SCF Done:  E(RB3LYP) =  -355.055336631     A.U. after    6 cycles
 Optimization completed.
    -- Stationary point found.
 Normal termination of Gaussian 16 at Sun May 28 21:24:26 2023.

 ----------------------------------------------------------------------
 #N Geom=AllCheck Guess=TCheck SCRF=Check GenChk RB3LYP/6-31G(2df,p) Fr
 eq
 ----------------------------------------------------------------------

 Structure from the checkpoint file:  "CCCCCCqCrqCrC.chk"
 -------------------
 Title Card Required
 -------------------
 Charge =  0 Multiplicity = 1

                         Standard orientation:
 ---------------------------------------------------------------------
 Center     Atomic      Atomic             Coordinates (Angstroms)
 Number     Number       Type             X           Y           Z
 ---------------------------------------------------------------------
      1          6           0       -4.473957    0.235716    0.000000
      2          6           0       -3.135453   -0.507769    0.000000
      3          6           0       -1.923413    0.430122   -0.000000
      4          6           0       -0.578343   -0.306932   -0.000000
      5          6           0        0.618858    0.652468   -0.000001
      6          6           0        2.035304    0.022818   -0.000000
      7          6           0        2.254668   -0.838341    1.257880
      8          6           0        2.254671   -0.838339   -1.257881
      9          6           0        3.062519    1.170969    0.000002
     10          1           0       -5.319259   -0.459764    0.000001
     11          1           0       -4.570607    0.876883   -0.883404
     12          1           0       -4.570605    0.876885    0.883402
     13          1           0       -3.082437   -1.166999   -0.876713
     14          1           0       -3.082437   -1.166998    0.876714
     15          1           0       -1.976738    1.090718    0.876933
     16          1           0       -1.976738    1.090718   -0.876934
     17          1           0       -0.534912   -0.964618   -0.877377
     18          1           0       -0.534912   -0.964618    0.877376
     19          1           0        0.538144    1.311101    0.876406
     20          1           0        0.538144    1.311101   -0.876409
     21          1           0        1.586352   -1.704495    1.282035
     22          1           0        2.083349   -0.256461    2.170711
     23          1           0        3.282320   -1.216708    1.293657
     24          1           0        1.586355   -1.704493   -1.282039
     25          1           0        3.282323   -1.216705   -1.293657
     26          1           0        2.083353   -0.256458   -2.170711
     27          1           0        2.945905    1.806601    0.884912
     28          1           0        2.945907    1.806603   -0.884907
     29          1           0        4.087378    0.783432    0.000003
 ---------------------------------------------------------------------

 SCF Done:  E(RB3LYP) =  -355.055336631     A.U. after    1 cycles

 The electronic state is 1-A.
 Alpha  occ. eigenvalues --  -10.18846 -10.17433 -10.17211 -10.17119 -10.17005
 Alpha  occ. eigenvalues --  -10.16869 -10.16563 -10.16563 -10.16524  -0.81992
 Alpha  occ. eigenvalues --   -0.78780  -0.73532  -0.67767  -0.67744  -0.66601
 Alpha  occ. eigenvalues --   -0.59933  -0.57071  -0.52224  -0.47135  -0.44908
 Alpha  occ. eigenvalues --   -0.44281  -0.43194  -0.41788  -0.41238  -0.39690
 Alpha  occ. eigenvalues --   -0.38153  -0.37389  -0.35900  -0.35650  -0.35270
 Alpha  occ. eigenvalues --   -0.33807  -0.33154  -0.32632  -0.31706  -0.30957
 Alpha  occ. eigenvalues --   -0.30499  -0.29277
 Alpha virt. eigenvalues --    0.07641   0.09585   0.11849   0.12040   0.12828
 Alpha virt. eigenvalues --    0.13715   0.14241   0.15363   0.15491   0.16034
 Alpha virt. eigenvalues --    0.17534   0.17852   0.18503   0.19157   0.19579

 Mulliken charges:
               1
     1  C   -0.379014
     2  C   -0.164858
     3  C   -0.153185
     4  C   -0.202169
     5  C   -0.181622
     6  C    0.263806
     7  C   -0.399215
     8  C   -0.399215
     9  C   -0.400837
    10  H    0.109350
    11  H    0.112318
    12  H    0.112318
    13  H    0.092667
    14  H    0.092667
    15  H    0.089502
    16  H    0.089502
    17  H    0.093974
    18  H    0.093974
    19  H    0.084586
    20  H    0.084586
    21  H    0.111125
    22  H    0.105321
    23  H    0.105823
    24  H    0.111125
    25  H    0.105823
    26  H    0.105321
    27  H    0.105846
    28  H    0.105846
    29  H    0.104632
 Sum of Mulliken charges =  -0.00000

 Dipole moment (field-independent basis, Debye):
    X=             -0.0228    Y=             -0.0438    Z=             -0.0000  Tot=              0.0493
 Quadrupole moment (field-independent basis, Debye-Ang):
   XX=            -62.4099   YY=            -61.8057   ZZ=            -60.9775
   XY=              0.0647   XZ=             -0.0000   YZ=              0.0000

  Exact polarizability: 119.561   0.336  91.530   0.000  -0.000  90.548
 Approx polarizability: 137.930  -0.251 134.911  -0.000   0.000 136.001

                      1                      2                      3
                      A                      A                      A
 Frequencies --     42.9563                59.5856                96.1944
 Red. masses --      1.7202                 2.5590                 3.0033
 Frc consts  --      0.0019                 0.0054                 0.0164
 IR Inten    --      0.0083                 0.0002                 0.0121

                      4                      5                      6
                      A                      A                      A
 Frequencies --    127.8983               133.9707               221.0539
 Red. masses --      1.6333                 2.1777                 3.0110
 Frc consts  --      0.0157                 0.0230                 0.0867
 IR Inten    --      0.0082                 0.0050                 0.0146

                      7                      8                      9
                      A                      A                      A
 Frequencies --    224.1512               248.1390               258.9994
 Red. masses --      1.0756                 1.1236                 1.2799
 Frc consts  --      0.0318                 0.0408                 0.0506
 IR Inten    --      0.0004                 0.0005                 0.0875

                     10                     11                     12
                      A                      A                      A
 Frequencies --    271.5039               279.8864               331.2172
 Red. masses --      1.0644                 1.9258                 2.0501
 Frc consts  --      0.0462                 0.0889                 0.1325
 IR Inten    --      0.0003                 0.0008                 0.0119

                     13                     14                     15
                      A                      A                      A
 Frequencies --    344.4694               407.0511               411.9007
 Red. masses --      2.3820                 2.5510                 2.0518
 Frc consts  --      0.1665                 0.2490                 0.2051
 IR Inten    --      0.0019                 0.0009                 0.0198

                     16                     17                     18
                      A                      A                      A
 Frequencies --    455.8400               512.0892               732.1458
 Red. masses --      2.3887                 2.6770                 1.0708
 Frc consts  --      0.2924                 0.4136                 0.3382
 IR Inten    --      0.2053                 0.5615                 3.4318

                     19                     20                     21
                      A                      A                      A
 Frequencies --    745.8355               756.1919               840.6708
 Red. masses --      3.4666                 1.1406                 1.2502
 Frc consts  --      1.1362                 0.3843                 0.5206
 IR Inten    --      0.0802                 0.0087                 0.8083

                     22                     23                     24
                      A                      A                      A
 Frequencies --    889.8106               923.2966               932.4202
 Red. masses --      2.1206                 1.9562                 1.8175
 Frc consts  --      0.9893                 0.9825                 0.9310
 IR Inten    --      2.0865                 0.2534                 0.0583

                     25                     26                     27
                      A                      A                      A
 Frequencies --    940.9114               956.9239               959.1413
 Red. masses --      1.6446                 1.2078                 1.2189
 Frc consts  --      0.8579                 0.6516                 0.6607
 IR Inten    --      0.7154                 0.1224                 0.0988

                     28                     29                     30
                      A                      A                      A
 Frequencies --   1003.9242              1031.0299              1041.9842
 Red. masses --      2.9655                 1.2352                 2.0244
 Frc consts  --      1.7610                 0.7737                 1.2950
 IR Inten    --      0.2299                 0.0415                 0.0461

                     31                     32                     33
                      A                      A                      A
 Frequencies --   1063.9814              1069.4856              1118.6601
 Red. masses --      2.0478                 2.2463                 1.3653
 Frc consts  --      1.3659                 1.5138                 1.0066
 IR Inten    --      0.7197                 0.4508                 0.0587

                     34                     35                     36
                      A                      A                      A
 Frequencies --   1127.7111              1221.0656              1225.4488
 Red. masses --      2.1870                 2.0192                 1.7909
 Frc consts  --      1.6387                 1.7738                 1.5846
 IR Inten    --      0.6519                 6.2179                 0.6458

                     37                     38                     39
                      A                      A                      A
 Frequencies --   1266.0722              1268.0001              1279.8940
 Red. masses --      1.7634                 2.2343                 1.6744
 Frc consts  --      1.6654                 2.1166                 1.6160
 IR Inten    --      1.4159                 6.1015                 5.7520

                     40                     41                     42
                      A                      A                      A
 Frequencies --   1313.8939              1331.2369              1343.7320
 Red. masses --      1.3020                 1.0531                 1.3927
 Frc consts  --      1.3243                 1.0995                 1.4816
 IR Inten    --      0.1423                 0.1040                 3.8063

                     43                     44                     45
                      A                      A                      A
 Frequencies --   1347.5197              1391.0726              1395.8957
 Red. masses --      1.1791                 1.4693                 1.4318
 Frc consts  --      1.2615                 1.6752                 1.6437
 IR Inten    --      1.8726                 1.0727                 1.4214

                     46                     47                     48
                      A                      A                      A
 Frequencies --   1399.9081              1401.6715              1413.0351
 Red. masses --      1.2418                 1.3557                 1.2485
 Frc consts  --      1.4338                 1.5693                 1.4687
 IR Inten    --      6.0065                 2.9833                 0.6651

                     49                     50                     51
                      A                      A                      A
 Frequencies --   1432.2713              1475.3125              1480.9105
 Red. masses --      1.2349                 1.0767                 1.0483
 Frc consts  --      1.4926                 1.3807                 1.3546
 IR Inten    --      3.6504                 0.3836                 0.0488

                     52                     53                     54
                      A                      A                      A
 Frequencies --   1483.2639              1486.9377              1487.4106
 Red. masses --      1.0696                 1.0442                 1.0509
 Frc consts  --      1.3865                 1.3603                 1.3699
 IR Inten    --      0.1347                 0.4470                 0.0228

                     55                     56                     57
                      A                      A                      A
 Frequencies --   1490.1502              1499.8300              1503.2482
 Red. masses --      1.0674                 1.0403                 1.0762
 Frc consts  --      1.3965                 1.3788                 1.4329
 IR Inten    --      0.2583                 4.6943                 0.7541

                     58                     59                     60
                      A                      A                      A
 Frequencies --   1508.0082              1509.0895              1513.5844
 Red. masses --      1.0611                 1.0605                 1.0892
 Frc consts  --      1.4217                 1.4230                 1.4702
 IR Inten    --      2.9412                 3.1887                 2.5301

                     61                     62                     63
                      A                      A                      A
 Frequencies --   1519.1639              2995.2003              3001.1239
 Red. masses --      1.0637                 1.0580                 1.0575
 Frc consts  --      1.4464                 5.5922                 5.6115
 IR Inten    --     10.9482                 8.6228                16.3949

                     64                     65                     66
                      A                      A                      A
 Frequencies --   3011.9198              3019.2986              3022.2378
 Red. masses --      1.0589                 1.0370                 1.0482
 Frc consts  --      5.6597                 5.5696                 5.6411
 IR Inten    --     13.5301                11.1285                33.3192

                     67                     68                     69
                      A                      A                      A
 Frequencies --   3022.8527              3023.9755              3027.1473
 Red. masses --      1.0556                 1.0851                 1.1008
 Frc consts  --      5.6829                 5.8461                 5.9431
 IR Inten    --     73.7001                 1.6764                 5.9535

                     70                     71                     72
                      A                      A                      A
 Frequencies --   3027.7351              3030.7396              3046.3873
 Red. masses --      1.0359                 1.0378                 1.1035
 Frc consts  --      5.5950                 5.6165                 6.0339
 IR Inten    --     45.8303                13.0078                 2.2939

                     73                     74                     75
                      A                      A                      A
 Frequencies --   3067.5928              3086.4870              3086.7388
 Red. masses --      1.1048                 1.1016                 1.1015
 Frc consts  --      6.1255                 6.1833                 6.1837
 IR Inten    --     73.2517                 1.1823                 0.7906

                     76                     77                     78
                      A                      A                      A
 Frequencies --   3091.0367              3093.8954              3093.9606
 Red. masses --      1.1011                 1.1004                 1.1020
 Frc consts  --      6.1985                 6.2058                 6.2153
 IR Inten    --     42.4598                84.9086                73.3277

                     79                     80                     81
                      A                      A                      A
 Frequencies --   3098.9748              3098.9943              3102.9368
 Red. masses --      1.1005                 1.1010                 1.0994
 Frc consts  --      6.2267                 6.2297                 6.2365
 IR Inten    --      3.0716                39.3059                67.3355

 - Thermochemistry -
 -------------------
 Temperature   298.150 Kelvin.  Pressure   1.00000 Atm.
 Atom     1 has atomic number  6 and mass  12.00000

 Molecular mass:   128.15650 amu.
 Principal axes and moments of inertia in atomic units:
                           1         2         3
     Eigenvalues --   490.920133312.589703349.92143
           X            1.00000  -0.00108   0.00000
           Y            0.00108   1.00000   0.00000
           Z           -0.00000  -0.00000   1.00000
 This molecule is an asymmetric top.
 Rotational symmetry number  1.
 Warning -- assumption of classical behavior for rotation
           may cause significant error
 Rotational temperatures (Kelvin)      0.17643     0.02615     0.02586
 Rotational constants (GHZ):           3.67624     0.54481     0.53874
 Zero-point vibrational energy     715354.3 (Joules/Mol)
                                  170.97377 (Kcal/Mol)
 Warning -- explicit consideration of  17 degrees of freedom as
           vibrations may cause significant error
 Vibrational temperatures:     61.80    85.73   138.40   184.02   192.75
          (Kelvin)            318.05   322.50   357.02   372.64   390.63
                              402.69   476.55   495.61   585.66   592.63
                              655.85   736.78  1053.39  1073.09  1087.99
                             1209.54  1280.24  1328.42  1341.54  1353.76
                             1376.80  1379.99  1444.42  1483.42  1499.18
                             1530.83  1538.75  1609.50  1622.52  1756.84
                             1763.15  1821.60  1824.37  1841.48  1890.40
                             1915.35  1933.33  1938.78  2001.44  2008.38
                             2014.16  2016.69  2033.04  2060.72  2122.65
                             2130.70  2134.09  2139.37  2140.05  2143.99
                             2157.92  2162.84  2169.69  2171.24  2177.71
                             2185.74  4309.43  4317.95  4333.48  4344.10
                             4348.33  4349.21  4350.83  4355.39  4356.24
                             4360.56  4383.07  4413.58  4440.77  4441.13
                             4447.31  4451.43  4451.52  4458.73  4458.76
                             4464.43

 Zero-point correction=                           0.272464 (Hartree/Particle)
 Thermal correction to Energy=                    0.284856
 Thermal correction to Enthalpy=                  0.285800
 Thermal correction to Gibbs Free Energy=         0.234322
 Sum of electronic and zero-point Energies=           -354.782873
 Sum of electronic and thermal Energies=              -354.770481
 Sum of electronic and thermal Enthalpies=            -354.769537
 Sum of electronic and thermal Free Energies=         -354.821015

                     E (Thermal)             CV                S
                      KCal/Mol        Cal/Mol-Kelvin    Cal/Mol-Kelvin
 Total                  178.750             45.635            108.344
 Electronic               0.000              0.000              0.000
 Translational            0.889              2.981             40.457
 Rotational               0.889              2.981             30.078
 Vibrational            176.972             39.674             37.809
 Vibration     1          0.595              1.980              5.118
 Vibration     2          0.597              1.974              4.471
 Vibration     3          0.603              1.952              3.530
 Vibration     4          0.611              1.925              2.977
 Vibration     5          0.613              1.919              2.888
 Vibration     6          0.648              1.809              1.950
 Vibration     7          0.649              1.804              1.925
 Vibration     8          0.662              1.766              1.744
 Vibration     9          0.668              1.748              1.669
 Vibration    10          0.675              1.726              1.587
 Vibration    11          0.680              1.711              1.534
 Vibration    12          0.714              1.613              1.254
 Vibration    13          0.723              1.587              1.191
 Vibration    14          0.772              1.455              0.937
 Vibration    15          0.776              1.444              0.920
 Vibration    16          0.814              1.348              0.778
 Vibration    17          0.867              1.223              0.629

 Optimization completed.
    -- Stationary point found.
 Normal termination of Gaussian 16 at Sun May 28 22:06:40 2023.
