 Gaussian 16, Revision A.03,
 Gaussian 16:  ES64L-G16RevA.03 25-Dec-2016

 -----------------------------
 # opt freq b3lyp/6-31g(2df,p)
 -----------------------------

 -------------------
 Title Card Required
 -------------------
 Symbolic Z-matrix:
 Charge =  0 Multiplicity = 1

 SCF Done:  E(RB3LYP) =  -625.569642731     A.U. after   12 cycles
 SCF Done:  E(RB3LYP) =  -625.588827472     A.U. after   11 cycles
 SCF Done:  E(RB3LYP) =  -625.594546708     A.U. after   10 cycles
 SCF Done:  E(RB3LYP) =  -625.595573410     A.U. after   10 cycles
 SCF Done:  E(RB3LYP) =  -625.596254464     A.U. after   10 cycles
 SCF Done:  E(RB3LYP) =  -625.596958798     A.U. after    9 cycles
 SCF Done:  E(RB3LYP) =  -625.597536407     A.U. after   10 cycles
 SCF Done:  E(RB3LYP) =  -625.597722318     A.U. after   11 cycles
 SCF Done:  E(RB3LYP) =  -625.598267338     A.U. after   10 cycles
 SCF Done:  E(RB3LYP) =  -625.598404815     A.U. after    8 cycles
 SCF Done:  E(RB3LYP) =  -625.598677979     A.U. after    9 cycles
 SCF Done:  E(RB3LYP) =  -625.598784021     A.U. after    9 cycles
 SCF Done:  E(RB3LYP) =  -625.598834060     A.U. after    8 cycles
 SCF Done:  E(RB3LYP) =  -625.598881660     A.U. after    9 cycles
 SCF Done:  E(RB3LYP) =  -625.598870900     A.U. after    8 cycles
 SCF Done:  E(RB3LYP) =  -625.598883592     A.U. after    8 cycles
 SCF Done:  E(RB3LYP) =  -625.598882025     A.U. after    8 cycles
 SCF Done:  E(RB3LYP) =  -625.598884524     A.U. after    8 cycles
 SCF Done:  E(RB3LYP) =  -625.598884599     A.U. after    5 cycles
 Optimization completed.
    -- Stationary point found.
 Normal termination of Gaussian 16 at Wed May 24 01:49:26 2023.

 ----------------------------------------------------------------------
 #N Geom=AllCheck Guess=TCheck SCRF=Check GenChk RB3LYP/6-31G(2df,p) Fr
 eq
 ----------------------------------------------------------------------

 Structure from the checkpoint file:  "CCCCCCCqCCOrCC1CCC1.chk"
 -------------------
 Title Card Required
 -------------------
 Charge =  0 Multiplicity = 1

                         Standard orientation:
 ---------------------------------------------------------------------
 Center     Atomic      Atomic             Coordinates (Angstroms)
 Number     Number       Type             X           Y           Z
 ---------------------------------------------------------------------
      1          6           0        6.707929   -0.408039    0.725963
      2          6           0        5.537070   -0.497788   -0.256491
      3          6           0        4.169900   -0.332291    0.415902
      4          6           0        2.992110   -0.421273   -0.560265
      5          6           0        1.625199   -0.254411    0.112761
      6          6           0        0.449476   -0.376305   -0.867054
      7          6           0       -0.957411   -0.205239   -0.229722
      8          6           0       -1.493781    1.232830   -0.375061
      9          6           0       -0.608330    2.342457    0.198108
     10          8           0       -1.256528    3.607488    0.175790
     11          6           0       -1.920647   -1.261469   -0.821279
     12          6           0       -3.323099   -1.439039   -0.219342
     13          6           0       -3.619085   -1.224877    1.294829
     14          6           0       -5.040138   -0.737871    0.901167
     15          6           0       -4.519131   -0.492930   -0.541929
     16          1           0        7.669163   -0.529746    0.216688
     17          1           0        6.638828   -1.184479    1.496156
     18          1           0        6.722501    0.561213    1.236974
     19          1           0        5.568907   -1.463977   -0.777606
     20          1           0        5.652050    0.268370   -1.034863
     21          1           0        4.137792    0.634470    0.937957
     22          1           0        4.054712   -1.098491    1.195596
     23          1           0        3.024547   -1.388307   -1.081816
     24          1           0        3.108725    0.344462   -1.340245
     25          1           0        1.594786    0.712931    0.629222
     26          1           0        1.512353   -1.015687    0.897355
     27          1           0        0.511674   -1.363238   -1.342487
     28          1           0        0.574173    0.347793   -1.684120
     29          1           0       -0.860913   -0.417987    0.844774
     30          1           0       -2.462852    1.325321    0.123029
     31          1           0       -1.671947    1.437851   -1.442418
     32          1           0        0.357250    2.390230   -0.326798
     33          1           0       -0.392300    2.144378    1.254081
     34          1           0       -1.441212    3.823827   -0.743781
     35          1           0       -1.405534   -2.227634   -0.739863
     36          1           0       -2.027327   -1.079226   -1.901278
     37          1           0       -3.649476   -2.453738   -0.478780
     38          1           0       -3.025811   -0.409955    1.719508
     39          1           0       -3.535568   -2.090660    1.957249
     40          1           0       -5.448869    0.117535    1.443875
     41          1           0       -5.771540   -1.550531    0.935428
     42          1           0       -4.214237    0.544680   -0.692191
     43          1           0       -5.168014   -0.781828   -1.373487
 ---------------------------------------------------------------------

 SCF Done:  E(RB3LYP) =  -625.598884599     A.U. after    1 cycles

 The electronic state is 1-A.
 Alpha  occ. eigenvalues --  -19.12868 -10.22067 -10.18441 -10.18120 -10.17558
 Alpha  occ. eigenvalues --  -10.17507 -10.17503 -10.17501 -10.17470 -10.17452
 Alpha  occ. eigenvalues --  -10.17433 -10.17366 -10.17354 -10.17226 -10.16954
 Alpha  occ. eigenvalues --   -1.00924  -0.83940  -0.81258  -0.79304  -0.75563
 Alpha  occ. eigenvalues --   -0.72512  -0.70346  -0.65874  -0.65063  -0.62486
 Alpha  occ. eigenvalues --   -0.60876  -0.57964  -0.57336  -0.56167  -0.53155
 Alpha  occ. eigenvalues --   -0.49931  -0.47667  -0.47180  -0.46512  -0.45509
 Alpha  occ. eigenvalues --   -0.43595  -0.42931  -0.42481  -0.41598  -0.39784
 Alpha  occ. eigenvalues --   -0.39540  -0.39061  -0.37997  -0.37864  -0.36991
 Alpha  occ. eigenvalues --   -0.36055  -0.34780  -0.34577  -0.33536  -0.32836
 Alpha  occ. eigenvalues --   -0.32257  -0.32113  -0.31846  -0.31756  -0.31321
 Alpha  occ. eigenvalues --   -0.30887  -0.29282  -0.28943  -0.28291  -0.25817
 Alpha virt. eigenvalues --    0.07750   0.08247   0.08734   0.09468   0.10023
 Alpha virt. eigenvalues --    0.10800   0.11085   0.11344   0.13095   0.13248
 Alpha virt. eigenvalues --    0.13626   0.14542   0.15409   0.15794   0.16275

 Mulliken charges:
               1
     1  C   -0.379185
     2  C   -0.162540
     3  C   -0.160138
     4  C   -0.178050
     5  C   -0.189560
     6  C   -0.203328
     7  C    0.009553
     8  C   -0.204893
     9  C   -0.067273
    10  O   -0.421120
    11  C   -0.252662
    12  C    0.054637
    13  C   -0.230382
    14  C   -0.206318
    15  C   -0.231910
    16  H    0.109710
    17  H    0.112512
    18  H    0.112990
    19  H    0.092738
    20  H    0.092804
    21  H    0.091296
    22  H    0.090044
    23  H    0.091006
    24  H    0.090041
    25  H    0.099902
    26  H    0.092003
    27  H    0.088736
    28  H    0.087220
    29  H    0.071578
    30  H    0.111765
    31  H    0.078092
    32  H    0.089137
    33  H    0.109323
    34  H    0.278155
    35  H    0.090847
    36  H    0.091182
    37  H    0.070747
    38  H    0.103976
    39  H    0.089643
    40  H    0.095772
    41  H    0.099629
    42  H    0.104156
    43  H    0.088164
 Sum of Mulliken charges =  -0.00000

 Dipole moment (field-independent basis, Debye):
    X=              0.2685    Y=             -1.0469    Z=             -1.2466  Tot=              1.6498
 Quadrupole moment (field-independent basis, Debye-Ang):
   XX=            -99.2944   YY=           -101.3444   ZZ=            -96.9961
   XY=              1.8971   XZ=              1.7933   YZ=             -5.5183

  Exact polarizability: 191.208   0.581 144.441   0.154  -0.535 135.679
 Approx polarizability: 213.704  -1.917 213.456   0.066  -1.417 212.120

                      1                      2                      3
                      A                      A                      A
 Frequencies --     25.1014                36.2409                44.0498
 Red. masses --      3.8544                 3.3707                 1.6054
 Frc consts  --      0.0014                 0.0026                 0.0018
 IR Inten    --      0.0194                 0.0672                 0.0666

                      4                      5                      6
                      A                      A                      A
 Frequencies --     55.7423                75.2551                93.6338
 Red. masses --      3.3867                 2.6194                 3.3688
 Frc consts  --      0.0062                 0.0087                 0.0174
 IR Inten    --      0.2980                 0.4614                 0.0581

                      7                      8                      9
                      A                      A                      A
 Frequencies --    102.0881               111.6528               125.1047
 Red. masses --      2.6208                 2.1237                 2.4940
 Frc consts  --      0.0161                 0.0156                 0.0230
 IR Inten    --      0.2972                 0.5461                 2.5855

                     10                     11                     12
                      A                      A                      A
 Frequencies --    138.7077               153.1757               160.5826
 Red. masses --      1.9381                 2.3642                 2.0112
 Frc consts  --      0.0220                 0.0327                 0.0306
 IR Inten    --      0.6255                 0.7893                 2.0944

                     13                     14                     15
                      A                      A                      A
 Frequencies --    198.0120               207.1204               242.8807
 Red. masses --      2.6616                 3.1462                 3.0595
 Frc consts  --      0.0615                 0.0795                 0.1063
 IR Inten    --      0.1723                 0.0568                 0.6088

                     16                     17                     18
                      A                      A                      A
 Frequencies --    247.3675               291.2929               305.3736
 Red. masses --      1.1337                 1.3902                 1.8689
 Frc consts  --      0.0409                 0.0695                 0.1027
 IR Inten    --      0.0485                61.6711                31.8979

                     19                     20                     21
                      A                      A                      A
 Frequencies --    323.7161               372.7880               380.9948
 Red. masses --      2.4806                 2.8099                 2.9444
 Frc consts  --      0.1532                 0.2301                 0.2518
 IR Inten    --     11.6733                 0.3272                 5.9921

                     22                     23                     24
                      A                      A                      A
 Frequencies --    436.1098               468.5753               495.2819
 Red. masses --      2.9646                 2.8540                 2.5197
 Frc consts  --      0.3322                 0.3692                 0.3642
 IR Inten    --      0.2846                 1.1759                 3.7374

                     25                     26                     27
                      A                      A                      A
 Frequencies --    564.2109               652.4808               728.3944
 Red. masses --      2.1858                 2.5644                 1.0781
 Frc consts  --      0.4100                 0.6432                 0.3370
 IR Inten    --      1.7097                 1.4853                 4.0966

                     28                     29                     30
                      A                      A                      A
 Frequencies --    737.0944               746.4780               779.6825
 Red. masses --      1.1428                 1.5084                 1.2434
 Frc consts  --      0.3658                 0.4952                 0.4453
 IR Inten    --      0.4896                 0.0134                 0.4810

                     31                     32                     33
                      A                      A                      A
 Frequencies --    785.0016               797.4022               832.2816
 Red. masses --      1.1912                 1.2100                 1.7818
 Frc consts  --      0.4325                 0.4533                 0.7272
 IR Inten    --      1.7055                 1.0680                 1.0807

                     34                     35                     36
                      A                      A                      A
 Frequencies --    880.8629               893.0227               897.5604
 Red. masses --      1.3728                 2.0620                 1.9196
 Frc consts  --      0.6276                 0.9688                 0.9111
 IR Inten    --      0.5686                 1.6600                 0.9012

                     37                     38                     39
                      A                      A                      A
 Frequencies --    915.2117               933.3576               947.8344
 Red. masses --      2.5485                 2.4219                 2.4239
 Frc consts  --      1.2577                 1.2431                 1.2830
 IR Inten    --      2.2910                 1.4546                 1.1131

                     40                     41                     42
                      A                      A                      A
 Frequencies --    961.8533               985.2441               994.2571
 Red. masses --      1.3301                 1.5481                 2.0345
 Frc consts  --      0.7250                 0.8854                 1.1850
 IR Inten    --      1.0620                 3.3355                 0.4038

                     43                     44                     45
                      A                      A                      A
 Frequencies --   1005.8755              1012.9938              1031.5850
 Red. masses --      1.8011                 3.0287                 2.7638
 Frc consts  --      1.0737                 1.8311                 1.7329
 IR Inten    --     22.2006                 0.2609                 6.7385

                     46                     47                     48
                      A                      A                      A
 Frequencies --   1053.7628              1061.4819              1069.9412
 Red. masses --      2.1259                 2.3393                 2.1528
 Frc consts  --      1.3908                 1.5530                 1.4520
 IR Inten    --      9.2920                 0.8385                 2.5342

                     49                     50                     51
                      A                      A                      A
 Frequencies --   1072.6067              1086.3736              1093.7123
 Red. masses --      3.1272                 1.9519                 2.2357
 Frc consts  --      2.1198                 1.3572                 1.5757
 IR Inten    --     66.6922                17.4598                10.3089

                     52                     53                     54
                      A                      A                      A
 Frequencies --   1126.7249              1138.5830              1149.0685
 Red. masses --      1.9506                 1.8079                 2.7110
 Frc consts  --      1.4590                 1.3809                 2.1090
 IR Inten    --      1.5392                 3.5451                 0.7481

                     55                     56                     57
                      A                      A                      A
 Frequencies --   1162.7525              1182.8905              1206.9446
 Red. masses --      1.8122                 1.3949                 1.5598
 Frc consts  --      1.4436                 1.1500                 1.3388
 IR Inten    --      1.8001                 1.8980                 0.7722

                     58                     59                     60
                      A                      A                      A
 Frequencies --   1227.0980              1236.0982              1240.6487
 Red. masses --      1.4855                 1.3403                 1.3047
 Frc consts  --      1.3179                 1.2066                 1.1832
 IR Inten    --      1.1779                 1.4014                 0.3584

                     61                     62                     63
                      A                      A                      A
 Frequencies --   1253.7424              1263.2388              1266.4429
 Red. masses --      1.2148                 1.3282                 1.3058
 Frc consts  --      1.1251                 1.2488                 1.2340
 IR Inten    --      0.8758                 3.4446                 2.0485

                     64                     65                     66
                      A                      A                      A
 Frequencies --   1278.2303              1284.3351              1298.8984
 Red. masses --      1.4677                 1.3062                 1.2680
 Frc consts  --      1.4129                 1.2695                 1.2604
 IR Inten    --      0.7767                 1.8201                 2.0779

                     67                     68                     69
                      A                      A                      A
 Frequencies --   1301.4709              1313.5607              1323.2406
 Red. masses --      1.2671                 1.2839                 1.1284
 Frc consts  --      1.2646                 1.3052                 1.1641
 IR Inten    --      0.5379                 7.2333                 0.2571

                     70                     71                     72
                      A                      A                      A
 Frequencies --   1330.4063              1333.1488              1336.6542
 Red. masses --      1.0863                 1.2993                 1.1298
 Frc consts  --      1.1328                 1.3606                 1.1893
 IR Inten    --      0.4365                 0.6256                 0.2927

                     73                     74                     75
                      A                      A                      A
 Frequencies --   1343.0761              1363.1526              1380.6282
 Red. masses --      1.1619                 1.4565                 1.3492
 Frc consts  --      1.2348                 1.5946                 1.5152
 IR Inten    --      0.4522                 4.7534                 2.4275

                     76                     77                     78
                      A                      A                      A
 Frequencies --   1382.3076              1396.0996              1399.6339
 Red. masses --      1.3326                 1.4854                 1.4302
 Frc consts  --      1.5003                 1.7058                 1.6507
 IR Inten    --      9.9947                 1.3664                 7.3265

                     79                     80                     81
                      A                      A                      A
 Frequencies --   1401.6069              1407.5452              1413.5682
 Red. masses --      1.5195                 1.3332                 1.2546
 Frc consts  --      1.7587                 1.5562                 1.4770
 IR Inten    --      2.6937                 9.6690                 0.4597

                     82                     83                     84
                      A                      A                      A
 Frequencies --   1420.8080              1475.6764              1477.0153
 Red. masses --      1.2847                 1.0866                 1.0892
 Frc consts  --      1.5280                 1.3941                 1.4001
 IR Inten    --     44.5367                 0.8106                 0.9229

                     85                     86                     87
                      A                      A                      A
 Frequencies --   1482.8987              1483.8329              1487.5385
 Red. masses --      1.0723                 1.0721                 1.0837
 Frc consts  --      1.3892                 1.3908                 1.4128
 IR Inten    --      0.2279                 1.4169                 1.3924

                     88                     89                     90
                      A                      A                      A
 Frequencies --   1489.3912              1492.3344              1498.7016
 Red. masses --      1.0736                 1.0800                 1.0766
 Frc consts  --      1.4031                 1.4171                 1.4247
 IR Inten    --      0.8304                 0.0579                 1.5900

                     91                     92                     93
                      A                      A                      A
 Frequencies --   1499.8697              1507.4889              1513.8157
 Red. masses --      1.0403                 1.0855                 1.1359
 Frc consts  --      1.3788                 1.4535                 1.5337
 IR Inten    --      4.9160                 0.2314                 2.3040

                     94                     95                     96
                      A                      A                      A
 Frequencies --   1514.3097              1518.2923              2985.2659
 Red. masses --      1.0943                 1.0933                 1.0731
 Frc consts  --      1.4785                 1.4849                 5.6343
 IR Inten    --      2.7506                 1.9552                27.8585

                     97                     98                     99
                      A                      A                      A
 Frequencies --   2990.8917              2991.4572              2997.7263
 Red. masses --      1.0640                 1.0668                 1.0612
 Frc consts  --      5.6078                 5.6247                 5.6185
 IR Inten    --      2.5061                57.3773                 2.6698

                    100                    101                    102
                      A                      A                      A
 Frequencies --   2999.4254              3001.9992              3007.0310
 Red. masses --      1.0688                 1.0605                 1.0644
 Frc consts  --      5.6654                 5.6309                 5.6705
 IR Inten    --      9.1846                 3.5984                 3.5584

                    103                    104                    105
                      A                      A                      A
 Frequencies --   3013.7797              3017.3627              3019.4567
 Red. masses --      1.0625                 1.0756                 1.0878
 Frc consts  --      5.6861                 5.7698                 5.8434
 IR Inten    --      6.7713                44.1327                47.3973

                    106                    107                    108
                      A                      A                      A
 Frequencies --   3021.1436              3027.9379              3031.6800
 Red. masses --      1.0833                 1.0359                 1.0946
 Frc consts  --      5.8255                 5.5956                 5.9275
 IR Inten    --     64.0292                40.6447                 4.0490

                    109                    110                    111
                      A                      A                      A
 Frequencies --   3034.1789              3040.4781              3052.3717
 Red. masses --      1.1001                 1.0974                 1.0572
 Frc consts  --      5.9670                 5.9772                 5.8031
 IR Inten    --     15.3297                34.1625                44.4406

                    112                    113                    114
                      A                      A                      A
 Frequencies --   3053.2744              3055.0157              3062.0146
 Red. masses --      1.1036                 1.0598                 1.0825
 Frc consts  --      6.0618                 5.8280                 5.9800
 IR Inten    --      9.1666                56.8496                13.0480

                    115                    116                    117
                      A                      A                      A
 Frequencies --   3064.1108              3068.1584              3090.0585
 Red. masses --      1.0719                 1.1024                 1.0963
 Frc consts  --      5.9292                 6.1143                 6.1678
 IR Inten    --     45.7597               105.7215                71.2512

                    118                    119                    120
                      A                      A                      A
 Frequencies --   3094.0789              3096.3884              3099.4254
 Red. masses --      1.1020                 1.1039                 1.1010
 Frc consts  --      6.2159                 6.2359                 6.2314
 IR Inten    --     59.8328                 2.6987                39.8023

                    121                    122                    123
                      A                      A                      A
 Frequencies --   3107.7522              3124.6321              3813.2925
 Red. masses --      1.1057                 1.1031                 1.0661
 Frc consts  --      6.2917                 6.3456                 9.1336
 IR Inten    --     15.2091                67.2975                14.8807

 - Thermochemistry -
 -------------------
 Temperature   298.150 Kelvin.  Pressure   1.00000 Atm.
 Atom     1 has atomic number  6 and mass  12.00000

 Molecular mass:   212.21402 amu.
 Principal axes and moments of inertia in atomic units:
                           1         2         3
     Eigenvalues --  1934.380029811.60403**********
           X            1.00000   0.00060   0.00189
           Y           -0.00058   0.99996  -0.00880
           Z           -0.00189   0.00880   0.99996
 This molecule is an asymmetric top.
 Rotational symmetry number  1.
 Warning -- assumption of classical behavior for rotation
           may cause significant error
 Rotational temperatures (Kelvin)      0.04478     0.00883     0.00788
 Rotational constants (GHZ):           0.93298     0.18394     0.16422
 Zero-point vibrational energy    1047782.6 (Joules/Mol)
                                  250.42605 (Kcal/Mol)
 Warning -- explicit consideration of  25 degrees of freedom as
           vibrations may cause significant error
 Vibrational temperatures:     36.12    52.14    63.38    80.20   108.28
          (Kelvin)            134.72   146.88   160.64   180.00   199.57
                              220.39   231.04   284.90   298.00   349.45
                              355.91   419.11   439.36   465.76   536.36
                              548.17   627.46   674.18   712.60   811.77
                              938.77  1048.00  1060.51  1074.02  1121.79
                             1129.44  1147.28  1197.47  1267.37  1284.86
                             1291.39  1316.79  1342.89  1363.72  1383.89
                             1417.55  1430.51  1447.23  1457.47  1484.22
                             1516.13  1527.24  1539.41  1543.24  1563.05
                             1573.61  1621.11  1638.17  1653.25  1672.94
                             1701.92  1736.52  1765.52  1778.47  1785.02
                             1803.86  1817.52  1822.13  1839.09  1847.87
                             1868.83  1872.53  1889.92  1903.85  1914.16
                             1918.10  1923.15  1932.39  1961.27  1986.42
                             1988.83  2008.68  2013.76  2016.60  2025.14
                             2033.81  2044.23  2123.17  2125.10  2133.56
                             2134.90  2140.24  2142.90  2147.14  2156.30
                             2157.98  2168.94  2178.04  2178.75  2184.48
                             4295.13  4303.23  4304.04  4313.06  4315.50
                             4319.21  4326.45  4336.16  4341.31  4344.32
                             4346.75  4356.53  4361.91  4365.51  4374.57
                             4391.68  4392.98  4395.49  4405.56  4408.57
                             4414.40  4445.91  4451.69  4455.01  4459.38
                             4471.36  4495.65  5486.48

 Zero-point correction=                           0.399079 (Hartree/Particle)
 Thermal correction to Energy=                    0.417742
 Thermal correction to Enthalpy=                  0.418686
 Thermal correction to Gibbs Free Energy=         0.350332
 Sum of electronic and zero-point Energies=           -625.199805
 Sum of electronic and thermal Energies=              -625.181143
 Sum of electronic and thermal Enthalpies=            -625.180198
 Sum of electronic and thermal Free Energies=         -625.248553

                     E (Thermal)             CV                S
                      KCal/Mol        Cal/Mol-Kelvin    Cal/Mol-Kelvin
 Total                  262.137             68.293            143.863
 Electronic               0.000              0.000              0.000
 Translational            0.889              2.981             41.961
 Rotational               0.889              2.981             33.700
 Vibrational            260.360             62.332             68.203
 Vibration     1          0.593              1.985              6.183
 Vibration     2          0.594              1.982              5.455
 Vibration     3          0.595              1.980              5.068
 Vibration     4          0.596              1.975              4.603
 Vibration     5          0.599              1.966              4.011
 Vibration     6          0.603              1.954              3.583
 Vibration     7          0.604              1.947              3.414
 Vibration     8          0.607              1.940              3.240
 Vibration     9          0.610              1.928              3.020
 Vibration    10          0.614              1.915              2.822
 Vibration    11          0.619              1.899              2.632
 Vibration    12          0.622              1.891              2.543
 Vibration    13          0.637              1.843              2.151
 Vibration    14          0.641              1.830              2.069
 Vibration    15          0.659              1.775              1.782
 Vibration    16          0.661              1.767              1.749
 Vibration    17          0.687              1.690              1.466
 Vibration    18          0.696              1.664              1.387
 Vibration    19          0.708              1.628              1.291
 Vibration    20          0.744              1.528              1.068
 Vibration    21          0.751              1.511              1.035
 Vibration    22          0.797              1.391              0.839
 Vibration    23          0.826              1.320              0.742
 Vibration    24          0.851              1.260              0.670
 Vibration    25          0.920              1.109              0.515

 Optimization completed.
    -- Stationary point found.
 Normal termination of Gaussian 16 at Wed May 24 04:55:07 2023.
