 Gaussian 16, Revision A.03,
 Gaussian 16:  ES64L-G16RevA.03 25-Dec-2016

 -----------------------------
 # opt freq b3lyp/6-31g(2df,p)
 -----------------------------

 -------------------
 Title Card Required
 -------------------
 Symbolic Z-matrix:
 Charge =  0 Multiplicity = 1

 SCF Done:  E(RB3LYP) =  -700.836708170     A.U. after   13 cycles
 SCF Done:  E(RB3LYP) =  -700.851045281     A.U. after   12 cycles
 SCF Done:  E(RB3LYP) =  -700.852739992     A.U. after   12 cycles
 SCF Done:  E(RB3LYP) =  -700.853802236     A.U. after   12 cycles
 SCF Done:  E(RB3LYP) =  -700.854066595     A.U. after   11 cycles
 SCF Done:  E(RB3LYP) =  -700.853472749     A.U. after   11 cycles
 SCF Done:  E(RB3LYP) =  -700.854220488     A.U. after   11 cycles
 SCF Done:  E(RB3LYP) =  -700.854276494     A.U. after   10 cycles
 SCF Done:  E(RB3LYP) =  -700.854308389     A.U. after   10 cycles
 SCF Done:  E(RB3LYP) =  -700.854314743     A.U. after    9 cycles
 SCF Done:  E(RB3LYP) =  -700.855598799     A.U. after   14 cycles
 SCF Done:  E(RB3LYP) =  -700.855686269     A.U. after   10 cycles
 SCF Done:  E(RB3LYP) =  -700.855717550     A.U. after   12 cycles
 SCF Done:  E(RB3LYP) =  -700.855733955     A.U. after   11 cycles
 SCF Done:  E(RB3LYP) =  -700.855738767     A.U. after   10 cycles
 SCF Done:  E(RB3LYP) =  -700.855739631     A.U. after    9 cycles
 SCF Done:  E(RB3LYP) =  -700.855739736     A.U. after    7 cycles
 SCF Done:  E(RB3LYP) =  -700.855739793     A.U. after    8 cycles
 SCF Done:  E(RB3LYP) =  -700.855739799     A.U. after    7 cycles
 Optimization completed.
    -- Stationary point found.
 Normal termination of Gaussian 16 at Mon May 22 17:25:16 2023.

 ----------------------------------------------------------------------
 #N Geom=AllCheck Guess=TCheck SCRF=Check GenChk RB3LYP/6-31G(2df,p) Fr
 eq
 ----------------------------------------------------------------------

 Structure from the checkpoint file:  "CCCCCCCCCqCOrCCCCdO.chk"
 -------------------
 Title Card Required
 -------------------
 Charge =  0 Multiplicity = 1

                         Standard orientation:
 ---------------------------------------------------------------------
 Center     Atomic      Atomic             Coordinates (Angstroms)
 Number     Number       Type             X           Y           Z
 ---------------------------------------------------------------------
      1          6           0       -8.318706   -0.401950   -0.510808
      2          6           0       -7.028621   -0.839022    0.188414
      3          6           0       -5.775886   -0.157697   -0.372868
      4          6           0       -4.479751   -0.589513    0.320965
      5          6           0       -3.227731    0.093458   -0.239762
      6          6           0       -1.931038   -0.339558    0.452876
      7          6           0       -0.682451    0.352595   -0.105197
      8          6           0        0.607867   -0.105112    0.588965
      9          6           0        1.925062    0.483324    0.040928
     10          6           0        2.089275    1.981192    0.356378
     11          8           0        1.147710    2.836064   -0.276583
     12          6           0        3.133317   -0.309590    0.588109
     13          6           0        4.451248   -0.105630   -0.171960
     14          6           0        5.588094   -0.985419    0.379822
     15          6           0        6.900364   -0.709902   -0.316426
     16          8           0        7.565784   -1.530348   -0.893619
     17          1           0       -9.194436   -0.904774   -0.088334
     18          1           0       -8.286625   -0.633259   -1.581489
     19          1           0       -8.475714    0.678135   -0.412724
     20          1           0       -6.916489   -1.928208    0.103417
     21          1           0       -7.104374   -0.626946    1.263292
     22          1           0       -5.887899    0.932513   -0.288235
     23          1           0       -5.700277   -0.368926   -1.449005
     24          1           0       -4.368125   -1.679670    0.235393
     25          1           0       -4.556695   -0.378870    1.396979
     26          1           0       -3.338064    1.183293   -0.152573
     27          1           0       -3.151525   -0.115996   -1.316137
     28          1           0       -1.818346   -1.429645    0.363978
     29          1           0       -2.009806   -0.132601    1.529592
     30          1           0       -0.785299    1.437594   -0.016335
     31          1           0       -0.604327    0.139504   -1.181612
     32          1           0        0.667054   -1.199842    0.516943
     33          1           0        0.543128    0.118686    1.663929
     34          1           0        1.921040    0.369944   -1.055973
     35          1           0        3.112758    2.305528    0.115867
     36          1           0        1.949444    2.140114    1.432587
     37          1           0        1.249966    2.733997   -1.228279
     38          1           0        2.886727   -1.377991    0.565331
     39          1           0        3.281811   -0.060470    1.648834
     40          1           0        4.763250    0.945049   -0.131069
     41          1           0        4.298921   -0.340739   -1.233279
     42          1           0        5.356855   -2.050372    0.283250
     43          1           0        5.726768   -0.761943    1.448062
     44          1           0        7.226073    0.357119   -0.267411
 ---------------------------------------------------------------------

 SCF Done:  E(RB3LYP) =  -700.855739799     A.U. after    1 cycles

 The electronic state is 1-A.
 Alpha  occ. eigenvalues --  -19.13995 -19.13930 -10.27207 -10.22864 -10.20025
 Alpha  occ. eigenvalues --  -10.19767 -10.19232 -10.19153 -10.17834 -10.17439
 Alpha  occ. eigenvalues --  -10.17211 -10.17202 -10.17184 -10.17169 -10.16961
 Alpha  occ. eigenvalues --  -10.16876  -1.04667  -1.01949  -0.82697  -0.80501
 Alpha  occ. eigenvalues --   -0.79095  -0.77077  -0.73764  -0.70106  -0.68545
 Alpha  occ. eigenvalues --   -0.64929  -0.61947  -0.58924  -0.58083  -0.57289
 Alpha  occ. eigenvalues --   -0.56867  -0.56747  -0.50537  -0.48702  -0.48081
 Alpha  occ. eigenvalues --   -0.47141  -0.45740  -0.44867  -0.44273  -0.42913
 Alpha  occ. eigenvalues --   -0.42705  -0.42176  -0.41309  -0.40589  -0.39843
 Alpha  occ. eigenvalues --   -0.39095  -0.38091  -0.37687  -0.37241  -0.35940
 Alpha  occ. eigenvalues --   -0.35384  -0.34806  -0.34682  -0.33955  -0.33280
 Alpha  occ. eigenvalues --   -0.32773  -0.32558  -0.31931  -0.31774  -0.31619
 Alpha  occ. eigenvalues --   -0.31479  -0.29216  -0.26294  -0.25045
 Alpha virt. eigenvalues --   -0.02180   0.06994   0.07853   0.09100   0.09694
 Alpha virt. eigenvalues --    0.09990   0.10536   0.11543   0.11744   0.12239
 Alpha virt. eigenvalues --    0.12711   0.13528   0.13981   0.14436   0.15593

 Mulliken charges:
               1
     1  C   -0.378927
     2  C   -0.162624
     3  C   -0.157934
     4  C   -0.177875
     5  C   -0.181499
     6  C   -0.177623
     7  C   -0.202202
     8  C   -0.185275
     9  C   -0.031040
    10  C   -0.054408
    11  O   -0.412658
    12  C   -0.192818
    13  C   -0.207785
    14  C   -0.271386
    15  C    0.158427
    16  O   -0.236278
    17  H    0.109275
    18  H    0.112042
    19  H    0.112418
    20  H    0.092343
    21  H    0.092704
    22  H    0.089996
    23  H    0.088894
    24  H    0.089177
    25  H    0.090030
    26  H    0.093189
    27  H    0.088311
    28  H    0.086548
    29  H    0.090150
    30  H    0.121934
    31  H    0.078803
    32  H    0.087042
    33  H    0.091309
    34  H    0.059367
    35  H    0.085336
    36  H    0.109844
    37  H    0.280611
    38  H    0.100412
    39  H    0.096728
    40  H    0.106086
    41  H    0.111059
    42  H    0.122014
    43  H    0.117857
    44  H    0.068429
 Sum of Mulliken charges =  -0.00000

 Dipole moment (field-independent basis, Debye):
    X=             -1.1337    Y=              0.6357    Z=              0.5462  Tot=              1.4099
 Quadrupole moment (field-independent basis, Debye-Ang):
   XX=           -128.1290   YY=           -109.6393   ZZ=           -100.2835
   XY=             13.0003   XZ=              8.6817   YZ=             -3.7859

  Exact polarizability: 214.134  -3.113 143.970  -2.097  -0.350 135.128
 Approx polarizability: 225.104  -7.096 221.016  -6.218   6.061 216.694

                      1                      2                      3
                      A                      A                      A
 Frequencies --     16.2214                25.6200                28.8087
 Red. masses --      4.3499                 1.7700                 2.8726
 Frc consts  --      0.0007                 0.0007                 0.0014
 IR Inten    --      0.1933                 0.8722                 0.1852

                      4                      5                      6
                      A                      A                      A
 Frequencies --     40.5526                43.4258                55.5084
 Red. masses --      3.1377                 3.6123                 3.2084
 Frc consts  --      0.0030                 0.0040                 0.0058
 IR Inten    --      1.3590                 3.6887                 3.2770

                      7                      8                      9
                      A                      A                      A
 Frequencies --     73.5630                87.0866                96.1725
 Red. masses --      2.9463                 2.1966                 2.6255
 Frc consts  --      0.0094                 0.0098                 0.0143
 IR Inten    --      1.5875                 0.6337                 0.0540

                     10                     11                     12
                      A                      A                      A
 Frequencies --    106.5729               118.1883               134.8327
 Red. masses --      2.0562                 2.7622                 2.6680
 Frc consts  --      0.0138                 0.0227                 0.0286
 IR Inten    --      0.7956                 0.4380                 0.1196

                     13                     14                     15
                      A                      A                      A
 Frequencies --    152.7097               157.0036               166.6721
 Red. masses --      1.9101                 2.3831                 3.6489
 Frc consts  --      0.0262                 0.0346                 0.0597
 IR Inten    --      0.4160                 0.5590                 0.3080

                     16                     17                     18
                      A                      A                      A
 Frequencies --    172.3274               220.4376               247.2581
 Red. masses --      2.6427                 3.0776                 1.1210
 Frc consts  --      0.0462                 0.0881                 0.0404
 IR Inten    --      0.1095                 1.4501                 0.0144

                     19                     20                     21
                      A                      A                      A
 Frequencies --    254.0262               287.2391               308.8052
 Red. masses --      2.9583                 1.5295                 2.3314
 Frc consts  --      0.1125                 0.0744                 0.1310
 IR Inten    --      1.8287                54.4941                55.0088

                     22                     23                     24
                      A                      A                      A
 Frequencies --    313.9096               378.6064               393.1954
 Red. masses --      3.1923                 3.5591                 2.2941
 Frc consts  --      0.1853                 0.3006                 0.2090
 IR Inten    --     10.5305                 1.7077                17.9207

                     25                     26                     27
                      A                      A                      A
 Frequencies --    425.0369               479.2489               498.7377
 Red. masses --      2.5614                 3.1228                 2.6592
 Frc consts  --      0.2726                 0.4226                 0.3897
 IR Inten    --      3.0969                 0.5236                 3.6785

                     28                     29                     30
                      A                      A                      A
 Frequencies --    520.0737               573.8961               731.5161
 Red. masses --      2.9509                 2.7048                 1.0604
 Frc consts  --      0.4703                 0.5249                 0.3343
 IR Inten    --      4.6861                 9.4137                 4.3810

                     31                     32                     33
                      A                      A                      A
 Frequencies --    734.0820               737.0701               752.6884
 Red. masses --      1.1151                 1.1001                 1.1331
 Frc consts  --      0.3541                 0.3521                 0.3782
 IR Inten    --      1.4693                 2.0695                 3.0552

                     34                     35                     36
                      A                      A                      A
 Frequencies --    791.5165               804.4125               851.3787
 Red. masses --      1.2099                 1.5435                 1.5815
 Frc consts  --      0.4466                 0.5885                 0.6754
 IR Inten    --      1.0400                 0.6507                 1.9102

                     37                     38                     39
                      A                      A                      A
 Frequencies --    862.9023               895.9496               903.6681
 Red. masses --      1.5431                 1.8652                 1.6734
 Frc consts  --      0.6770                 0.8822                 0.8051
 IR Inten    --      1.6993                 3.1605                 4.9070

                     40                     41                     42
                      A                      A                      A
 Frequencies --    930.3741               964.9218               983.9948
 Red. masses --      1.3186                 2.7504                 1.7414
 Frc consts  --      0.6725                 1.5088                 0.9934
 IR Inten    --      2.5652                 5.6393                14.7095

                     43                     44                     45
                      A                      A                      A
 Frequencies --    994.3552              1017.1996              1021.4500
 Red. masses --      3.5778                 3.3006                 3.0328
 Frc consts  --      2.0843                 2.0121                 1.8644
 IR Inten    --      4.3464                 8.0280                 3.6449

                     46                     47                     48
                      A                      A                      A
 Frequencies --   1026.6136              1044.6730              1058.6612
 Red. masses --      1.3383                 2.6907                 2.3932
 Frc consts  --      0.8311                 1.7301                 1.5803
 IR Inten    --     10.3888                 1.2853                14.7177

                     49                     50                     51
                      A                      A                      A
 Frequencies --   1063.8804              1066.2935              1071.1514
 Red. masses --      2.6888                 1.7375                 2.1477
 Frc consts  --      1.7930                 1.1639                 1.4519
 IR Inten    --      7.5806                 2.6517                 0.1270

                     52                     53                     54
                      A                      A                      A
 Frequencies --   1074.1365              1082.5465              1108.5008
 Red. masses --      2.2191                 3.2599                 2.2540
 Frc consts  --      1.5085                 2.2509                 1.6319
 IR Inten    --     10.7066                55.9243                10.6002

                     55                     56                     57
                      A                      A                      A
 Frequencies --   1121.9350              1144.5015              1146.4138
 Red. masses --      1.4435                 2.6433                 2.2474
 Frc consts  --      1.0705                 2.0400                 1.7402
 IR Inten    --      3.5849                 2.2755                 3.4016

                     58                     59                     60
                      A                      A                      A
 Frequencies --   1176.7024              1214.4770              1231.5110
 Red. masses --      1.5184                 1.7991                 1.2808
 Frc consts  --      1.2387                 1.5635                 1.1445
 IR Inten    --     12.0851                 0.7952                 5.5341

                     61                     62                     63
                      A                      A                      A
 Frequencies --   1241.0038              1250.6213              1266.4592
 Red. masses --      1.5181                 1.3235                 1.3921
 Frc consts  --      1.3775                 1.2197                 1.3155
 IR Inten    --      1.9412                 1.2704                 2.5675

                     64                     65                     66
                      A                      A                      A
 Frequencies --   1278.3019              1290.3149              1304.5092
 Red. masses --      1.2969                 1.2874                 1.2524
 Frc consts  --      1.2486                 1.2628                 1.2557
 IR Inten    --      1.6103                 5.1572                 2.6547

                     67                     68                     69
                      A                      A                      A
 Frequencies --   1313.0981              1324.4337              1326.6969
 Red. masses --      1.2368                 1.0332                 1.1543
 Frc consts  --      1.2565                 1.0678                 1.1970
 IR Inten    --      0.6542                 0.3618                 2.3202

                     70                     71                     72
                      A                      A                      A
 Frequencies --   1327.5442              1334.2301              1337.0534
 Red. masses --      1.1383                 1.1301                 1.1296
 Frc consts  --      1.1820                 1.1853                 1.1898
 IR Inten    --      0.6102                 0.5117                 0.2990

                     73                     74                     75
                      A                      A                      A
 Frequencies --   1340.1309              1355.7762              1368.6723
 Red. masses --      1.2128                 1.3361                 1.3090
 Frc consts  --      1.2833                 1.4470                 1.4447
 IR Inten    --      0.0131                 7.7428                 0.4309

                     76                     77                     78
                      A                      A                      A
 Frequencies --   1379.1339              1390.6114              1397.9053
 Red. masses --      1.4230                 1.4913                 1.4316
 Frc consts  --      1.5946                 1.6991                 1.6483
 IR Inten    --      0.8312                 2.1461                 4.6248

                     79                     80                     81
                      A                      A                      A
 Frequencies --   1400.5378              1402.2802              1407.1228
 Red. masses --      1.5820                 1.4794                 1.3530
 Frc consts  --      1.8283                 1.7140                 1.5784
 IR Inten    --      1.8040                10.9270                 8.7429

                     82                     83                     84
                      A                      A                      A
 Frequencies --   1413.2503              1425.9362              1430.8568
 Red. masses --      1.2588                 1.3078                 1.1973
 Frc consts  --      1.4813                 1.5667                 1.4443
 IR Inten    --      0.3115                18.0554                 5.5460

                     85                     86                     87
                      A                      A                      A
 Frequencies --   1464.1651              1476.5110              1482.0918
 Red. masses --      1.0880                 1.0797                 1.0729
 Frc consts  --      1.3742                 1.3868                 1.3886
 IR Inten    --      2.4236                 0.2246                 0.1827

                     88                     89                     90
                      A                      A                      A
 Frequencies --   1482.8624              1486.7661              1488.6670
 Red. masses --      1.0727                 1.0709                 1.0797
 Frc consts  --      1.3898                 1.3948                 1.4098
 IR Inten    --      0.0172                 0.3104                 2.0615

                     91                     92                     93
                      A                      A                      A
 Frequencies --   1494.7460              1499.7410              1502.7199
 Red. masses --      1.0778                 1.0403                 1.0948
 Frc consts  --      1.4189                 1.3787                 1.4566
 IR Inten    --      0.2565                 4.8693                 3.0895

                     94                     95                     96
                      A                      A                      A
 Frequencies --   1504.1655              1506.1953              1513.0161
 Red. masses --      1.0835                 1.0894                 1.0918
 Frc consts  --      1.4444                 1.4561                 1.4726
 IR Inten    --      0.3008                 1.9109                 0.2337

                     97                     98                     99
                      A                      A                      A
 Frequencies --   1517.9298              1836.8013              2843.4146
 Red. masses --      1.0976                10.1072                 1.0813
 Frc consts  --      1.4901                20.0913                 5.1507
 IR Inten    --      4.3712               205.4467               113.1176

                    100                    101                    102
                      A                      A                      A
 Frequencies --   2966.4462              2987.6888              2994.2844
 Red. masses --      1.0807                 1.0660                 1.0600
 Frc consts  --      5.6030                 5.6062                 5.5993
 IR Inten    --     14.2495                74.0469                 1.3597

                    103                    104                    105
                      A                      A                      A
 Frequencies --   2995.9226              2998.8391              2999.0164
 Red. masses --      1.0608                 1.0586                 1.0593
 Frc consts  --      5.6098                 5.6089                 5.6136
 IR Inten    --      2.0680                 3.0310                 1.0019

                    106                    107                    108
                      A                      A                      A
 Frequencies --   3002.8531              3007.5652              3007.8819
 Red. masses --      1.0650                 1.0628                 1.0647
 Frc consts  --      5.6581                 5.6639                 5.6754
 IR Inten    --      3.1196                 9.9887                 3.9163

                    109                    110                    111
                      A                      A                      A
 Frequencies --   3009.8265              3015.7689              3018.1518
 Red. masses --      1.0637                 1.0638                 1.0931
 Frc consts  --      5.6775                 5.7003                 5.8665
 IR Inten    --     49.4670               100.1499                19.0033

                    112                    113                    114
                      A                      A                      A
 Frequencies --   3022.4012              3024.8982              3027.5730
 Red. masses --      1.0985                 1.0600                 1.0357
 Frc consts  --      5.9121                 5.7145                 5.5931
 IR Inten    --      4.9417                44.6602                42.0065

                    115                    116                    117
                      A                      A                      A
 Frequencies --   3030.9636              3033.9780              3043.6848
 Red. masses --      1.1010                 1.0992                 1.0958
 Frc consts  --      5.9591                 5.9615                 5.9810
 IR Inten    --     11.4733                16.6218                 6.8749

                    118                    119                    120
                      A                      A                      A
 Frequencies --   3048.2320              3057.6401              3060.9825
 Red. masses --      1.1039                 1.0959                 1.1047
 Frc consts  --      6.0433                 6.0365                 6.0986
 IR Inten    --      2.0179                45.2114               117.4082

                    121                    122                    123
                      A                      A                      A
 Frequencies --   3066.7043              3093.6647              3097.5242
 Red. masses --      1.1015                 1.1020                 1.0975
 Frc consts  --      6.1037                 6.2141                 6.2040
 IR Inten    --     40.8575                57.7912                19.9344

                    124                    125                    126
                      A                      A                      A
 Frequencies --   3098.2540              3098.9447              3815.0477
 Red. masses --      1.0930                 1.1009                 1.0661
 Frc consts  --      6.1816                 6.2293                 9.1420
 IR Inten    --     43.6986                40.5932                16.1217

 - Thermochemistry -
 -------------------
 Temperature   298.150 Kelvin.  Pressure   1.00000 Atm.
 Atom     1 has atomic number  6 and mass  12.00000

 Molecular mass:   228.20893 amu.
 Principal axes and moments of inertia in atomic units:
                           1         2         3
     Eigenvalues --  1288.70042********************
           X            0.99997   0.00616   0.00400
           Y           -0.00608   0.99976  -0.02102
           Z           -0.00413   0.02100   0.99977
 This molecule is an asymmetric top.
 Rotational symmetry number  1.
 Warning -- assumption of classical behavior for rotation
           may cause significant error
 Rotational temperatures (Kelvin)      0.06721     0.00458     0.00439
 Rotational constants (GHZ):           1.40044     0.09536     0.09140
 Zero-point vibrational energy    1052810.8 (Joules/Mol)
                                  251.62783 (Kcal/Mol)
 Warning -- explicit consideration of  29 degrees of freedom as
           vibrations may cause significant error
 Vibrational temperatures:     23.34    36.86    41.45    58.35    62.48
          (Kelvin)             79.86   105.84   125.30   138.37   153.33
                              170.05   193.99   219.72   225.89   239.80
                              247.94   317.16   355.75   365.49   413.27
                              444.30   451.65   544.73   565.72   611.53
                              689.53   717.57   748.27   825.71  1052.49
                             1056.18  1060.48  1082.95  1138.82  1157.37
                             1224.94  1241.52  1289.07  1300.18  1338.60
                             1388.31  1415.75  1430.66  1463.52  1469.64
                             1477.07  1503.05  1523.18  1530.69  1534.16
                             1541.15  1545.44  1557.54  1594.89  1614.21
                             1646.68  1649.43  1693.01  1747.36  1771.87
                             1785.53  1799.37  1822.15  1839.19  1856.48
                             1876.90  1889.26  1905.56  1908.82  1910.04
                             1919.66  1923.72  1928.15  1950.66  1969.21
                             1984.27  2000.78  2011.27  2015.06  2017.57
                             2024.54  2033.35  2051.60  2058.68  2106.61
                             2124.37  2132.40  2133.51  2139.12  2141.86
                             2150.61  2157.79  2162.08  2164.16  2167.08
                             2176.89  2183.96  2642.75  4091.04  4268.05
                             4298.62  4308.11  4310.46  4314.66  4314.92
                             4320.44  4327.22  4327.67  4330.47  4339.02
                             4342.45  4348.56  4352.15  4356.00  4360.88
                             4365.22  4379.18  4385.73  4399.26  4404.07
                             4412.30  4451.09  4456.65  4457.70  4458.69
                             5489.00

 Zero-point correction=                           0.400994 (Hartree/Particle)
 Thermal correction to Energy=                    0.422117
 Thermal correction to Enthalpy=                  0.423061
 Thermal correction to Gibbs Free Energy=         0.346649
 Sum of electronic and zero-point Energies=           -700.454745
 Sum of electronic and thermal Energies=              -700.433623
 Sum of electronic and thermal Enthalpies=            -700.432678
 Sum of electronic and thermal Free Energies=         -700.509091

                     E (Thermal)             CV                S
                      KCal/Mol        Cal/Mol-Kelvin    Cal/Mol-Kelvin
 Total                  264.883             73.766            160.825
 Electronic               0.000              0.000              0.000
 Translational            0.889              2.981             42.177
 Rotational               0.889              2.981             34.531
 Vibrational            263.105             67.804             84.116
 Vibration     1          0.593              1.986              7.050
 Vibration     2          0.593              1.985              6.143
 Vibration     3          0.593              1.984              5.910
 Vibration     4          0.594              1.981              5.232
 Vibration     5          0.595              1.980              5.096
 Vibration     6          0.596              1.975              4.611
 Vibration     7          0.599              1.966              4.056
 Vibration     8          0.601              1.958              3.724
 Vibration     9          0.603              1.952              3.530
 Vibration    10          0.605              1.944              3.330
 Vibration    11          0.608              1.934              3.130
 Vibration    12          0.613              1.919              2.876
 Vibration    13          0.619              1.900              2.638
 Vibration    14          0.621              1.895              2.586
 Vibration    15          0.624              1.883              2.473
 Vibration    16          0.626              1.877              2.410
 Vibration    17          0.647              1.810              1.955
 Vibration    18          0.661              1.767              1.750
 Vibration    19          0.665              1.756              1.702
 Vibration    20          0.684              1.697              1.490
 Vibration    21          0.698              1.657              1.369
 Vibration    22          0.702              1.647              1.342
 Vibration    23          0.749              1.516              1.045
 Vibration    24          0.760              1.485              0.988
 Vibration    25          0.787              1.416              0.875
 Vibration    26          0.836              1.296              0.712
 Vibration    27          0.854              1.253              0.661
 Vibration    28          0.875              1.206              0.610
 Vibration    29          0.930              1.088              0.497

 Optimization completed.
    -- Stationary point found.
 Normal termination of Gaussian 16 at Mon May 22 20:36:10 2023.
