 Gaussian 16, Revision A.03,
 Gaussian 16:  ES64L-G16RevA.03 25-Dec-2016

 -----------------------------
 # opt freq b3lyp/6-31g(2df,p)
 -----------------------------

 -------------------
 Title Card Required
 -------------------
 Symbolic Z-matrix:
 Charge =  0 Multiplicity = 1

 SCF Done:  E(RB3LYP) =  -542.364133901     A.U. after   13 cycles
 SCF Done:  E(RB3LYP) =  -542.372714039     A.U. after   13 cycles
 SCF Done:  E(RB3LYP) =  -542.367610412     A.U. after   13 cycles
 SCF Done:  E(RB3LYP) =  -542.373220338     A.U. after   13 cycles
 SCF Done:  E(RB3LYP) =  -542.375245547     A.U. after   13 cycles
 SCF Done:  E(RB3LYP) =  -542.375874289     A.U. after   13 cycles
 SCF Done:  E(RB3LYP) =  -542.376535803     A.U. after   13 cycles
 SCF Done:  E(RB3LYP) =  -542.376764219     A.U. after   12 cycles
 SCF Done:  E(RB3LYP) =  -542.376840682     A.U. after   11 cycles
 SCF Done:  E(RB3LYP) =  -542.376900624     A.U. after   11 cycles
 SCF Done:  E(RB3LYP) =  -542.377896151     A.U. after   11 cycles
 SCF Done:  E(RB3LYP) =  -542.378049027     A.U. after   11 cycles
 SCF Done:  E(RB3LYP) =  -542.378072045     A.U. after   10 cycles
 SCF Done:  E(RB3LYP) =  -542.378112523     A.U. after   11 cycles
 SCF Done:  E(RB3LYP) =  -542.378115773     A.U. after   10 cycles
 SCF Done:  E(RB3LYP) =  -542.378115969     A.U. after   10 cycles
 SCF Done:  E(RB3LYP) =  -542.378119086     A.U. after    9 cycles
 SCF Done:  E(RB3LYP) =  -542.378118708     A.U. after    9 cycles
 SCF Done:  E(RB3LYP) =  -542.378119353     A.U. after    8 cycles
 Optimization completed.
    -- Stationary point found.
 Normal termination of Gaussian 16 at Tue May 23 13:30:09 2023.

 ----------------------------------------------------------------------
 #N Geom=AllCheck Guess=TCheck SCRF=Check GenChk RB3LYP/6-31G(2df,p) Fr
 eq
 ----------------------------------------------------------------------

 Structure from the checkpoint file:  "CCCCC1qCdOrOCCC1C.chk"
 -------------------
 Title Card Required
 -------------------
 Charge =  0 Multiplicity = 1

                         Standard orientation:
 ---------------------------------------------------------------------
 Center     Atomic      Atomic             Coordinates (Angstroms)
 Number     Number       Type             X           Y           Z
 ---------------------------------------------------------------------
      1          6           0       -4.499210    0.336688   -0.137178
      2          6           0       -3.326693   -0.644638   -0.209493
      3          6           0       -1.960023    0.040894   -0.089222
      4          6           0       -0.794976   -0.952202   -0.188015
      5          6           0        0.599751   -0.396808    0.121458
      6          6           0        0.684000    0.020102    1.598659
      7          8           0        1.182972    1.019414    2.049663
      8          8           0        1.495683   -1.534023    0.091401
      9          6           0        2.760055   -1.169681   -0.481007
     10          6           0        2.705072    0.336640   -0.745239
     11          6           0        1.196318    0.603470   -0.895649
     12          6           0        0.819283    2.084254   -0.785754
     13          1           0       -5.459135   -0.181725   -0.223281
     14          1           0       -4.447221    1.076796   -0.943478
     15          1           0       -4.499981    0.883533    0.812283
     16          1           0       -3.369038   -1.200081   -1.155766
     17          1           0       -3.424430   -1.395202    0.585773
     18          1           0       -1.913996    0.584846    0.864736
     19          1           0       -1.873988    0.801284   -0.874195
     20          1           0       -0.757631   -1.400138   -1.187831
     21          1           0       -0.969561   -1.783899    0.507228
     22          1           0        0.290824   -0.776918    2.271170
     23          1           0        2.890941   -1.740817   -1.409814
     24          1           0        3.561237   -1.456942    0.208614
     25          1           0        3.274170    0.627236   -1.632146
     26          1           0        3.094339    0.899002    0.108207
     27          1           0        0.884680    0.237551   -1.884132
     28          1           0        1.122782    2.497197    0.176411
     29          1           0       -0.255255    2.245168   -0.903613
     30          1           0        1.320563    2.647662   -1.580031
 ---------------------------------------------------------------------

 SCF Done:  E(RB3LYP) =  -542.378119353     A.U. after    1 cycles

 The electronic state is 1-A.
 Alpha  occ. eigenvalues --  -19.14390 -19.14234 -10.26730 -10.24115 -10.22834
 Alpha  occ. eigenvalues --  -10.19504 -10.18574 -10.18542 -10.18359 -10.18332
 Alpha  occ. eigenvalues --  -10.17510 -10.17153  -1.05237  -1.03152  -0.81566
 Alpha  occ. eigenvalues --   -0.79678  -0.76905  -0.71619  -0.68895  -0.63122
 Alpha  occ. eigenvalues --   -0.62674  -0.59202  -0.58299  -0.53752  -0.49976
 Alpha  occ. eigenvalues --   -0.47822  -0.46800  -0.45568  -0.44529  -0.44109
 Alpha  occ. eigenvalues --   -0.42887  -0.41268  -0.40928  -0.40090  -0.38594
 Alpha  occ. eigenvalues --   -0.38175  -0.37013  -0.35671  -0.34820  -0.34446
 Alpha  occ. eigenvalues --   -0.33744  -0.33431  -0.32842  -0.32109  -0.30596
 Alpha  occ. eigenvalues --   -0.27477  -0.23339
 Alpha virt. eigenvalues --   -0.02402   0.07846   0.09220   0.10765   0.10845
 Alpha virt. eigenvalues --    0.11563   0.12561   0.12975   0.14066   0.14902
 Alpha virt. eigenvalues --    0.15874   0.16039   0.16800   0.17506   0.18061

 Mulliken charges:
               1
     1  C   -0.384093
     2  C   -0.161175
     3  C   -0.185640
     4  C   -0.260722
     5  C    0.273387
     6  C    0.142979
     7  O   -0.264562
     8  O   -0.309691
     9  C   -0.083103
    10  C   -0.251199
    11  C   -0.015493
    12  C   -0.436694
    13  H    0.113498
    14  H    0.114317
    15  H    0.116496
    16  H    0.097350
    17  H    0.097704
    18  H    0.102231
    19  H    0.105509
    20  H    0.103111
    21  H    0.106901
    22  H    0.085427
    23  H    0.101087
    24  H    0.107663
    25  H    0.101086
    26  H    0.127310
    27  H    0.076019
    28  H    0.153266
    29  H    0.116882
    30  H    0.110149
 Sum of Mulliken charges =  -0.00000

 Dipole moment (field-independent basis, Debye):
    X=             -0.6198    Y=             -0.4607    Z=             -1.9272  Tot=              2.0762
 Quadrupole moment (field-independent basis, Debye-Ang):
   XX=            -70.8354   YY=            -78.7968   ZZ=            -76.4178
   XY=             -0.4014   XZ=             -4.0531   YZ=             -2.9912

  Exact polarizability: 129.217  -0.199 105.915  -3.420  -0.119 100.801
 Approx polarizability: 156.722   4.132 162.567  -1.362   5.484 154.888

                      1                      2                      3
                      A                      A                      A
 Frequencies --     40.9801                54.8606                64.6057
 Red. masses --      2.7762                 4.9485                 1.8962
 Frc consts  --      0.0027                 0.0088                 0.0047
 IR Inten    --      0.4156                 3.7326                 0.2824

                      4                      5                      6
                      A                      A                      A
 Frequencies --     88.4119               107.3459               140.0032
 Red. masses --      2.5029                 2.9630                 2.0715
 Frc consts  --      0.0115                 0.0201                 0.0239
 IR Inten    --      0.6562                 1.8039                 1.6925

                      7                      8                      9
                      A                      A                      A
 Frequencies --    161.7750               198.0154               228.3111
 Red. masses --      1.9050                 2.0184                 1.7821
 Frc consts  --      0.0294                 0.0466                 0.0547
 IR Inten    --      0.1499                 3.4921                 2.6170

                     10                     11                     12
                      A                      A                      A
 Frequencies --    244.0238               251.7044               278.2963
 Red. masses --      1.1254                 2.8235                 3.6538
 Frc consts  --      0.0395                 0.1054                 0.1667
 IR Inten    --      0.0862                 1.1604                 1.9850

                     13                     14                     15
                      A                      A                      A
 Frequencies --    300.3918               324.8986               376.6326
 Red. masses --      2.7138                 2.8375                 2.7322
 Frc consts  --      0.1443                 0.1765                 0.2283
 IR Inten    --      1.3530                 0.5261                 6.9640

                     16                     17                     18
                      A                      A                      A
 Frequencies --    430.2238               447.0173               568.8916
 Red. masses --      3.0661                 2.9405                 3.5545
 Frc consts  --      0.3344                 0.3462                 0.6778
 IR Inten    --      0.0804                 1.8094                 5.3265

                     19                     20                     21
                      A                      A                      A
 Frequencies --    640.3190               682.8190               724.4805
 Red. masses --      3.6878                 3.9003                 2.2713
 Frc consts  --      0.8909                 1.0714                 0.7024
 IR Inten    --      2.6553                 9.5471                12.5415

                     22                     23                     24
                      A                      A                      A
 Frequencies --    737.1456               789.2343               848.1264
 Red. masses --      1.1948                 1.2255                 1.5645
 Frc consts  --      0.3825                 0.4498                 0.6630
 IR Inten    --     12.9784                 1.2125                 1.3256

                     25                     26                     27
                      A                      A                      A
 Frequencies --    891.8953               908.5017               915.9828
 Red. masses --      2.2406                 1.7762                 2.3898
 Frc consts  --      1.0501                 0.8638                 1.1814
 IR Inten    --      2.4915                12.3958                11.3293

                     28                     29                     30
                      A                      A                      A
 Frequencies --    936.3122               973.1920               992.0339
 Red. masses --      1.7004                 1.3130                 1.6278
 Frc consts  --      0.8783                 0.7327                 0.9439
 IR Inten    --      4.5549                 1.5847                 1.4196

                     31                     32                     33
                      A                      A                      A
 Frequencies --    996.5847              1022.9548              1029.6698
 Red. masses --      2.0615                 2.9944                 2.7629
 Frc consts  --      1.2063                 1.8462                 1.7259
 IR Inten    --      6.3741                 0.1483                32.8702

                     34                     35                     36
                      A                      A                      A
 Frequencies --   1059.9405              1074.9728              1093.0996
 Red. masses --      2.8355                 2.8959                 1.5765
 Frc consts  --      1.8769                 1.9717                 1.1099
 IR Inten    --     21.1993                39.5612                 7.0200

                     37                     38                     39
                      A                      A                      A
 Frequencies --   1120.6551              1126.8012              1147.6478
 Red. masses --      2.3833                 2.4739                 2.2732
 Frc consts  --      1.7635                 1.8507                 1.7640
 IR Inten    --     27.7142                19.7018                 0.7401

                     40                     41                     42
                      A                      A                      A
 Frequencies --   1190.7146              1222.2598              1225.4948
 Red. masses --      1.9138                 1.7340                 1.7030
 Frc consts  --      1.5987                 1.5263                 1.5069
 IR Inten    --      5.2546                 1.3390                 5.8280

                     43                     44                     45
                      A                      A                      A
 Frequencies --   1238.2406              1282.6211              1285.3981
 Red. masses --      1.3131                 1.3755                 1.5546
 Frc consts  --      1.1862                 1.3333                 1.5133
 IR Inten    --      2.5966                 0.4893                 0.9341

                     46                     47                     48
                      A                      A                      A
 Frequencies --   1313.1781              1329.3582              1334.2369
 Red. masses --      1.3078                 1.4393                 1.1376
 Frc consts  --      1.3287                 1.4986                 1.1932
 IR Inten    --      0.5670                 0.1835                 1.3232

                     49                     50                     51
                      A                      A                      A
 Frequencies --   1355.9088              1363.2278              1375.4074
 Red. masses --      1.2518                 1.4327                 1.4257
 Frc consts  --      1.3560                 1.5687                 1.5890
 IR Inten    --      0.4107                 5.2321                 2.7992

                     52                     53                     54
                      A                      A                      A
 Frequencies --   1385.4480              1397.2165              1412.4924
 Red. masses --      1.3494                 1.5455                 1.2541
 Frc consts  --      1.5261                 1.7776                 1.4742
 IR Inten    --      1.8867                 2.4610                 6.5005

                     55                     56                     57
                      A                      A                      A
 Frequencies --   1414.6984              1430.4229              1482.5207
 Red. masses --      1.2437                 1.2240                 1.0729
 Frc consts  --      1.4665                 1.4756                 1.3893
 IR Inten    --      0.1252                 9.3432                 0.7363

                     58                     59                     60
                      A                      A                      A
 Frequencies --   1486.1072              1493.7638              1497.6757
 Red. masses --      1.0741                 1.0763                 1.0729
 Frc consts  --      1.3977                 1.4150                 1.4179
 IR Inten    --      1.5153                 2.5121                 3.2131

                     61                     62                     63
                      A                      A                      A
 Frequencies --   1499.8901              1500.9870              1511.6859
 Red. masses --      1.0412                 1.0581                 1.0778
 Frc consts  --      1.3800                 1.4045                 1.4512
 IR Inten    --      6.0739                 2.2613                 6.1531

                     64                     65                     66
                      A                      A                      A
 Frequencies --   1514.6796              1530.0783              1825.2403
 Red. masses --      1.0639                 1.0912                10.7266
 Frc consts  --      1.4381                 1.5052                21.0549
 IR Inten    --      1.6322                 1.3180               121.9885

                     67                     68                     69
                      A                      A                      A
 Frequencies --   2868.5873              3001.5044              3008.7446
 Red. masses --      1.0828                 1.0825                 1.0622
 Frc consts  --      5.2497                 5.7458                 5.6655
 IR Inten    --    104.0069                16.6540                 2.4354

                     70                     71                     72
                      A                      A                      A
 Frequencies --   3011.5282              3015.7839              3024.2118
 Red. masses --      1.0645                 1.0606                 1.0644
 Frc consts  --      5.6880                 5.6831                 5.7354
 IR Inten    --     74.6006                11.5746                44.8088

                     73                     74                     75
                      A                      A                      A
 Frequencies --   3029.6457              3039.6223              3047.1034
 Red. masses --      1.0367                 1.0918                 1.0449
 Frc consts  --      5.6063                 5.9434                 5.7158
 IR Inten    --     32.2103                 9.6493                22.3433

                     76                     77                     78
                      A                      A                      A
 Frequencies --   3055.1701              3055.9692              3065.9394
 Red. masses --      1.0969                 1.0876                 1.0719
 Frc consts  --      6.0321                 5.9842                 5.9364
 IR Inten    --      5.3686                25.0065                39.7343

                     79                     80                     81
                      A                      A                      A
 Frequencies --   3075.0718              3096.3810              3102.5237
 Red. masses --      1.1022                 1.1021                 1.1009
 Frc consts  --      6.1407                 6.2257                 6.2437
 IR Inten    --     43.6698                59.0272                38.5223

                     82                     83                     84
                      A                      A                      A
 Frequencies --   3109.3469              3111.0554              3154.8024
 Red. masses --      1.0960                 1.1064                 1.0990
 Frc consts  --      6.2430                 6.3092                 6.4446
 IR Inten    --     21.7271                26.1430                 7.8573

 - Thermochemistry -
 -------------------
 Temperature   298.150 Kelvin.  Pressure   1.00000 Atm.
 Atom     1 has atomic number  6 and mass  12.00000

 Molecular mass:   170.13068 amu.
 Principal axes and moments of inertia in atomic units:
                           1         2         3
     Eigenvalues --  1191.854483562.019403696.29457
           X            0.99995   0.00047  -0.00949
           Y           -0.00198   0.98714  -0.15986
           Z            0.00929   0.15987   0.98709
 This molecule is an asymmetric top.
 Rotational symmetry number  1.
 Warning -- assumption of classical behavior for rotation
           may cause significant error
 Rotational temperatures (Kelvin)      0.07267     0.02432     0.02343
 Rotational constants (GHZ):           1.51423     0.50666     0.48826
 Zero-point vibrational energy     698563.5 (Joules/Mol)
                                  166.96069 (Kcal/Mol)
 Warning -- explicit consideration of  18 degrees of freedom as
           vibrations may cause significant error
 Vibrational temperatures:     58.96    78.93    92.95   127.21   154.45
          (Kelvin)            201.43   232.76   284.90   328.49   351.10
                              362.15   400.41   432.20   467.46   541.89
                              619.00   643.16   818.51   921.28   982.42
                             1042.37  1060.59  1135.53  1220.26  1283.24
                             1307.13  1317.89  1347.14  1400.21  1427.32
                             1433.86  1471.80  1481.47  1525.02  1546.65
                             1572.73  1612.37  1621.22  1651.21  1713.17
                             1758.56  1763.21  1781.55  1845.41  1849.40
                             1889.37  1912.65  1919.67  1950.85  1961.38
                             1978.90  1993.35  2010.28  2032.26  2035.44
                             2058.06  2133.02  2138.18  2149.19  2154.82
                             2158.01  2159.59  2174.98  2179.29  2201.44
                             2626.11  4127.26  4318.50  4328.91  4332.92
                             4339.04  4351.17  4358.98  4373.34  4384.10
                             4395.71  4396.86  4411.20  4424.34  4455.00
                             4463.84  4473.66  4476.11  4539.06

 Zero-point correction=                           0.266069 (Hartree/Particle)
 Thermal correction to Energy=                    0.279891
 Thermal correction to Enthalpy=                  0.280835
 Thermal correction to Gibbs Free Energy=         0.225014
 Sum of electronic and zero-point Energies=           -542.112051
 Sum of electronic and thermal Energies=              -542.098229
 Sum of electronic and thermal Enthalpies=            -542.097284
 Sum of electronic and thermal Free Energies=         -542.153106

                     E (Thermal)             CV                S
                      KCal/Mol        Cal/Mol-Kelvin    Cal/Mol-Kelvin
 Total                  175.634             50.296            117.486
 Electronic               0.000              0.000              0.000
 Translational            0.889              2.981             41.302
 Rotational               0.889              2.981             31.129
 Vibrational            173.857             44.335             45.055
 Vibration     1          0.594              1.981              5.211
 Vibration     2          0.596              1.976              4.634
 Vibration     3          0.597              1.971              4.311
 Vibration     4          0.601              1.957              3.695
 Vibration     5          0.606              1.943              3.316
 Vibration     6          0.615              1.913              2.804
 Vibration     7          0.622              1.889              2.529
 Vibration     8          0.637              1.843              2.151
 Vibration     9          0.651              1.798              1.892
 Vibration    10          0.659              1.773              1.773
 Vibration    11          0.664              1.760              1.719
 Vibration    12          0.679              1.714              1.544
 Vibration    13          0.693              1.673              1.415
 Vibration    14          0.709              1.626              1.285
 Vibration    15          0.747              1.520              1.053
 Vibration    16          0.791              1.404              0.858
 Vibration    17          0.806              1.367              0.805
 Vibration    18          0.925              1.099              0.506

                           ! Non-Optimized Parameters !
 Normal termination of Gaussian 16 at Tue May 23 14:55:14 2023.
