 Gaussian 16, Revision A.03,
 Gaussian 16:  ES64L-G16RevA.03 25-Dec-2016

 -----------------------------
 # opt freq b3lyp/6-31g(2df,p)
 -----------------------------

 -------------------
 Title Card Required
 -------------------
 Symbolic Z-matrix:
 Charge =  0 Multiplicity = 1

 SCF Done:  E(RB3LYP) =  -1185.83721027     A.U. after   15 cycles
 SCF Done:  E(RB3LYP) =  -1185.84792439     A.U. after   13 cycles
 SCF Done:  E(RB3LYP) =  -1185.84905016     A.U. after   12 cycles
 SCF Done:  E(RB3LYP) =  -1185.84918919     A.U. after   11 cycles
 SCF Done:  E(RB3LYP) =  -1185.84922557     A.U. after    9 cycles
 SCF Done:  E(RB3LYP) =  -1185.84927643     A.U. after   10 cycles
 SCF Done:  E(RB3LYP) =  -1185.84945655     A.U. after   12 cycles
 SCF Done:  E(RB3LYP) =  -1185.84998266     A.U. after   12 cycles
 SCF Done:  E(RB3LYP) =  -1185.85133686     A.U. after   13 cycles
 SCF Done:  E(RB3LYP) =  -1185.85726299     A.U. after   13 cycles
 SCF Done:  E(RB3LYP) =  -1185.86173073     A.U. after   11 cycles
 SCF Done:  E(RB3LYP) =  -1185.86307832     A.U. after   14 cycles
 SCF Done:  E(RB3LYP) =  -1185.85901291     A.U. after   14 cycles
 SCF Done:  E(RB3LYP) =  -1185.86356318     A.U. after   11 cycles
 SCF Done:  E(RB3LYP) =  -1185.86373524     A.U. after   10 cycles
 SCF Done:  E(RB3LYP) =  -1185.86377210     A.U. after   10 cycles
 SCF Done:  E(RB3LYP) =  -1185.86377652     A.U. after    8 cycles
 SCF Done:  E(RB3LYP) =  -1185.86377734     A.U. after    7 cycles
 SCF Done:  E(RB3LYP) =  -1185.86377741     A.U. after    6 cycles
 Optimization completed.
    -- Stationary point found.
 Normal termination of Gaussian 16 at Tue May 23 04:02:43 2023.

 ----------------------------------------------------------------------
 #N Geom=AllCheck Guess=TCheck SCRF=Check GenChk RB3LYP/6-31G(2df,p) Fr
 eq
 ----------------------------------------------------------------------

 Structure from the checkpoint file:  "CCCC1dCCdCqCSrSCdC1.chk"
 -------------------
 Title Card Required
 -------------------
 Charge =  0 Multiplicity = 1

                         Standard orientation:
 ---------------------------------------------------------------------
 Center     Atomic      Atomic             Coordinates (Angstroms)
 Number     Number       Type             X           Y           Z
 ---------------------------------------------------------------------
      1          6           0       -5.238386   -1.052193   -0.180757
      2          6           0       -3.761611   -0.845074   -0.526416
      3          6           0       -2.984386   -0.126457    0.594295
      4          6           0       -1.523765    0.113439    0.263246
      5          6           0       -0.583587   -0.757756    0.703172
      6          6           0        0.828358   -0.817032    0.372686
      7          6           0        1.683743    0.199735    0.193947
      8          6           0        3.131264    0.089350   -0.221979
      9         16           0        3.860543   -1.588941   -0.349642
     10         16           0        1.174504    1.900664    0.475460
     11          6           0       -0.166429    2.006367   -0.685124
     12          6           0       -1.252113    1.222656   -0.643960
     13          1           0       -5.765830   -1.571108   -0.987044
     14          1           0       -5.744549   -0.095163   -0.012565
     15          1           0       -5.351711   -1.649683    0.730608
     16          1           0       -3.680987   -0.272875   -1.459058
     17          1           0       -3.282710   -1.812127   -0.721860
     18          1           0       -3.050823   -0.723954    1.510616
     19          1           0       -3.475045    0.831572    0.810460
     20          1           0       -0.943862   -1.602974    1.289324
     21          1           0        1.233000   -1.819904    0.245199
     22          1           0        3.759307    0.691725    0.441180
     23          1           0        3.259829    0.516694   -1.222593
     24          1           0        3.787456   -1.896527    0.959477
     25          1           0       -0.067278    2.778718   -1.441717
     26          1           0       -2.036073    1.439829   -1.369781
 ---------------------------------------------------------------------

 SCF Done:  E(RB3LYP) =  -1185.86377741     A.U. after    1 cycles

 The electronic state is 1-A.
 Alpha  occ. eigenvalues --  -88.87759 -88.87402 -10.22859 -10.22255 -10.21436
 Alpha  occ. eigenvalues --  -10.20145 -10.19714 -10.19227 -10.19091 -10.18837
 Alpha  occ. eigenvalues --  -10.18763 -10.17790  -7.93995  -7.93936  -5.90445
 Alpha  occ. eigenvalues --   -5.90431  -5.90112  -5.90075  -5.89505  -5.89496
 Alpha  occ. eigenvalues --   -0.85568  -0.82065  -0.79002  -0.76971  -0.75378
 Alpha  occ. eigenvalues --   -0.69897  -0.67177  -0.65267  -0.61226  -0.58986
 Alpha  occ. eigenvalues --   -0.53135  -0.50971  -0.49258  -0.46468  -0.45812
 Alpha  occ. eigenvalues --   -0.45070  -0.43525  -0.42184  -0.40638  -0.40380
 Alpha  occ. eigenvalues --   -0.38650  -0.37885  -0.37133  -0.35806  -0.34541
 Alpha  occ. eigenvalues --   -0.33595  -0.33270  -0.33041  -0.29854  -0.27113
 Alpha  occ. eigenvalues --   -0.25286  -0.24310  -0.20568
 Alpha virt. eigenvalues --   -0.04884   0.00656   0.02726   0.03734   0.06537
 Alpha virt. eigenvalues --    0.08262   0.08868   0.09497   0.11019   0.12017
 Alpha virt. eigenvalues --    0.12573   0.14257   0.14817   0.15217   0.16130

 Mulliken charges:
               1
     1  C   -0.379351
     2  C   -0.158641
     3  C   -0.284607
     4  C    0.261296
     5  C   -0.157404
     6  C   -0.128854
     7  C    0.144121
     8  C   -0.265647
     9  S   -0.271284
    10  S   -0.187112
    11  C   -0.129834
    12  C   -0.110514
    13  H    0.114642
    14  H    0.116053
    15  H    0.116111
    16  H    0.100855
    17  H    0.103065
    18  H    0.104861
    19  H    0.104448
    20  H    0.087922
    21  H    0.120946
    22  H    0.153937
    23  H    0.159189
    24  H    0.163115
    25  H    0.120060
    26  H    0.102626
 Sum of Mulliken charges =   0.00000

 Dipole moment (field-independent basis, Debye):
    X=             -1.8836    Y=             -0.2958    Z=             -0.1936  Tot=              1.9165
 Quadrupole moment (field-independent basis, Debye-Ang):
   XX=            -87.0741   YY=            -88.0259   ZZ=            -86.4603
   XY=              1.4036   XZ=              3.3452   YZ=             -6.2782

  Exact polarizability: 199.399  -1.735 141.679   2.911  -9.835 100.861
 Approx polarizability: 270.271   0.102 245.849   8.581 -24.165 171.878

                      1                      2                      3
                      A                      A                      A
 Frequencies --     39.2260                59.1575                75.2537
 Red. masses --      3.9260                 4.2580                 2.9692
 Frc consts  --      0.0036                 0.0088                 0.0099
 IR Inten    --      0.1659                 0.7974                 0.2419

                      4                      5                      6
                      A                      A                      A
 Frequencies --     78.7183               117.5013               153.1230
 Red. masses --      1.7899                 2.8582                 5.8374
 Frc consts  --      0.0065                 0.0233                 0.0806
 IR Inten    --      0.1811                 1.6685                 0.5586

                      7                      8                      9
                      A                      A                      A
 Frequencies --    177.8202               236.6315               243.2875
 Red. masses --      3.6890                 1.2146                 1.1290
 Frc consts  --      0.0687                 0.0401                 0.0394
 IR Inten    --      0.6657                20.8732                 0.2972

                     10                     11                     12
                      A                      A                      A
 Frequencies --    256.2816               259.8624               303.5726
 Red. masses --      3.7541                 5.7561                 2.8761
 Frc consts  --      0.1453                 0.2290                 0.1562
 IR Inten    --      1.3704                 0.7846                 0.7471

                     13                     14                     15
                      A                      A                      A
 Frequencies --    332.3216               346.7521               373.9955
 Red. masses --      3.9161                 3.1588                 3.2571
 Frc consts  --      0.2548                 0.2238                 0.2684
 IR Inten    --      4.4595                 0.6818                 0.7421

                     16                     17                     18
                      A                      A                      A
 Frequencies --    441.7689               517.7694               582.3180
 Red. masses --      4.3590                 4.0432                 2.8592
 Frc consts  --      0.5012                 0.6386                 0.5712
 IR Inten    --      0.7344                 4.1426                13.7297

                     19                     20                     21
                      A                      A                      A
 Frequencies --    656.2155               663.3523               704.2237
 Red. masses --      5.6308                 3.7497                 3.2188
 Frc consts  --      1.4286                 0.9722                 0.9405
 IR Inten    --      3.6900                 3.9414                14.0934

                     22                     23                     24
                      A                      A                      A
 Frequencies --    723.5984               741.5861               747.9813
 Red. masses --      4.6673                 1.6762                 1.5501
 Frc consts  --      1.4398                 0.5431                 0.5110
 IR Inten    --      4.5209                 8.8472                 9.9196

                     25                     26                     27
                      A                      A                      A
 Frequencies --    778.4958               785.2296               870.0426
 Red. masses --      1.6784                 1.8424                 1.9579
 Frc consts  --      0.5993                 0.6693                 0.8732
 IR Inten    --      7.8794                 9.8307                 3.3059

                     28                     29                     30
                      A                      A                      A
 Frequencies --    874.8945               884.5640               908.8449
 Red. masses --      1.3197                 1.5915                 1.7828
 Frc consts  --      0.5952                 0.7337                 0.8676
 IR Inten    --      3.9148                 8.4093                 1.9148

                     31                     32                     33
                      A                      A                      A
 Frequencies --    948.3530               968.0649              1004.2451
 Red. masses --      1.6649                 1.3308                 1.4745
 Frc consts  --      0.8822                 0.7348                 0.8761
 IR Inten    --      1.0916                 0.3414                11.8624

                     34                     35                     36
                      A                      A                      A
 Frequencies --   1026.9911              1040.8924              1084.2723
 Red. masses --      2.5871                 2.9426                 1.9783
 Frc consts  --      1.6077                 1.8785                 1.3703
 IR Inten    --      5.9102                 0.3899                 6.5208

                     37                     38                     39
                      A                      A                      A
 Frequencies --   1106.6990              1140.3335              1185.3052
 Red. masses --      2.1126                 2.7479                 2.0612
 Frc consts  --      1.5245                 2.1053                 1.7062
 IR Inten    --      8.0817                 1.7656                 6.5108

                     40                     41                     42
                      A                      A                      A
 Frequencies --   1214.9677              1219.4131              1256.8750
 Red. masses --      1.0634                 1.0930                 1.3105
 Frc consts  --      0.9249                 0.9575                 1.2198
 IR Inten    --      5.2661                 0.6488                 0.1850

                     43                     44                     45
                      A                      A                      A
 Frequencies --   1271.7963              1306.1314              1318.7507
 Red. masses --      1.3214                 1.3517                 1.2206
 Frc consts  --      1.2592                 1.3586                 1.2507
 IR Inten    --     37.0585                 5.5822                 0.3627

                     46                     47                     48
                      A                      A                      A
 Frequencies --   1323.1106              1356.5227              1377.4747
 Red. masses --      1.2137                 1.3150                 1.4598
 Frc consts  --      1.2519                 1.4257                 1.6320
 IR Inten    --      0.1498                13.0153                 1.3165

                     49                     50                     51
                      A                      A                      A
 Frequencies --   1412.0304              1418.0593              1449.9503
 Red. masses --      1.2444                 1.7041                 1.0870
 Frc consts  --      1.4619                 2.0190                 1.3464
 IR Inten    --      0.3005                 1.4764                 3.1328

                     52                     53                     54
                      A                      A                      A
 Frequencies --   1482.4522              1493.4959              1498.9614
 Red. masses --      1.0754                 1.0634                 1.0406
 Frc consts  --      1.3924                 1.3976                 1.3776
 IR Inten    --      1.1663                 0.3011                 5.5758

                     55                     56                     57
                      A                      A                      A
 Frequencies --   1510.0237              1628.2794              1667.0417
 Red. masses --      1.0834                 8.6848                 6.5156
 Frc consts  --      1.4555                13.5666                10.6684
 IR Inten    --      4.2404                 2.7870                 8.6461

                     58                     59                     60
                      A                      A                      A
 Frequencies --   1684.3136              2672.5623              3017.0363
 Red. masses --      6.3679                 1.0385                 1.0595
 Frc consts  --     10.6437                 4.3702                 5.6824
 IR Inten    --      4.0388                 3.2257                 5.3846

                     61                     62                     63
                      A                      A                      A
 Frequencies --   3027.0884              3030.6713              3048.1477
 Red. masses --      1.0565                 1.0408                 1.0587
 Frc consts  --      5.7040                 5.6325                 5.7955
 IR Inten    --     17.8355                58.9187                 6.9007

                     64                     65                     66
                      A                      A                      A
 Frequencies --   3050.3274              3071.8491              3084.4759
 Red. masses --      1.0977                 1.1031                 1.1037
 Frc consts  --      6.0177                 6.1330                 6.1865
 IR Inten    --      2.9017                12.8539                 2.2241

                     67                     68                     69
                      A                      A                      A
 Frequencies --   3098.3267              3103.4498              3120.5536
 Red. masses --      1.1025                 1.1010                 1.0846
 Frc consts  --      6.2356                 6.2477                 6.2228
 IR Inten    --     47.6042                32.5749                19.6311

                     70                     71                     72
                      A                      A                      A
 Frequencies --   3122.7560              3140.2739              3172.3393
 Red. masses --      1.0837                 1.0866                 1.0936
 Frc consts  --      6.2266                 6.3132                 6.4843
 IR Inten    --     12.5951                 5.2838                16.9353

 - Thermochemistry -
 -------------------
 Temperature   298.150 Kelvin.  Pressure   1.00000 Atm.
 Atom     1 has atomic number  6 and mass  12.00000

 Molecular mass:   198.05369 amu.
 Principal axes and moments of inertia in atomic units:
                           1         2         3
     Eigenvalues --  1372.734455634.180696618.59003
           X            0.99988   0.01544   0.00335
           Y           -0.01532   0.99937  -0.03191
           Z           -0.00384   0.03185   0.99949
 This molecule is an asymmetric top.
 Rotational symmetry number  1.
 Warning -- assumption of classical behavior for rotation
           may cause significant error
 Rotational temperatures (Kelvin)      0.06310     0.01537     0.01309
 Rotational constants (GHZ):           1.31471     0.32032     0.27268
 Zero-point vibrational energy     556796.2 (Joules/Mol)
                                  133.07748 (Kcal/Mol)
 Warning -- explicit consideration of  18 degrees of freedom as
           vibrations may cause significant error
 Vibrational temperatures:     56.44    85.11   108.27   113.26   169.06
          (Kelvin)            220.31   255.84   340.46   350.04   368.73
                              373.88   436.77   478.14   498.90   538.10
                              635.61   744.95   837.83   944.15   954.42
                             1013.22  1041.10  1066.98  1076.18  1120.08
                             1129.77  1251.80  1258.78  1272.69  1307.63
                             1364.47  1392.83  1444.88  1477.61  1497.61
                             1560.03  1592.29  1640.69  1705.39  1748.07
                             1754.46  1808.36  1829.83  1879.23  1897.39
                             1903.66  1951.73  1981.88  2031.60  2040.27
                             2086.16  2132.92  2148.81  2156.67  2172.59
                             2342.73  2398.50  2423.35  3845.22  4340.84
                             4355.30  4360.46  4385.60  4388.74  4419.71
                             4437.87  4457.80  4465.17  4489.78  4492.95
                             4518.15  4564.29

 Zero-point correction=                           0.212072 (Hartree/Particle)
 Thermal correction to Energy=                    0.225669
 Thermal correction to Enthalpy=                  0.226613
 Thermal correction to Gibbs Free Energy=         0.170743
 Sum of electronic and zero-point Energies=          -1185.651705
 Sum of electronic and thermal Energies=             -1185.638109
 Sum of electronic and thermal Enthalpies=           -1185.637164
 Sum of electronic and thermal Free Energies=        -1185.693034

                     E (Thermal)             CV                S
                      KCal/Mol        Cal/Mol-Kelvin    Cal/Mol-Kelvin
 Total                  141.609             50.054            117.588
 Electronic               0.000              0.000              0.000
 Translational            0.889              2.981             41.755
 Rotational               0.889              2.981             32.304
 Vibrational            139.832             44.092             43.529
 Vibration     1          0.594              1.981              5.298
 Vibration     2          0.597              1.974              4.485
 Vibration     3          0.599              1.966              4.011
 Vibration     4          0.600              1.963              3.923
 Vibration     5          0.608              1.935              3.141
 Vibration     6          0.619              1.899              2.633
 Vibration     7          0.628              1.870              2.351
 Vibration     8          0.656              1.785              1.828
 Vibration     9          0.659              1.774              1.779
 Vibration    10          0.666              1.752              1.687
 Vibration    11          0.668              1.746              1.663
 Vibration    12          0.695              1.667              1.397
 Vibration    13          0.714              1.611              1.249
 Vibration    14          0.725              1.582              1.181
 Vibration    15          0.745              1.525              1.063
 Vibration    16          0.802              1.379              0.821
 Vibration    17          0.873              1.211              0.615
 Vibration    18          0.939              1.070              0.481

 Optimization completed.
    -- Stationary point found.
 Normal termination of Gaussian 16 at Tue May 23 05:07:37 2023.
