 Gaussian 16, Revision A.03,
 Gaussian 16:  ES64L-G16RevA.03 25-Dec-2016

 -----------------------------
 # opt freq b3lyp/6-31g(2df,p)
 -----------------------------

 -------------------
 Title Card Required
 -------------------
 Symbolic Z-matrix:
 Charge =  0 Multiplicity = 1

 SCF Done:  E(RB3LYP) =  -511.072339358     A.U. after   12 cycles
 SCF Done:  E(RB3LYP) =  -511.082070116     A.U. after   10 cycles
 SCF Done:  E(RB3LYP) =  -511.082942669     A.U. after    9 cycles
 SCF Done:  E(RB3LYP) =  -511.083108334     A.U. after    8 cycles
 SCF Done:  E(RB3LYP) =  -511.083133525     A.U. after    8 cycles
 SCF Done:  E(RB3LYP) =  -511.083138283     A.U. after    7 cycles
 SCF Done:  E(RB3LYP) =  -511.083139056     A.U. after    6 cycles
 SCF Done:  E(RB3LYP) =  -511.083139117     A.U. after    5 cycles
 SCF Done:  E(RB3LYP) =  -511.083139162     A.U. after    5 cycles
 SCF Done:  E(RB3LYP) =  -511.083139168     A.U. after    5 cycles
 Optimization completed.
    -- Stationary point found.
 Normal termination of Gaussian 16 at Mon May 22 13:09:48 2023.

 ----------------------------------------------------------------------
 #N Geom=AllCheck Guess=TCheck SCRF=Check GenChk RB3LYP/6-31G(2df,p) Fr
 eq
 ----------------------------------------------------------------------

 Structure from the checkpoint file:  "CCCCC1CCC1CCCqCrC.chk"
 -------------------
 Title Card Required
 -------------------
 Charge =  0 Multiplicity = 1

                         Standard orientation:
 ---------------------------------------------------------------------
 Center     Atomic      Atomic             Coordinates (Angstroms)
 Number     Number       Type             X           Y           Z
 ---------------------------------------------------------------------
      1          6           0       -5.161597   -1.778880   -0.230396
      2          6           0       -3.815089   -1.497047    0.441699
      3          6           0       -3.010542   -0.394528   -0.255403
      4          6           0       -1.659242   -0.107125    0.410664
      5          6           0       -0.869910    1.003260   -0.273830
      6          6           0       -1.414600    2.459113   -0.191310
      7          6           0        0.040288    2.960832   -0.006231
      8          6           0        0.463954    1.511263    0.362771
      9          6           0        1.802959    1.000013   -0.159002
     10          6           0        2.086584   -0.469594    0.178820
     11          6           0        3.413199   -1.025168   -0.373351
     12          6           0        4.641237   -0.339101    0.242102
     13          6           0        3.487339   -2.544085   -0.164706
     14          1           0       -5.712094   -2.569345    0.289569
     15          1           0       -5.026154   -2.096653   -1.270376
     16          1           0       -5.794100   -0.884053   -0.240125
     17          1           0       -3.218219   -2.418576    0.468017
     18          1           0       -3.980526   -1.215394    1.490207
     19          1           0       -3.607765    0.527364   -0.281309
     20          1           0       -2.845066   -0.675404   -1.305271
     21          1           0       -1.062211   -1.029176    0.430261
     22          1           0       -1.824362    0.168841    1.462294
     23          1           0       -0.688881    0.734735   -1.323753
     24          1           0       -2.013601    2.606161    0.714041
     25          1           0       -1.980260    2.843930   -1.043385
     26          1           0        0.219441    3.746569    0.732167
     27          1           0        0.486133    3.273685   -0.956383
     28          1           0        0.417045    1.376264    1.451806
     29          1           0        2.598767    1.638271    0.246681
     30          1           0        1.834286    1.133403   -1.250287
     31          1           0        1.266154   -1.085584   -0.211805
     32          1           0        2.070576   -0.603094    1.270606
     33          1           0        3.427698   -0.834200   -1.456742
     34          1           0        4.661331   -0.480530    1.329826
     35          1           0        4.655733    0.736762    0.045742
     36          1           0        5.567834   -0.759972   -0.162512
     37          1           0        3.470243   -2.793432    0.903314
     38          1           0        4.408910   -2.959698   -0.585917
     39          1           0        2.641610   -3.054593   -0.637624
 ---------------------------------------------------------------------

 SCF Done:  E(RB3LYP) =  -511.083139168     A.U. after    1 cycles

 The electronic state is 1-A.
 Alpha  occ. eigenvalues --  -10.18133 -10.17540 -10.17519 -10.17429 -10.17175
 Alpha  occ. eigenvalues --  -10.17099 -10.17098 -10.17061 -10.17053 -10.17037
 Alpha  occ. eigenvalues --  -10.16858 -10.16695 -10.16687  -0.84269  -0.80256
 Alpha  occ. eigenvalues --   -0.78730  -0.73851  -0.72590  -0.67638  -0.65527
 Alpha  occ. eigenvalues --   -0.65252  -0.60023  -0.59030  -0.56816  -0.55146
 Alpha  occ. eigenvalues --   -0.53582  -0.46741  -0.46250  -0.45486  -0.45226
 Alpha  occ. eigenvalues --   -0.42644  -0.42396  -0.41978  -0.41058  -0.39630
 Alpha  occ. eigenvalues --   -0.38637  -0.37764  -0.37173  -0.36331  -0.35962
 Alpha  occ. eigenvalues --   -0.34443  -0.34289  -0.33922  -0.33326  -0.32384
 Alpha  occ. eigenvalues --   -0.31880  -0.31796  -0.31302  -0.30368  -0.30029
 Alpha  occ. eigenvalues --   -0.27608  -0.27462
 Alpha virt. eigenvalues --    0.08266   0.09243   0.09813   0.10310   0.11189
 Alpha virt. eigenvalues --    0.11942   0.12680   0.12955   0.14122   0.14172
 Alpha virt. eigenvalues --    0.15118   0.15786   0.15984   0.16379   0.17255

 Mulliken charges:
               1
     1  C   -0.379448
     2  C   -0.162624
     3  C   -0.156080
     4  C   -0.220686
     5  C    0.044419
     6  C   -0.231255
     7  C   -0.254462
     8  C    0.022488
     9  C   -0.223590
    10  C   -0.167887
    11  C    0.045359
    12  C   -0.380676
    13  C   -0.388573
    14  H    0.109356
    15  H    0.112130
    16  H    0.112454
    17  H    0.092555
    18  H    0.092701
    19  H    0.095160
    20  H    0.088645
    21  H    0.093535
    22  H    0.085696
    23  H    0.058604
    24  H    0.093949
    25  H    0.092351
    26  H    0.091573
    27  H    0.094471
    28  H    0.059939
    29  H    0.093365
    30  H    0.084483
    31  H    0.093483
    32  H    0.085672
    33  H    0.068106
    34  H    0.108871
    35  H    0.114017
    36  H    0.107869
    37  H    0.109965
    38  H    0.106902
    39  H    0.107162
 Sum of Mulliken charges =  -0.00000

 Dipole moment (field-independent basis, Debye):
    X=              0.0461    Y=             -0.0543    Z=             -0.0286  Tot=              0.0767
 Quadrupole moment (field-independent basis, Debye-Ang):
   XX=            -87.5231   YY=            -87.4576   ZZ=            -85.1714
   XY=             -0.0879   XZ=             -0.6558   YZ=              0.4171

  Exact polarizability: 163.940   1.027 144.156   0.954  -0.227 118.241
 Approx polarizability: 194.277  -0.437 192.178  -0.430   0.372 191.187

                      1                      2                      3
                      A                      A                      A
 Frequencies --     26.6230                33.3003                52.5114
 Red. masses --      2.5257                 3.1867                 1.9074
 Frc consts  --      0.0011                 0.0021                 0.0031
 IR Inten    --      0.0046                 0.0030                 0.0084

                      4                      5                      6
                      A                      A                      A
 Frequencies --     69.9903                91.1657                99.1451
 Red. masses --      2.5250                 2.3931                 2.6642
 Frc consts  --      0.0073                 0.0117                 0.0154
 IR Inten    --      0.0067                 0.0138                 0.0037

                      7                      8                      9
                      A                      A                      A
 Frequencies --    114.9519               138.6457               153.0725
 Red. masses --      2.1987                 2.2301                 2.0791
 Frc consts  --      0.0171                 0.0253                 0.0287
 IR Inten    --      0.0183                 0.0211                 0.0112

                     10                     11                     12
                      A                      A                      A
 Frequencies --    202.1125               225.6006               244.8715
 Red. masses --      2.3761                 1.0602                 1.2383
 Frc consts  --      0.0572                 0.0318                 0.0437
 IR Inten    --      0.0162                 0.0139                 0.0078

                     13                     14                     15
                      A                      A                      A
 Frequencies --    246.4102               261.2592               274.3799
 Red. masses --      1.2654                 1.9740                 2.8297
 Frc consts  --      0.0453                 0.0794                 0.1255
 IR Inten    --      0.0086                 0.0264                 0.0323

                     16                     17                     18
                      A                      A                      A
 Frequencies --    320.9618               339.0193               401.5060
 Red. masses --      2.5502                 2.5494                 2.2058
 Frc consts  --      0.1548                 0.1726                 0.2095
 IR Inten    --      0.0048                 0.0663                 0.2219

                     19                     20                     21
                      A                      A                      A
 Frequencies --    412.6384               441.4418               474.7003
 Red. masses --      2.3008                 2.3838                 2.4274
 Frc consts  --      0.2308                 0.2737                 0.3223
 IR Inten    --      0.0906                 0.2240                 0.3260

                     22                     23                     24
                      A                      A                      A
 Frequencies --    512.8731               636.4725               734.9119
 Red. masses --      2.1899                 2.3597                 1.0824
 Frc consts  --      0.3394                 0.5632                 0.3444
 IR Inten    --      0.0443                 1.8144                 2.6957

                     25                     26                     27
                      A                      A                      A
 Frequencies --    758.9904               778.2706               805.8280
 Red. masses --      1.3001                 1.3425                 1.4325
 Frc consts  --      0.4413                 0.4791                 0.5481
 IR Inten    --      1.5095                 0.0424                 0.3728

                     28                     29                     30
                      A                      A                      A
 Frequencies --    814.7758               833.6077               896.5074
 Red. masses --      1.9127                 2.0955                 1.8939
 Frc consts  --      0.7481                 0.8579                 0.8968
 IR Inten    --      0.4408                 0.3018                 1.6684

                     31                     32                     33
                      A                      A                      A
 Frequencies --    901.3074               923.0487               926.2192
 Red. masses --      1.5125                 1.5115                 1.2290
 Frc consts  --      0.7239                 0.7588                 0.6212
 IR Inten    --      0.3335                 0.6725                 0.9074

                     34                     35                     36
                      A                      A                      A
 Frequencies --    933.5434               950.4854               956.2371
 Red. masses --      1.5873                 1.9471                 2.0821
 Frc consts  --      0.8150                 1.0364                 1.1217
 IR Inten    --      0.3624                 0.4544                 1.4351

                     37                     38                     39
                      A                      A                      A
 Frequencies --    965.8479               999.4850              1017.0259
 Red. masses --      1.5344                 1.7259                 2.6620
 Frc consts  --      0.8433                 1.0158                 1.6223
 IR Inten    --      0.3236                 0.6606                 0.2034

                     40                     41                     42
                      A                      A                      A
 Frequencies --   1028.8214              1040.5327              1063.6228
 Red. masses --      1.5414                 2.4519                 2.3944
 Frc consts  --      0.9613                 1.5641                 1.5960
 IR Inten    --      0.4922                 0.2911                 0.4046

                     43                     44                     45
                      A                      A                      A
 Frequencies --   1072.3812              1089.7032              1112.2310
 Red. masses --      1.8188                 1.5929                 2.0074
 Frc consts  --      1.2323                 1.1144                 1.4631
 IR Inten    --      0.1691                 1.1920                 1.2393

                     46                     47                     48
                      A                      A                      A
 Frequencies --   1122.1058              1142.1040              1160.7596
 Red. masses --      2.2714                 2.2008                 2.2148
 Frc consts  --      1.6851                 1.6914                 1.7582
 IR Inten    --      0.1222                 0.8151                 0.5599

                     49                     50                     51
                      A                      A                      A
 Frequencies --   1192.3030              1196.5845              1218.1792
 Red. masses --      1.8190                 2.1230                 1.4386
 Frc consts  --      1.5236                 1.7910                 1.2578
 IR Inten    --      4.4465                 0.7791                 1.4874

                     52                     53                     54
                      A                      A                      A
 Frequencies --   1224.7742              1248.0440              1253.6177
 Red. masses --      1.5767                 1.4766                 1.1638
 Frc consts  --      1.3935                 1.3551                 1.0776
 IR Inten    --      3.2904                 0.6109                 0.1805

                     55                     56                     57
                      A                      A                      A
 Frequencies --   1261.3506              1270.3761              1272.8709
 Red. masses --      1.3676                 1.3005                 1.3301
 Frc consts  --      1.2820                 1.2366                 1.2697
 IR Inten    --      0.8143                 2.5901                 4.0603

                     58                     59                     60
                      A                      A                      A
 Frequencies --   1295.7203              1300.3553              1316.9517
 Red. masses --      1.3845                 1.3170                 1.2351
 Frc consts  --      1.3695                 1.3121                 1.2621
 IR Inten    --      4.5260                 0.9544                 0.4521

                     61                     62                     63
                      A                      A                      A
 Frequencies --   1327.4827              1331.5187              1345.5363
 Red. masses --      1.1900                 1.0646                 1.3141
 Frc consts  --      1.2355                 1.1121                 1.4018
 IR Inten    --      0.3918                 0.1719                 2.1884

                     64                     65                     66
                      A                      A                      A
 Frequencies --   1356.0655              1369.7410              1377.8269
 Red. masses --      1.3825                 1.3278                 1.4147
 Frc consts  --      1.4979                 1.4678                 1.5823
 IR Inten    --      1.6621                 1.5686                 6.2814

                     67                     68                     69
                      A                      A                      A
 Frequencies --   1391.5089              1396.3299              1398.4064
 Red. masses --      1.5049                 1.5868                 1.6172
 Frc consts  --      1.7168                 1.8229                 1.8633
 IR Inten    --      4.2285                 0.4531                 2.2425

                     70                     71                     72
                      A                      A                      A
 Frequencies --   1400.5404              1412.8593              1421.6327
 Red. masses --      1.2792                 1.2495                 1.2438
 Frc consts  --      1.4784                 1.4696                 1.4811
 IR Inten    --      4.5013                 0.4710                 2.4294

                     73                     74                     75
                      A                      A                      A
 Frequencies --   1475.5949              1479.3305              1483.6266
 Red. masses --      1.0766                 1.0797                 1.0777
 Frc consts  --      1.3812                 1.3922                 1.3976
 IR Inten    --      0.1471                 0.3049                 1.1015

                     76                     77                     78
                      A                      A                      A
 Frequencies --   1486.2944              1488.7604              1492.0673
 Red. masses --      1.0719                 1.0468                 1.0675
 Frc consts  --      1.3951                 1.3670                 1.4002
 IR Inten    --      1.2338                 0.3473                 1.2995

                     79                     80                     81
                      A                      A                      A
 Frequencies --   1497.7991              1499.4138              1499.7220
 Red. masses --      1.0852                 1.0803                 1.0407
 Frc consts  --      1.4344                 1.4310                 1.3790
 IR Inten    --      1.5846                 0.4705                 4.9282

                     82                     83                     84
                      A                      A                      A
 Frequencies --   1502.9286              1505.1310              1511.4419
 Red. masses --      1.1192                 1.0570                 1.0505
 Frc consts  --      1.4894                 1.4108                 1.4139
 IR Inten    --      0.7848                 2.1970                 9.1600

                     85                     86                     87
                      A                      A                      A
 Frequencies --   1512.5501              2989.4980              2995.2077
 Red. masses --      1.0889                 1.0788                 1.0624
 Frc consts  --      1.4678                 5.6806                 5.6157
 IR Inten    --      2.6388                 6.3496                 1.2460

                     88                     89                     90
                      A                      A                      A
 Frequencies --   2997.5839              3001.5296              3003.7171
 Red. masses --      1.0606                 1.0685                 1.0673
 Frc consts  --      5.6149                 5.6718                 5.6735
 IR Inten    --      1.7546                 5.1771                29.8599

                     91                     92                     93
                      A                      A                      A
 Frequencies --   3005.5452              3014.0722              3017.5892
 Red. masses --      1.0716                 1.0645                 1.0738
 Frc consts  --      5.7034                 5.6979                 5.7609
 IR Inten    --      7.3974                15.9443                79.5935

                     94                     95                     96
                      A                      A                      A
 Frequencies --   3021.0156              3023.6973              3026.4068
 Red. masses --      1.0374                 1.0955                 1.0418
 Frc consts  --      5.5783                 5.9013                 5.6222
 IR Inten    --     35.5888                 7.1503                20.1494

                     97                     98                     99
                      A                      A                      A
 Frequencies --   3027.5379              3031.7482              3037.6501
 Red. masses --      1.0362                 1.0910                 1.0993
 Frc consts  --      5.5959                 5.9084                 5.9765
 IR Inten    --     37.7459                 8.8374                 3.8462

                    100                    101                    102
                      A                      A                      A
 Frequencies --   3042.7825              3045.5840              3054.1949
 Red. masses --      1.0617                 1.0622                 1.1022
 Frc consts  --      5.7916                 5.8051                 6.0579
 IR Inten    --     48.4169                37.3967                57.2853

                    103                    104                    105
                      A                      A                      A
 Frequencies --   3058.5578              3084.7992              3090.9015
 Red. masses --      1.1027                 1.1002                 1.1037
 Frc consts  --      6.0779                 6.1685                 6.2128
 IR Inten    --     86.1528                 6.2324                25.6592

                    106                    107                    108
                      A                      A                      A
 Frequencies --   3090.9302              3093.6402              3095.9089
 Red. masses --      1.1000                 1.1020                 1.1013
 Frc consts  --      6.1919                 6.2141                 6.2192
 IR Inten    --     55.9743                59.8737                45.9691

                    109                    110                    111
                      A                      A                      A
 Frequencies --   3098.8393              3105.2968              3105.9438
 Red. masses --      1.1010                 1.1066                 1.0996
 Frc consts  --      6.2290                 6.2871                 6.2497
 IR Inten    --     38.3892                64.1922                36.3574

 - Thermochemistry -
 -------------------
 Temperature   298.150 Kelvin.  Pressure   1.00000 Atm.
 Atom     1 has atomic number  6 and mass  12.00000

 Molecular mass:   182.20345 amu.
 Principal axes and moments of inertia in atomic units:
                           1         2         3
     Eigenvalues --  1870.393435851.750577463.20513
           X            1.00000   0.00211   0.00141
           Y           -0.00211   1.00000  -0.00088
           Z           -0.00141   0.00088   1.00000
 This molecule is an asymmetric top.
 Rotational symmetry number  1.
 Warning -- assumption of classical behavior for rotation
           may cause significant error
 Rotational temperatures (Kelvin)      0.04631     0.01480     0.01161
 Rotational constants (GHZ):           0.96490     0.30841     0.24182
 Zero-point vibrational energy     956877.5 (Joules/Mol)
                                  228.69920 (Kcal/Mol)
 Warning -- explicit consideration of  22 degrees of freedom as
           vibrations may cause significant error
 Vibrational temperatures:     38.30    47.91    75.55   100.70   131.17
          (Kelvin)            142.65   165.39   199.48   220.24   290.79
                              324.59   352.32   354.53   375.89   394.77
                              461.79   487.77   577.68   593.69   635.14
                              682.99   737.91   915.74  1057.37  1092.02
                             1119.76  1159.41  1172.28  1199.38  1289.87
                             1296.78  1328.06  1332.62  1343.16  1367.54
                             1375.81  1389.64  1438.04  1463.27  1480.24
                             1497.09  1530.32  1542.92  1567.84  1600.25
                             1614.46  1643.23  1670.07  1715.46  1721.62
                             1752.69  1762.18  1795.66  1803.68  1814.80
                             1827.79  1831.38  1864.25  1870.92  1894.80
                             1909.95  1915.76  1935.93  1951.08  1970.75
                             1982.39  2002.07  2009.01  2011.99  2015.07
                             2032.79  2045.41  2123.05  2128.43  2134.61
                             2138.45  2141.99  2146.75  2155.00  2157.32
                             2157.77  2162.38  2165.55  2174.63  2176.22
                             4301.22  4309.44  4312.85  4318.53  4321.68
                             4324.31  4336.58  4341.64  4346.57  4350.43
                             4354.32  4355.95  4362.01  4370.50  4377.89
                             4381.92  4394.31  4400.58  4438.34  4447.12
                             4447.16  4451.06  4454.32  4458.54  4467.83
                             4468.76

 Zero-point correction=                           0.364455 (Hartree/Particle)
 Thermal correction to Energy=                    0.380908
 Thermal correction to Enthalpy=                  0.381852
 Thermal correction to Gibbs Free Energy=         0.319046
 Sum of electronic and zero-point Energies=           -510.718684
 Sum of electronic and thermal Energies=              -510.702232
 Sum of electronic and thermal Enthalpies=            -510.701287
 Sum of electronic and thermal Free Energies=         -510.764094

                     E (Thermal)             CV                S
                      KCal/Mol        Cal/Mol-Kelvin    Cal/Mol-Kelvin
 Total                  239.023             60.671            132.187
 Electronic               0.000              0.000              0.000
 Translational            0.889              2.981             41.506
 Rotational               0.889              2.981             32.768
 Vibrational            237.246             54.710             57.912
 Vibration     1          0.593              1.984              6.066
 Vibration     2          0.594              1.983              5.622
 Vibration     3          0.596              1.977              4.720
 Vibration     4          0.598              1.968              4.154
 Vibration     5          0.602              1.955              3.635
 Vibration     6          0.604              1.950              3.471
 Vibration     7          0.608              1.937              3.184
 Vibration     8          0.614              1.915              2.822
 Vibration     9          0.619              1.899              2.634
 Vibration    10          0.639              1.837              2.114
 Vibration    11          0.650              1.802              1.914
 Vibration    12          0.660              1.771              1.767
 Vibration    13          0.661              1.769              1.756
 Vibration    14          0.669              1.744              1.653
 Vibration    15          0.677              1.721              1.568
 Vibration    16          0.706              1.633              1.305
 Vibration    17          0.719              1.598              1.217
 Vibration    18          0.767              1.467              0.957
 Vibration    19          0.776              1.443              0.917
 Vibration    20          0.801              1.380              0.822
 Vibration    21          0.831              1.306              0.725
 Vibration    22          0.868              1.221              0.627

 Optimization completed.
    -- Stationary point found.
 Normal termination of Gaussian 16 at Mon May 22 15:22:16 2023.
