 Gaussian 16, Revision A.03,
 Gaussian 16:  ES64L-G16RevA.03 25-Dec-2016

 -----------------------------
 # opt freq b3lyp/6-31g(2df,p)
 -----------------------------

 -------------------
 Title Card Required
 -------------------
 Symbolic Z-matrix:
 Charge =  0 Multiplicity = 1

 SCF Done:  E(RB3LYP) =  -627.748798016     A.U. after   12 cycles
 SCF Done:  E(RB3LYP) =  -627.779012837     A.U. after   12 cycles
 SCF Done:  E(RB3LYP) =  -627.785797108     A.U. after   13 cycles
 SCF Done:  E(RB3LYP) =  -627.789490784     A.U. after   12 cycles
 SCF Done:  E(RB3LYP) =  -627.789706411     A.U. after   10 cycles
 SCF Done:  E(RB3LYP) =  -627.790129649     A.U. after   11 cycles
 SCF Done:  E(RB3LYP) =  -627.790598654     A.U. after   13 cycles
 SCF Done:  E(RB3LYP) =  -627.791397855     A.U. after   10 cycles
 SCF Done:  E(RB3LYP) =  -627.792390003     A.U. after   11 cycles
 SCF Done:  E(RB3LYP) =  -627.792842604     A.U. after   11 cycles
 SCF Done:  E(RB3LYP) =  -627.794445414     A.U. after    9 cycles
 SCF Done:  E(RB3LYP) =  -627.795121424     A.U. after   11 cycles
 SCF Done:  E(RB3LYP) =  -627.795747859     A.U. after   12 cycles
 SCF Done:  E(RB3LYP) =  -627.795834003     A.U. after   10 cycles
 SCF Done:  E(RB3LYP) =  -627.795859755     A.U. after    9 cycles
 SCF Done:  E(RB3LYP) =  -627.795862402     A.U. after    8 cycles
 SCF Done:  E(RB3LYP) =  -627.795863245     A.U. after    7 cycles
 SCF Done:  E(RB3LYP) =  -627.795863436     A.U. after    6 cycles
 SCF Done:  E(RB3LYP) =  -627.795863435     A.U. after    6 cycles
 Optimization completed.
    -- Stationary point found.
 Normal termination of Gaussian 16 at Mon May 22 22:19:01 2023.

 ----------------------------------------------------------------------
 #N Geom=AllCheck Guess=TCheck SCRF=Check GenChk RB3LYP/6-31G(2df,p) Fr
 eq
 ----------------------------------------------------------------------

 Structure from the checkpoint file:  "CCCCCdCdCCCqCrCCCCCC.chk"
 -------------------
 Title Card Required
 -------------------
 Charge =  0 Multiplicity = 1

                         Standard orientation:
 ---------------------------------------------------------------------
 Center     Atomic      Atomic             Coordinates (Angstroms)
 Number     Number       Type             X           Y           Z
 ---------------------------------------------------------------------
      1          6           0       -8.013616    1.553185   -0.443733
      2          6           0       -6.682480    1.417113    0.300417
      3          6           0       -5.932744    0.124811   -0.039922
      4          6           0       -4.595039   -0.013532    0.705941
      5          6           0       -3.891070   -1.317122    0.405567
      6          6           0       -2.724510   -1.429386   -0.167114
      7          6           0       -1.552105   -1.546862   -0.727675
      8          6           0       -0.231679   -1.612285    0.005653
      9          6           0        0.761522   -0.497062   -0.395503
     10          6           0        0.230018    0.886731    0.001311
     11          6           0        2.149591   -0.789246    0.203858
     12          6           0        3.273622    0.143510   -0.263559
     13          6           0        4.651035   -0.259373    0.276078
     14          6           0        5.782441    0.667970   -0.179601
     15          6           0        7.159879    0.263423    0.356779
     16          6           0        8.284573    1.195291   -0.102467
     17          1           0       -8.525671    2.484306   -0.181245
     18          1           0       -8.687888    0.723407   -0.203829
     19          1           0       -7.862378    1.550874   -1.528940
     20          1           0       -6.861170    1.457332    1.383267
     21          1           0       -6.042353    2.278540    0.067913
     22          1           0       -5.746618    0.078666   -1.120753
     23          1           0       -6.569792   -0.739234    0.195011
     24          1           0       -4.784767    0.050943    1.787145
     25          1           0       -3.937819    0.824789    0.451611
     26          1           0       -4.429025   -2.226536    0.678769
     27          1           0       -1.497262   -1.607210   -1.816236
     28          1           0        0.236349   -2.584128   -0.205599
     29          1           0       -0.410395   -1.576859    1.086415
     30          1           0        0.859247   -0.523544   -1.491753
     31          1           0        0.173697    0.981243    1.092985
     32          1           0       -0.775780    1.048023   -0.396688
     33          1           0        0.870515    1.691113   -0.370870
     34          1           0        2.427281   -1.822743   -0.045482
     35          1           0        2.080095   -0.752868    1.300962
     36          1           0        3.059403    1.174981    0.042800
     37          1           0        3.303861    0.152868   -1.362464
     38          1           0        4.876876   -1.288611   -0.036526
     39          1           0        4.618542   -0.279399    1.374556
     40          1           0        5.559018    1.697007    0.135770
     41          1           0        5.814055    0.690877   -1.278163
     42          1           0        7.383197   -0.764288    0.040547
     43          1           0        7.127824    0.240674    1.454286
     44          1           0        8.363678    1.211718   -1.195323
     45          1           0        9.254268    0.880731    0.296199
     46          1           0        8.106398    2.224340    0.229463
 ---------------------------------------------------------------------

 SCF Done:  E(RB3LYP) =  -627.795863435     A.U. after    1 cycles

 The electronic state is 1-A.
 Alpha  occ. eigenvalues --  -10.18279 -10.18262 -10.18253 -10.18238 -10.18027
 Alpha  occ. eigenvalues --  -10.17845 -10.17709 -10.17620 -10.17461 -10.17277
 Alpha  occ. eigenvalues --  -10.17258 -10.17228 -10.17225 -10.17051 -10.16889
 Alpha  occ. eigenvalues --  -10.16461  -0.81906  -0.80621  -0.79512  -0.77644
 Alpha  occ. eigenvalues --   -0.75523  -0.73470  -0.69820  -0.68893  -0.65767
 Alpha  occ. eigenvalues --   -0.63233  -0.60901  -0.58088  -0.57408  -0.57063
 Alpha  occ. eigenvalues --   -0.55207  -0.50551  -0.47776  -0.47315  -0.45553
 Alpha  occ. eigenvalues --   -0.44645  -0.43961  -0.43254  -0.42396  -0.42115
 Alpha  occ. eigenvalues --   -0.41788  -0.41157  -0.39595  -0.39439  -0.38385
 Alpha  occ. eigenvalues --   -0.37352  -0.36886  -0.36647  -0.35162  -0.34696
 Alpha  occ. eigenvalues --   -0.34564  -0.34063  -0.33463  -0.32776  -0.32615
 Alpha  occ. eigenvalues --   -0.32268  -0.32077  -0.31650  -0.31481  -0.31263
 Alpha  occ. eigenvalues --   -0.29784  -0.23951  -0.23947
 Alpha virt. eigenvalues --    0.03067   0.03205   0.08875   0.09517   0.09792
 Alpha virt. eigenvalues --    0.11186   0.11545   0.11915   0.12328   0.12744
 Alpha virt. eigenvalues --    0.13471   0.14203   0.14808   0.15132   0.15594

 Mulliken charges:
               1
     1  C   -0.380066
     2  C   -0.161472
     3  C   -0.147172
     4  C   -0.223804
     5  C   -0.301200
     6  C    0.388725
     7  C   -0.311729
     8  C   -0.225749
     9  C    0.032601
    10  C   -0.387776
    11  C   -0.181463
    12  C   -0.195244
    13  C   -0.175277
    14  C   -0.159510
    15  C   -0.162666
    16  C   -0.379035
    17  H    0.110727
    18  H    0.113134
    19  H    0.114080
    20  H    0.093572
    21  H    0.095160
    22  H    0.098667
    23  H    0.091505
    24  H    0.101963
    25  H    0.100615
    26  H    0.104213
    27  H    0.103543
    28  H    0.099430
    29  H    0.096523
    30  H    0.066840
    31  H    0.108294
    32  H    0.118846
    33  H    0.112472
    34  H    0.086315
    35  H    0.089481
    36  H    0.096317
    37  H    0.089517
    38  H    0.089998
    39  H    0.090724
    40  H    0.089721
    41  H    0.089488
    42  H    0.092760
    43  H    0.092847
    44  H    0.112271
    45  H    0.109479
    46  H    0.112333
 Sum of Mulliken charges =  -0.00000

 Dipole moment (field-independent basis, Debye):
    X=              0.0260    Y=              0.1653    Z=              0.0583  Tot=              0.1772
 Quadrupole moment (field-independent basis, Debye-Ang):
   XX=           -102.5214   YY=           -105.1015   ZZ=           -103.2964
   XY=             -1.4266   XZ=             -1.7651   YZ=              0.4443

  Exact polarizability: 264.980  -6.314 152.599 -12.631   1.367 144.356
 Approx polarizability: 289.239  -8.015 222.689 -27.396   4.084 232.098

                      1                      2                      3
                      A                      A                      A
 Frequencies --     16.0832                18.1946                33.3974
 Red. masses --      3.6217                 2.8481                 2.0137
 Frc consts  --      0.0006                 0.0006                 0.0013
 IR Inten    --      0.0082                 0.0026                 0.0142

                      4                      5                      6
                      A                      A                      A
 Frequencies --     38.5366                49.9026                58.7347
 Red. masses --      2.8361                 2.5949                 2.3387
 Frc consts  --      0.0025                 0.0038                 0.0048
 IR Inten    --      0.0357                 0.0177                 0.0317

                      7                      8                      9
                      A                      A                      A
 Frequencies --     75.4968                85.5545               101.6680
 Red. masses --      2.7355                 2.4764                 2.3782
 Frc consts  --      0.0092                 0.0107                 0.0145
 IR Inten    --      0.0489                 0.0175                 0.0041

                     10                     11                     12
                      A                      A                      A
 Frequencies --    122.2877               126.3830               146.6769
 Red. masses --      2.2165                 1.9051                 2.5607
 Frc consts  --      0.0195                 0.0179                 0.0325
 IR Inten    --      0.0589                 0.0477                 0.0842

                     13                     14                     15
                      A                      A                      A
 Frequencies --    155.7375               167.3930               213.7145
 Red. masses --      1.9534                 2.8281                 3.7208
 Frc consts  --      0.0279                 0.0467                 0.1001
 IR Inten    --      0.0046                 0.1747                 0.3640

                     16                     17                     18
                      A                      A                      A
 Frequencies --    222.6132               234.7502               243.5981
 Red. masses --      2.2598                 1.9518                 1.1757
 Frc consts  --      0.0660                 0.0634                 0.0411
 IR Inten    --      0.0154                 0.5759                 0.2523

                     19                     20                     21
                      A                      A                      A
 Frequencies --    247.9135               251.9165               287.6850
 Red. masses --      1.1258                 1.4958                 2.8309
 Frc consts  --      0.0408                 0.0559                 0.1380
 IR Inten    --      0.0126                 0.2347                 0.4285

                     22                     23                     24
                      A                      A                      A
 Frequencies --    320.3299               374.2994               393.4043
 Red. masses --      2.9571                 3.2079                 2.3785
 Frc consts  --      0.1788                 0.2648                 0.2169
 IR Inten    --      0.0311                 0.1679                 0.6765

                     25                     26                     27
                      A                      A                      A
 Frequencies --    416.4999               435.1272               465.2440
 Red. masses --      2.1994                 3.5477                 2.5752
 Frc consts  --      0.2248                 0.3958                 0.3284
 IR Inten    --      0.1498                 0.7804                 0.4097

                     28                     29                     30
                      A                      A                      A
 Frequencies --    522.5955               568.2262               582.1832
 Red. masses --      2.8046                 3.2401                 3.1020
 Frc consts  --      0.4513                 0.6164                 0.6195
 IR Inten    --      1.3083                 3.6759                10.5224

                     31                     32                     33
                      A                      A                      A
 Frequencies --    730.0867               731.9032               738.9056
 Red. masses --      1.2507                 1.1034                 1.1847
 Frc consts  --      0.3928                 0.3483                 0.3811
 IR Inten    --      8.8281                 4.6352                 1.2195

                     34                     35                     36
                      A                      A                      A
 Frequencies --    742.9542               789.3655               799.8450
 Red. masses --      1.1253                 1.2281                 1.2763
 Frc consts  --      0.3660                 0.4509                 0.4811
 IR Inten    --      0.3437                 0.7838                 0.9155

                     37                     38                     39
                      A                      A                      A
 Frequencies --    848.1755               875.3457               884.1744
 Red. masses --      2.2714                 1.7467                 1.4045
 Frc consts  --      0.9627                 0.7886                 0.6469
 IR Inten    --      2.0517                 1.8910                 1.8041

                     40                     41                     42
                      A                      A                      A
 Frequencies --    897.4114               904.7884               914.3665
 Red. masses --      1.9535                 1.6277                 1.2395
 Frc consts  --      0.9269                 0.7851                 0.6106
 IR Inten    --      1.2697                 1.2981                12.5200

                     43                     44                     45
                      A                      A                      A
 Frequencies --    928.0711               937.0754               966.3009
 Red. masses --      1.5108                 1.8861                 1.3794
 Frc consts  --      0.7667                 0.9758                 0.7589
 IR Inten    --      1.4214                10.0180                 1.1211

                     46                     47                     48
                      A                      A                      A
 Frequencies --    980.2889              1005.4762              1009.8942
 Red. masses --      1.5885                 3.1401                 3.2410
 Frc consts  --      0.8994                 1.8704                 1.9475
 IR Inten    --      0.4405                 0.6293                 0.1032

                     49                     50                     51
                      A                      A                      A
 Frequencies --   1025.0347              1038.0194              1051.6041
 Red. masses --      2.5147                 2.5025                 1.3686
 Frc consts  --      1.5567                 1.5886                 0.8918
 IR Inten    --      0.6192                 3.2482                 0.5677

                     52                     53                     54
                      A                      A                      A
 Frequencies --   1061.5028              1061.9750              1071.6840
 Red. masses --      2.6041                 2.4554                 2.2059
 Frc consts  --      1.7288                 1.6315                 1.4927
 IR Inten    --      0.2463                 0.6346                 0.1768

                     55                     56                     57
                      A                      A                      A
 Frequencies --   1099.0548              1120.5241              1126.1651
 Red. masses --      2.3560                 2.0186                 1.5660
 Frc consts  --      1.6768                 1.4933                 1.1701
 IR Inten    --      0.4652                 1.3327                 3.8555

                     58                     59                     60
                      A                      A                      A
 Frequencies --   1133.4135              1143.7473              1168.4460
 Red. masses --      1.7386                 2.6854                 1.6263
 Frc consts  --      1.3159                 2.0698                 1.3082
 IR Inten    --      4.4331                 1.3473                 0.9072

                     61                     62                     63
                      A                      A                      A
 Frequencies --   1182.5828              1218.8449              1236.8631
 Red. masses --      1.7038                 1.6212                 1.4795
 Frc consts  --      1.4039                 1.4190                 1.3336
 IR Inten    --     10.8847                 4.5261                 0.5832

                     64                     65                     66
                      A                      A                      A
 Frequencies --   1240.9023              1252.2215              1268.7752
 Red. masses --      1.4255                 1.3015                 1.2807
 Frc consts  --      1.2933                 1.2024                 1.2147
 IR Inten    --      2.5657                 1.3038                25.1566

                     67                     68                     69
                      A                      A                      A
 Frequencies --   1280.7068              1290.3388              1306.2574
 Red. masses --      1.2913                 1.2407                 1.2413
 Frc consts  --      1.2478                 1.2170                 1.2479
 IR Inten    --      1.1893                 1.5581                 1.5162

                     70                     71                     72
                      A                      A                      A
 Frequencies --   1316.8677              1321.2411              1328.8491
 Red. masses --      1.2249                 1.1620                 1.0721
 Frc consts  --      1.2516                 1.1951                 1.1154
 IR Inten    --     16.2864                 0.2230                 0.3820

                     73                     74                     75
                      A                      A                      A
 Frequencies --   1329.4917              1333.3887              1336.9172
 Red. masses --      1.0699                 1.2428                 1.1030
 Frc consts  --      1.1143                 1.3018                 1.1616
 IR Inten    --      0.3739                 2.3013                 0.1187

                     76                     77                     78
                      A                      A                      A
 Frequencies --   1354.3129              1362.5572              1376.8540
 Red. masses --      1.3698                 1.3720                 1.3362
 Frc consts  --      1.4803                 1.5008                 1.4924
 IR Inten    --      0.7461                 0.8823                 1.0837

                     79                     80                     81
                      A                      A                      A
 Frequencies --   1378.5476              1393.2176              1398.4478
 Red. masses --      1.4553                 1.5693                 1.4988
 Frc consts  --      1.6295                 1.7947                 1.7270
 IR Inten    --      0.5052                 2.1703                 0.3506

                     82                     83                     84
                      A                      A                      A
 Frequencies --   1400.4108              1411.8610              1412.8370
 Red. masses --      1.6188                 1.2841                 1.2353
 Frc consts  --      1.8705                 1.5081                 1.4528
 IR Inten    --      0.7280                 5.0181                 0.8534

                     85                     86                     87
                      A                      A                      A
 Frequencies --   1413.4246              1470.8450              1474.2296
 Red. masses --      1.2578                 1.4180                 1.4119
 Frc consts  --      1.4805                 1.8074                 1.8080
 IR Inten    --      0.4108                 0.4866                 2.5783

                     88                     89                     90
                      A                      A                      A
 Frequencies --   1477.9888              1482.1779              1482.9753
 Red. masses --      1.1837                 1.1104                 1.0731
 Frc consts  --      1.5235                 1.4373                 1.3904
 IR Inten    --      1.0229                 0.3605                 0.1905

                     91                     92                     93
                      A                      A                      A
 Frequencies --   1485.5903              1486.2887              1495.6526
 Red. masses --      1.0702                 1.0827                 1.0752
 Frc consts  --      1.3915                 1.4092                 1.4171
 IR Inten    --      0.3889                 0.5150                 0.4025

                     94                     95                     96
                      A                      A                      A
 Frequencies --   1498.3910              1498.6426              1499.6694
 Red. masses --      1.0628                 1.0688                 1.0405
 Frc consts  --      1.4059                 1.4143                 1.3787
 IR Inten    --      1.3720                 0.2976                 5.0058

                     97                     98                     99
                      A                      A                      A
 Frequencies --   1499.8730              1503.9625              1507.4942
 Red. masses --      1.0403                 1.0530                 1.0795
 Frc consts  --      1.3789                 1.4033                 1.4453
 IR Inten    --      4.8753                 5.8212                 1.2939

                    100                    101                    102
                      A                      A                      A
 Frequencies --   1512.0454              1515.0272              2071.7455
 Red. masses --      1.0874                 1.0944                10.7550
 Frc consts  --      1.4647                 1.4800                27.1978
 IR Inten    --      2.9121                 3.6576                29.3944

                    103                    104                    105
                      A                      A                      A
 Frequencies --   2983.7761              2995.3653              2999.0049
 Red. masses --      1.0805                 1.0594                 1.0580
 Frc consts  --      5.6675                 5.6003                 5.6066
 IR Inten    --     10.7714                 5.5825                 0.1623

                    106                    107                    108
                      A                      A                      A
 Frequencies --   3000.8405              3002.1687              3004.6406
 Red. masses --      1.0595                 1.0649                 1.0644
 Frc consts  --      5.6214                 5.6548                 5.6614
 IR Inten    --      4.3098                18.1151                23.2488

                    109                    110                    111
                      A                      A                      A
 Frequencies --   3007.6010              3010.3968              3016.0468
 Red. masses --      1.0595                 1.0635                 1.0626
 Frc consts  --      5.6469                 5.6785                 5.6949
 IR Inten    --      1.3137                24.0121               106.6261

                    112                    113                    114
                      A                      A                      A
 Frequencies --   3016.3174              3020.1062              3027.3086
 Red. masses --      1.0630                 1.0955                 1.0723
 Frc consts  --      5.6980                 5.8870                 5.7901
 IR Inten    --     54.4499                 7.7714                21.2825

                    115                    116                    117
                      A                      A                      A
 Frequencies --   3027.6940              3028.4273              3028.5113
 Red. masses --      1.0386                 1.0581                 1.0377
 Frc consts  --      5.6094                 5.7176                 5.6077
 IR Inten    --     39.2328                 8.3200                36.2672

                    118                    119                    120
                      A                      A                      A
 Frequencies --   3033.8848              3034.3971              3051.6524
 Red. masses --      1.0950                 1.1016                 1.1035
 Frc consts  --      5.9385                 5.9759                 6.0546
 IR Inten    --      8.1754                 4.2315                 5.7368

                    121                    122                    123
                      A                      A                      A
 Frequencies --   3053.2370              3062.9784              3066.6023
 Red. masses --      1.0987                 1.0984                 1.1012
 Frc consts  --      6.0346                 6.0714                 6.1017
 IR Inten    --     17.4744                 7.6174               126.6364

                    124                    125                    126
                      A                      A                      A
 Frequencies --   3074.3771              3093.7663              3095.2317
 Red. masses --      1.0985                 1.1020                 1.1020
 Frc consts  --      6.1171                 6.2146                 6.2203
 IR Inten    --     25.0865                60.2513                51.7735

                    127                    128                    129
                      A                      A                      A
 Frequencies --   3096.0444              3099.1194              3100.0304
 Red. masses --      1.0955                 1.1009                 1.1010
 Frc consts  --      6.1869                 6.2301                 6.2342
 IR Inten    --     26.0431                41.4736                39.1482

                    130                    131                    132
                      A                      A                      A
 Frequencies --   3102.5917              3106.0533              3113.5678
 Red. masses --      1.0869                 1.0870                 1.1011
 Frc consts  --      6.1643                 6.1790                 6.2893
 IR Inten    --     27.9008                26.3255                35.8217

 - Thermochemistry -
 -------------------
 Temperature   298.150 Kelvin.  Pressure   1.00000 Atm.
 Atom     1 has atomic number  6 and mass  12.00000

 Molecular mass:   222.23475 amu.
 Principal axes and moments of inertia in atomic units:
                           1         2         3
     Eigenvalues --  1120.22124********************
           X            1.00000  -0.00251   0.00027
           Y            0.00251   0.99995  -0.00919
           Z           -0.00025   0.00919   0.99996
 This molecule is an asymmetric top.
 Rotational symmetry number  1.
 Warning -- assumption of classical behavior for rotation
           may cause significant error
 Rotational temperatures (Kelvin)      0.07732     0.00438     0.00423
 Rotational constants (GHZ):           1.61106     0.09134     0.08804
 Zero-point vibrational energy    1113859.7 (Joules/Mol)
                                  266.21886 (Kcal/Mol)
 Warning -- explicit consideration of  30 degrees of freedom as
           vibrations may cause significant error
 Vibrational temperatures:     23.14    26.18    48.05    55.45    71.80
          (Kelvin)             84.51   108.62   123.09   146.28   175.94
                              181.84   211.04   224.07   240.84   307.49
                              320.29   337.75   350.48   356.69   362.45
                              413.91   460.88   538.53   566.02   599.25
                              626.05   669.38   751.90   817.55   837.63
                             1050.43  1053.05  1063.12  1068.95  1135.72
                             1150.80  1220.34  1259.43  1272.13  1291.17
                             1301.79  1315.57  1335.29  1348.24  1390.29
                             1410.42  1446.66  1453.01  1474.80  1493.48
                             1513.02  1527.27  1527.95  1541.91  1581.29
                             1612.18  1620.30  1630.73  1645.60  1681.13
                             1701.47  1753.65  1779.57  1785.38  1801.67
                             1825.48  1842.65  1856.51  1879.41  1894.68
                             1900.97  1911.92  1912.84  1918.45  1923.53
                             1948.55  1960.42  1980.99  1983.42  2004.53
                             2012.05  2014.88  2031.35  2032.76  2033.60
                             2116.22  2121.09  2126.50  2132.52  2133.67
                             2137.43  2138.44  2151.91  2155.85  2156.21
                             2157.69  2157.98  2163.87  2168.95  2175.50
                             2179.79  2980.78  4292.99  4309.66  4314.90
                             4317.54  4319.45  4323.01  4327.27  4331.29
                             4339.42  4339.81  4345.26  4355.62  4356.18
                             4357.23  4357.35  4365.08  4365.82  4390.65
                             4392.93  4406.94  4412.16  4423.34  4451.24
                             4453.35  4454.52  4458.94  4460.25  4463.94
                             4468.92  4479.73

 Zero-point correction=                           0.424247 (Hartree/Particle)
 Thermal correction to Energy=                    0.445527
 Thermal correction to Enthalpy=                  0.446471
 Thermal correction to Gibbs Free Energy=         0.370283
 Sum of electronic and zero-point Energies=           -627.371617
 Sum of electronic and thermal Energies=              -627.350337
 Sum of electronic and thermal Enthalpies=            -627.349392
 Sum of electronic and thermal Free Energies=         -627.425580

                     E (Thermal)             CV                S
                      KCal/Mol        Cal/Mol-Kelvin    Cal/Mol-Kelvin
 Total                  279.572             75.971            160.351
 Electronic               0.000              0.000              0.000
 Translational            0.889              2.981             42.098
 Rotational               0.889              2.981             34.472
 Vibrational            277.795             70.010             83.781
 Vibration     1          0.593              1.986              7.067
 Vibration     2          0.593              1.986              6.822
 Vibration     3          0.594              1.983              5.617
 Vibration     4          0.594              1.981              5.333
 Vibration     5          0.595              1.978              4.821
 Vibration     6          0.596              1.974              4.499
 Vibration     7          0.599              1.965              4.005
 Vibration     8          0.601              1.959              3.759
 Vibration     9          0.604              1.948              3.422
 Vibration    10          0.610              1.931              3.064
 Vibration    11          0.611              1.927              3.000
 Vibration    12          0.617              1.906              2.715
 Vibration    13          0.620              1.896              2.601
 Vibration    14          0.624              1.883              2.465
 Vibration    15          0.644              1.820              2.012
 Vibration    16          0.648              1.807              1.938
 Vibration    17          0.655              1.788              1.842
 Vibration    18          0.659              1.773              1.776
 Vibration    19          0.662              1.766              1.745
 Vibration    20          0.664              1.760              1.717
 Vibration    21          0.685              1.697              1.488
 Vibration    22          0.706              1.635              1.308
 Vibration    23          0.745              1.525              1.062
 Vibration    24          0.761              1.484              0.987
 Vibration    25          0.780              1.434              0.904
 Vibration    26          0.796              1.394              0.842
 Vibration    27          0.823              1.327              0.751
 Vibration    28          0.878              1.200              0.604
 Vibration    29          0.924              1.100              0.508
 Vibration    30          0.939              1.070              0.481

 Optimization completed.
    -- Stationary point found.
 Normal termination of Gaussian 16 at Tue May 23 01:33:19 2023.
