 Gaussian 16, Revision A.03,
 Gaussian 16:  ES64L-G16RevA.03 25-Dec-2016

 -----------------------------
 # opt freq b3lyp/6-31g(2df,p)
 -----------------------------

 -------------------
 Title Card Required
 -------------------
 Symbolic Z-matrix:
 Charge =  0 Multiplicity = 1

 SCF Done:  E(RB3LYP) =  -811.443814354     A.U. after   12 cycles
 SCF Done:  E(RB3LYP) =  -811.454759862     A.U. after   12 cycles
 SCF Done:  E(RB3LYP) =  -811.458428939     A.U. after   11 cycles
 SCF Done:  E(RB3LYP) =  -811.461327933     A.U. after   13 cycles
 SCF Done:  E(RB3LYP) =  -811.461870171     A.U. after   12 cycles
 SCF Done:  E(RB3LYP) =  -811.461979285     A.U. after   10 cycles
 SCF Done:  E(RB3LYP) =  -811.461995243     A.U. after    9 cycles
 SCF Done:  E(RB3LYP) =  -811.462005972     A.U. after    9 cycles
 SCF Done:  E(RB3LYP) =  -811.462009939     A.U. after    8 cycles
 SCF Done:  E(RB3LYP) =  -811.462010660     A.U. after    8 cycles
 SCF Done:  E(RB3LYP) =  -811.462010953     A.U. after    7 cycles
 SCF Done:  E(RB3LYP) =  -811.462011062     A.U. after    6 cycles
 SCF Done:  E(RB3LYP) =  -811.462011138     A.U. after    6 cycles
 SCF Done:  E(RB3LYP) =  -811.462011177     A.U. after    6 cycles
 SCF Done:  E(RB3LYP) =  -811.462011201     A.U. after    6 cycles
 Optimization completed.
    -- Stationary point found.
 Normal termination of Gaussian 16 at Mon May 22 17:39:27 2023.

 ----------------------------------------------------------------------
 #N Geom=AllCheck Guess=TCheck SCRF=Check GenChk RB3LYP/6-31G(2df,p) Fr
 eq
 ----------------------------------------------------------------------

 Structure from the checkpoint file:  "CCCCCNOCNOCCC1CCCCC1.chk"
 -------------------
 Title Card Required
 -------------------
 Charge =  0 Multiplicity = 1

                         Standard orientation:
 ---------------------------------------------------------------------
 Center     Atomic      Atomic             Coordinates (Angstroms)
 Number     Number       Type             X           Y           Z
 ---------------------------------------------------------------------
      1          6           0        9.340482    0.478953   -0.274939
      2          6           0        8.114649   -0.434325   -0.358886
      3          6           0        6.817560    0.258218    0.072972
      4          6           0        5.587598   -0.651625   -0.013379
      5          6           0        4.301958    0.049469    0.425143
      6          7           0        3.163717   -0.859979    0.275517
      7          8           0        2.024060   -0.227083    0.881919
      8          6           0        0.985693   -0.166203   -0.073841
      9          7           0       -0.037570    0.671640    0.543034
     10          8           0       -1.029502    0.881112   -0.469336
     11          6           0       -2.298775    0.464117    0.025148
     12          6           0       -3.295399    0.669875   -1.112016
     13          6           0       -4.756675    0.294157   -0.800886
     14          6           0       -4.952505   -1.201428   -0.487875
     15          6           0       -6.436097   -1.547712   -0.291884
     16          6           0       -7.076681   -0.675188    0.796992
     17          6           0       -6.875173    0.818878    0.506399
     18          6           0       -5.390041    1.156814    0.307193
     19          1           0       10.249961   -0.042664   -0.588853
     20          1           0        9.498479    0.836893    0.748585
     21          1           0        9.223186    1.359090   -0.916986
     22          1           0        8.275319   -1.322806    0.266136
     23          1           0        8.001600   -0.804142   -1.386494
     24          1           0        6.656163    1.147510   -0.551816
     25          1           0        6.928557    0.627459    1.101841
     26          1           0        5.750113   -1.540460    0.613398
     27          1           0        5.462252   -1.017253   -1.039802
     28          1           0        4.111940    0.921870   -0.210721
     29          1           0        4.395208    0.414599    1.459900
     30          1           0        3.323295   -1.666979    0.878358
     31          1           0        0.549638   -1.156175   -0.266807
     32          1           0        1.362683    0.241467   -1.024793
     33          1           0        0.371311    1.594820    0.688946
     34          1           0       -2.562900    1.058606    0.909791
     35          1           0       -2.247547   -0.587330    0.336203
     36          1           0       -2.949222    0.087044   -1.974657
     37          1           0       -3.251285    1.723879   -1.413587
     38          1           0       -5.321255    0.500531   -1.723211
     39          1           0       -4.403061   -1.463350    0.426572
     40          1           0       -4.523443   -1.810833   -1.292818
     41          1           0       -6.546656   -2.609323   -0.042815
     42          1           0       -6.970633   -1.393520   -1.239760
     43          1           0       -6.621756   -0.918252    1.767596
     44          1           0       -8.144518   -0.904264    0.888818
     45          1           0       -7.294903    1.424354    1.317881
     46          1           0       -7.431415    1.088584   -0.402356
     47          1           0       -4.858334    0.992410    1.254223
     48          1           0       -5.271837    2.220380    0.065869
 ---------------------------------------------------------------------

 SCF Done:  E(RB3LYP) =  -811.462011201     A.U. after    1 cycles

 The electronic state is 1-A.
 Alpha  occ. eigenvalues --  -19.16022 -19.15558 -14.36313 -14.35653 -10.24176
 Alpha  occ. eigenvalues --  -10.21435 -10.20495 -10.18424 -10.18168 -10.18073
 Alpha  occ. eigenvalues --  -10.18049 -10.17338 -10.17293 -10.17287 -10.17253
 Alpha  occ. eigenvalues --  -10.17242 -10.17182 -10.17178  -1.06835  -1.04871
 Alpha  occ. eigenvalues --   -0.87083  -0.83154  -0.81847  -0.79267  -0.76129
 Alpha  occ. eigenvalues --   -0.73462  -0.73360  -0.69362  -0.66148  -0.62724
 Alpha  occ. eigenvalues --   -0.61413  -0.60278  -0.60060  -0.57957  -0.57133
 Alpha  occ. eigenvalues --   -0.53904  -0.51556  -0.50676  -0.48212  -0.47403
 Alpha  occ. eigenvalues --   -0.46734  -0.45669  -0.45107  -0.44839  -0.43639
 Alpha  occ. eigenvalues --   -0.43120  -0.42788  -0.42065  -0.41651  -0.40078
 Alpha  occ. eigenvalues --   -0.39485  -0.39319  -0.37725  -0.37061  -0.37045
 Alpha  occ. eigenvalues --   -0.35996  -0.35804  -0.35360  -0.34137  -0.33912
 Alpha  occ. eigenvalues --   -0.33332  -0.32864  -0.32483  -0.32425  -0.32091
 Alpha  occ. eigenvalues --   -0.30303  -0.29215  -0.28839  -0.26450  -0.25739
 Alpha  occ. eigenvalues --   -0.23958  -0.23355
 Alpha virt. eigenvalues --    0.07464   0.08360   0.08687   0.09372   0.09952
 Alpha virt. eigenvalues --    0.10445   0.11108   0.11465   0.11985   0.12314
 Alpha virt. eigenvalues --    0.12554   0.13740   0.15030   0.15578   0.15751

 Mulliken charges:
               1
     1  C   -0.380338
     2  C   -0.163774
     3  C   -0.159187
     4  C   -0.201991
     5  C   -0.103556
     6  N   -0.212413
     7  O   -0.277041
     8  C    0.048039
     9  N   -0.224524
    10  O   -0.276817
    11  C   -0.020920
    12  C   -0.242981
    13  C    0.035650
    14  C   -0.187981
    15  C   -0.197582
    16  C   -0.175929
    17  C   -0.197452
    18  C   -0.188048
    19  H    0.112071
    20  H    0.113832
    21  H    0.114226
    22  H    0.094556
    23  H    0.096365
    24  H    0.095813
    25  H    0.094929
    26  H    0.091180
    27  H    0.110154
    28  H    0.107088
    29  H    0.094496
    30  H    0.235151
    31  H    0.097527
    32  H    0.089520
    33  H    0.234842
    34  H    0.093117
    35  H    0.093826
    36  H    0.097831
    37  H    0.097875
    38  H    0.065983
    39  H    0.094258
    40  H    0.086447
    41  H    0.087683
    42  H    0.090583
    43  H    0.091054
    44  H    0.087474
    45  H    0.087717
    46  H    0.090548
    47  H    0.094288
    48  H    0.086411
 Sum of Mulliken charges =  -0.00000

 Dipole moment (field-independent basis, Debye):
    X=              0.9933    Y=             -0.2057    Z=              0.0097  Tot=              1.0145
 Quadrupole moment (field-independent basis, Debye-Ang):
   XX=            -99.6478   YY=           -111.3951   ZZ=           -115.8331
   XY=             -1.0851   XZ=              1.7464   YZ=             -0.7286

  Exact polarizability: 242.805   1.422 157.270  -2.182   1.526 146.957
 Approx polarizability: 255.290  -2.729 233.558   3.498  -0.102 232.635

                      1                      2                      3
                      A                      A                      A
 Frequencies --      9.0442                11.4365                25.9207
 Red. masses --      4.5426                 4.2992                 2.6322
 Frc consts  --      0.0002                 0.0003                 0.0010
 IR Inten    --      0.0794                 0.0669                 0.0939

                      4                      5                      6
                      A                      A                      A
 Frequencies --     32.6965                47.9841                63.5341
 Red. masses --      4.2116                 2.1275                 2.3310
 Frc consts  --      0.0027                 0.0029                 0.0055
 IR Inten    --      0.0367                 0.0911                 0.1258

                      7                      8                      9
                      A                      A                      A
 Frequencies --     73.1827                86.6568                99.7127
 Red. masses --      3.0956                 3.4978                 2.5625
 Frc consts  --      0.0098                 0.0155                 0.0150
 IR Inten    --      0.1947                 0.1968                 0.0817

                     10                     11                     12
                      A                      A                      A
 Frequencies --    105.4202               117.7845               129.2625
 Red. masses --      3.1694                 2.3166                 1.9341
 Frc consts  --      0.0208                 0.0189                 0.0190
 IR Inten    --      0.2184                 4.6174                 0.9075

                     13                     14                     15
                      A                      A                      A
 Frequencies --    147.7404               169.9917               203.5338
 Red. masses --      2.2089                 3.1513                 4.6901
 Frc consts  --      0.0284                 0.0537                 0.1145
 IR Inten    --      1.4571                 1.0600                 0.9995

                     16                     17                     18
                      A                      A                      A
 Frequencies --    225.0988               230.6569               247.4108
 Red. masses --      4.0131                 1.8184                 1.1318
 Frc consts  --      0.1198                 0.0570                 0.0408
 IR Inten    --      1.9684                 0.0792                 0.0525

                     19                     20                     21
                      A                      A                      A
 Frequencies --    251.8413               279.4306               309.5230
 Red. masses --      3.5806                 4.7930                 2.2105
 Frc consts  --      0.1338                 0.2205                 0.1248
 IR Inten    --      0.6743                 1.4475                 0.0643

                     22                     23                     24
                      A                      A                      A
 Frequencies --    325.4809               383.9906               407.1036
 Red. masses --      1.9282                 3.3377                 3.1172
 Frc consts  --      0.1204                 0.2900                 0.3044
 IR Inten    --      0.1636                 2.0757                 1.1867

                     25                     26                     27
                      A                      A                      A
 Frequencies --    418.7911               446.7122               475.8939
 Red. masses --      2.8769                 2.9867                 3.7960
 Frc consts  --      0.2973                 0.3512                 0.5065
 IR Inten    --      3.2862                 0.0113                 9.5572

                     28                     29                     30
                      A                      A                      A
 Frequencies --    486.8998               509.9736               564.8398
 Red. masses --      2.1069                 2.4437                 4.5570
 Frc consts  --      0.2943                 0.3745                 0.8566
 IR Inten    --      2.1821                 3.3561                 4.6586

                     31                     32                     33
                      A                      A                      A
 Frequencies --    633.0337               736.2759               771.4948
 Red. masses --      3.1809                 1.0679                 1.1117
 Frc consts  --      0.7510                 0.3411                 0.3899
 IR Inten    --      0.4293                 3.2893                 0.1040

                     34                     35                     36
                      A                      A                      A
 Frequencies --    778.1215               780.7237               800.3729
 Red. masses --      2.4379                 1.2861                 1.3566
 Frc consts  --      0.8697                 0.4619                 0.5120
 IR Inten    --      0.2848                 0.0831                 0.0907

                     37                     38                     39
                      A                      A                      A
 Frequencies --    847.9590               855.3641               877.2869
 Red. masses --      2.6167                 1.2290                 1.5428
 Frc consts  --      1.1085                 0.5298                 0.6996
 IR Inten    --      0.8459                12.7996                 3.8398

                     40                     41                     42
                      A                      A                      A
 Frequencies --    885.8598               892.2934               906.3985
 Red. masses --      2.1836                 1.9154                 2.0106
 Frc consts  --      1.0096                 0.8985                 0.9732
 IR Inten    --     16.7247                 3.0083                17.2059

                     43                     44                     45
                      A                      A                      A
 Frequencies --    915.2030               924.7182               967.9631
 Red. masses --      1.6584                 1.4202                 2.2790
 Frc consts  --      0.8184                 0.7155                 1.2581
 IR Inten    --     61.2680                 2.0260                28.0586

                     46                     47                     48
                      A                      A                      A
 Frequencies --    979.7628               999.4481              1007.1224
 Red. masses --      1.7827                 1.7441                 1.7081
 Frc consts  --      1.0082                 1.0264                 1.0208
 IR Inten    --      3.9865                23.8909                 1.8341

                     49                     50                     51
                      A                      A                      A
 Frequencies --   1011.9343              1015.4663              1032.7707
 Red. masses --      2.5895                 2.4413                 3.1693
 Frc consts  --      1.5623                 1.4832                 1.9917
 IR Inten    --      5.8004                 8.6898                28.4053

                     52                     53                     54
                      A                      A                      A
 Frequencies --   1040.4554              1058.5141              1067.6361
 Red. masses --      1.9816                 2.4108                 2.5127
 Frc consts  --      1.2639                 1.5915                 1.6875
 IR Inten    --      0.3797                14.7372                60.2423

                     55                     56                     57
                      A                      A                      A
 Frequencies --   1070.5709              1075.8515              1081.8315
 Red. masses --      2.6676                 1.1314                 2.0318
 Frc consts  --      1.8014                 0.7716                 1.4011
 IR Inten    --     61.9952                 0.3651                 2.3061

                     58                     59                     60
                      A                      A                      A
 Frequencies --   1092.0280              1097.3724              1114.1151
 Red. masses --      1.5782                 4.0939                 2.6850
 Frc consts  --      1.1089                 2.9046                 1.9636
 IR Inten    --      0.1981                71.8720                16.1397

                     61                     62                     63
                      A                      A                      A
 Frequencies --   1122.5036              1142.6368              1159.5592
 Red. masses --      1.6318                 3.0993                 3.3141
 Frc consts  --      1.2114                 2.3841                 2.6255
 IR Inten    --      1.4796                 8.7299                 9.0615

                     64                     65                     66
                      A                      A                      A
 Frequencies --   1172.5096              1196.2445              1207.1921
 Red. masses --      2.7314                 1.3355                 1.4959
 Frc consts  --      2.2124                 1.1259                 1.2844
 IR Inten    --      2.1906                 3.2301                 0.6563

                     67                     68                     69
                      A                      A                      A
 Frequencies --   1215.6308              1248.1448              1253.2924
 Red. masses --      1.8748                 1.2923                 1.3185
 Frc consts  --      1.6323                 1.1862                 1.2203
 IR Inten    --      7.5867                 8.4291                 7.8574

                     70                     71                     72
                      A                      A                      A
 Frequencies --   1257.9961              1264.0614              1272.7581
 Red. masses --      1.4533                 1.3967                 1.3276
 Frc consts  --      1.3551                 1.3149                 1.2671
 IR Inten    --     13.3569                10.2316                 1.9561

                     73                     74                     75
                      A                      A                      A
 Frequencies --   1289.8906              1291.9490              1298.0334
 Red. masses --      1.2714                 1.2899                 1.2048
 Frc consts  --      1.2463                 1.2685                 1.1960
 IR Inten    --      2.1660                 2.5596                 7.4435

                     76                     77                     78
                      A                      A                      A
 Frequencies --   1308.1811              1316.9249              1322.0517
 Red. masses --      1.1263                 1.4309                 1.1036
 Frc consts  --      1.1356                 1.4621                 1.1364
 IR Inten    --      0.2809                 0.5291                 0.7588

                     79                     80                     81
                      A                      A                      A
 Frequencies --   1333.3838              1339.4397              1343.5007
 Red. masses --      1.0799                 1.2782                 1.3289
 Frc consts  --      1.1312                 1.3511                 1.4132
 IR Inten    --      0.7599                 0.0044                 0.1493

                     82                     83                     84
                      A                      A                      A
 Frequencies --   1348.7559              1368.8844              1379.0966
 Red. masses --      1.2572                 1.3575                 1.4339
 Frc consts  --      1.3475                 1.4988                 1.6067
 IR Inten    --      8.0063                 0.5036                 0.4267

                     85                     86                     87
                      A                      A                      A
 Frequencies --   1382.1717              1388.9516              1393.0623
 Red. masses --      1.4725                 1.4199                 1.4528
 Frc consts  --      1.6574                 1.6139                 1.6611
 IR Inten    --      7.7364                 0.6074                 9.6045

                     88                     89                     90
                      A                      A                      A
 Frequencies --   1397.9775              1402.1079              1404.1723
 Red. masses --      1.2636                 1.4591                 1.5714
 Frc consts  --      1.4549                 1.6901                 1.8255
 IR Inten    --     38.5414                 1.0302                 0.3459

                     91                     92                     93
                      A                      A                      A
 Frequencies --   1414.5303              1424.7392              1461.0979
 Red. masses --      1.2727                 1.4533                 1.1636
 Frc consts  --      1.5004                 1.7381                 1.4636
 IR Inten    --      1.3196                 4.5308                38.0535

                     94                     95                     96
                      A                      A                      A
 Frequencies --   1481.2389              1483.1316              1484.9232
 Red. masses --      1.1401                 1.0904                 1.0696
 Frc consts  --      1.4738                 1.4131                 1.3896
 IR Inten    --     18.9249                 0.0102                 0.0008

                     97                     98                     99
                      A                      A                      A
 Frequencies --   1485.2804              1487.7304              1488.3970
 Red. masses --      1.0954                 1.0967                 1.0701
 Frc consts  --      1.4237                 1.4302                 1.3968
 IR Inten    --      0.6460                 1.3251                 0.2272

                    100                    101                    102
                      A                      A                      A
 Frequencies --   1489.5827              1492.3546              1499.9717
 Red. masses --      1.0837                 1.0878                 1.0436
 Frc consts  --      1.4168                 1.4275                 1.3835
 IR Inten    --      5.0707                 9.1135                 4.6484

                    103                    104                    105
                      A                      A                      A
 Frequencies --   1500.0246              1506.1133              1511.8672
 Red. masses --      1.0667                 1.0993                 1.0861
 Frc consts  --      1.4141                 1.4692                 1.4626
 IR Inten    --      2.1690                 0.7137                 2.0714

                    106                    107                    108
                      A                      A                      A
 Frequencies --   1523.7457              1527.3554              1546.7248
 Red. masses --      1.0918                 1.0833                 1.0885
 Frc consts  --      1.4936                 1.4889                 1.5343
 IR Inten    --      3.7953                 7.0023                 3.2913

                    109                    110                    111
                      A                      A                      A
 Frequencies --   2974.3919              2978.6145              2982.9049
 Red. masses --      1.0580                 1.0805                 1.0678
 Frc consts  --      5.5146                 5.6481                 5.5980
 IR Inten    --     43.6694                12.8492                34.5886

                    112                    113                    114
                      A                      A                      A
 Frequencies --   3002.7364              3003.9512              3006.3326
 Red. masses --      1.0616                 1.0571                 1.0697
 Frc consts  --      5.6398                 5.6201                 5.6964
 IR Inten    --      2.7405                43.3560                24.0096

                    115                    116                    117
                      A                      A                      A
 Frequencies --   3006.9050              3007.0101              3009.9414
 Red. masses --      1.0668                 1.0612                 1.0603
 Frc consts  --      5.6831                 5.6534                 5.6595
 IR Inten    --     21.7419                10.9039                 0.0606

                    118                    119                    120
                      A                      A                      A
 Frequencies --   3012.4345              3017.3284              3017.6175
 Red. masses --      1.0609                 1.0616                 1.0604
 Frc consts  --      5.6720                 5.6947                 5.6892
 IR Inten    --     28.4156                56.8898                33.0135

                    121                    122                    123
                      A                      A                      A
 Frequencies --   3024.5651              3024.9681              3029.0256
 Red. masses --      1.0680                 1.0959                 1.0411
 Frc consts  --      5.7565                 5.9082                 5.6278
 IR Inten    --     14.2469                74.2037                29.9826

                    124                    125                    126
                      A                      A                      A
 Frequencies --   3029.7887              3036.8273              3046.5311
 Red. masses --      1.0913                 1.1022                 1.0931
 Frc consts  --      5.9021                 5.9890                 5.9774
 IR Inten    --     10.7806                31.2310                15.7018

                    127                    128                    129
                      A                      A                      A
 Frequencies --   3051.4317              3054.3776              3054.6785
 Red. masses --      1.0977                 1.0994                 1.0981
 Frc consts  --      6.0218                 6.0430                 6.0368
 IR Inten    --     58.3389                21.4806                 6.0338

                    130                    131                    132
                      A                      A                      A
 Frequencies --   3058.3058              3058.7620              3066.1705
 Red. masses --      1.0909                 1.1015                 1.1041
 Frc consts  --      6.0117                 6.0717                 6.1156
 IR Inten    --     59.1075                13.2691               115.7785

                    133                    134                    135
                      A                      A                      A
 Frequencies --   3067.5886              3072.0235              3095.4373
 Red. masses --      1.1052                 1.1023                 1.1021
 Frc consts  --      6.1275                 6.1292                 6.2218
 IR Inten    --     67.2471                71.6640                60.6367

                    136                    137                    138
                      A                      A                      A
 Frequencies --   3101.4816              3448.9719              3449.7052
 Red. masses --      1.1009                 1.0751                 1.0749
 Frc consts  --      6.2395                 7.5351                 7.5367
 IR Inten    --     37.9096                 1.4760                 0.8653

 - Thermochemistry -
 -------------------
 Temperature   298.150 Kelvin.  Pressure   1.00000 Atm.
 Atom     1 has atomic number  6 and mass  12.00000

 Molecular mass:   258.23073 amu.
 Principal axes and moments of inertia in atomic units:
                           1         2         3
     Eigenvalues --   963.80191********************
           X            1.00000   0.00154  -0.00138
           Y           -0.00151   0.99977   0.02160
           Z            0.00141  -0.02160   0.99977
 This molecule is an asymmetric top.
 Rotational symmetry number  1.
 Warning -- assumption of classical behavior for rotation
           may cause significant error
 Rotational temperatures (Kelvin)      0.08987     0.00338     0.00334
 Rotational constants (GHZ):           1.87252     0.07037     0.06962
 Zero-point vibrational energy    1152160.4 (Joules/Mol)
                                  275.37295 (Kcal/Mol)
 Warning -- explicit consideration of  30 degrees of freedom as
           vibrations may cause significant error
 Vibrational temperatures:     13.01    16.45    37.29    47.04    69.04
          (Kelvin)             91.41   105.29   124.68   143.46   151.68
                              169.47   185.98   212.57   244.58   292.84
                              323.87   331.86   355.97   362.34   402.04
                              445.33   468.29   552.48   585.73   602.55
                              642.72   684.71   700.54   733.74   812.68
                              910.79  1059.34  1110.01  1119.54  1123.29
                             1151.56  1220.02  1230.68  1262.22  1274.55
                             1283.81  1304.11  1316.77  1330.46  1392.68
                             1409.66  1437.98  1449.02  1455.95  1461.03
                             1485.93  1496.98  1522.97  1536.09  1540.31
                             1547.91  1556.51  1571.18  1578.87  1602.96
                             1615.03  1644.00  1668.35  1686.98  1721.13
                             1736.88  1749.02  1795.80  1803.21  1809.98
                             1818.70  1831.22  1855.86  1858.83  1867.58
                             1882.18  1894.76  1902.14  1918.44  1927.15
                             1933.00  1940.56  1969.52  1984.21  1988.64
                             1998.39  2004.31  2011.38  2017.32  2020.29
                             2035.19  2049.88  2102.19  2131.17  2133.90
                             2136.47  2136.99  2140.51  2141.47  2143.18
                             2147.17  2158.12  2158.20  2166.96  2175.24
                             2192.33  2197.52  2225.39  4279.49  4285.56
                             4291.73  4320.27  4322.02  4325.44  4326.27
                             4326.42  4330.63  4334.22  4341.26  4341.68
                             4351.67  4352.25  4358.09  4359.19  4369.32
                             4383.28  4390.33  4394.57  4395.00  4400.22
                             4400.88  4411.54  4413.58  4419.96  4453.64
                             4462.34  4962.30  4963.36

 Zero-point correction=                           0.438835 (Hartree/Particle)
 Thermal correction to Energy=                    0.460417
 Thermal correction to Enthalpy=                  0.461361
 Thermal correction to Gibbs Free Energy=         0.382938
 Sum of electronic and zero-point Energies=           -811.023176
 Sum of electronic and thermal Energies=              -811.001594
 Sum of electronic and thermal Enthalpies=            -811.000650
 Sum of electronic and thermal Free Energies=         -811.079073

                     E (Thermal)             CV                S
                      KCal/Mol        Cal/Mol-Kelvin    Cal/Mol-Kelvin
 Total                  288.916             77.947            165.055
 Electronic               0.000              0.000              0.000
 Translational            0.889              2.981             42.546
 Rotational               0.889              2.981             34.815
 Vibrational            287.139             71.986             87.694
 Vibration     1          0.593              1.987              8.211
 Vibration     2          0.593              1.987              7.744
 Vibration     3          0.593              1.985              6.119
 Vibration     4          0.594              1.983              5.659
 Vibration     5          0.595              1.978              4.899
 Vibration     6          0.597              1.972              4.344
 Vibration     7          0.599              1.967              4.066
 Vibration     8          0.601              1.958              3.734
 Vibration     9          0.604              1.949              3.460
 Vibration    10          0.605              1.945              3.352
 Vibration    11          0.608              1.935              3.136
 Vibration    12          0.612              1.924              2.957
 Vibration    13          0.617              1.905              2.701
 Vibration    14          0.625              1.879              2.436
 Vibration    15          0.639              1.835              2.101
 Vibration    16          0.650              1.803              1.918
 Vibration    17          0.652              1.794              1.874
 Vibration    18          0.661              1.767              1.749
 Vibration    19          0.664              1.760              1.718
 Vibration    20          0.680              1.712              1.537
 Vibration    21          0.699              1.656              1.365
 Vibration    22          0.710              1.625              1.282
 Vibration    23          0.753              1.504              1.023
 Vibration    24          0.772              1.455              0.937
 Vibration    25          0.782              1.429              0.896
 Vibration    26          0.806              1.368              0.806
 Vibration    27          0.833              1.304              0.721
 Vibration    28          0.843              1.279              0.692
 Vibration    29          0.865              1.228              0.634
 Vibration    30          0.921              1.107              0.514

                           ! Non-Optimized Parameters !
 Normal termination of Gaussian 16 at Mon May 22 22:48:00 2023.
