 Gaussian 16, Revision A.03,
 Gaussian 16:  ES64L-G16RevA.03 25-Dec-2016

 -----------------------------
 # opt freq b3lyp/6-31g(2df,p)
 -----------------------------

 -------------------
 Title Card Required
 -------------------
 Symbolic Z-matrix:
 Charge =  0 Multiplicity = 1

 SCF Done:  E(RB3LYP) =  -641.587524925     A.U. after   12 cycles
 SCF Done:  E(RB3LYP) =  -641.607399297     A.U. after   13 cycles
 SCF Done:  E(RB3LYP) =  -641.616989224     A.U. after   10 cycles
 SCF Done:  E(RB3LYP) =  -641.621011190     A.U. after   10 cycles
 SCF Done:  E(RB3LYP) =  -641.623168914     A.U. after   11 cycles
 SCF Done:  E(RB3LYP) =  -641.624021872     A.U. after   10 cycles
 SCF Done:  E(RB3LYP) =  -641.624626467     A.U. after    9 cycles
 SCF Done:  E(RB3LYP) =  -641.624837566     A.U. after    9 cycles
 SCF Done:  E(RB3LYP) =  -641.625025334     A.U. after    9 cycles
 SCF Done:  E(RB3LYP) =  -641.625197640     A.U. after    9 cycles
 SCF Done:  E(RB3LYP) =  -641.626754587     A.U. after    9 cycles
 SCF Done:  E(RB3LYP) =  -641.626759948     A.U. after    8 cycles
 SCF Done:  E(RB3LYP) =  -641.626758548     A.U. after    8 cycles
 SCF Done:  E(RB3LYP) =  -641.626763832     A.U. after    8 cycles
 SCF Done:  E(RB3LYP) =  -641.626754529     A.U. after    8 cycles
 SCF Done:  E(RB3LYP) =  -641.626764944     A.U. after    8 cycles
 SCF Done:  E(RB3LYP) =  -641.626765732     A.U. after    8 cycles
 SCF Done:  E(RB3LYP) =  -641.626765909     A.U. after    6 cycles
 SCF Done:  E(RB3LYP) =  -641.626765929     A.U. after    6 cycles
 Optimization completed.
    -- Stationary point found.
 Normal termination of Gaussian 16 at Wed May 24 03:15:17 2023.

 ----------------------------------------------------------------------
 #N Geom=AllCheck Guess=TCheck SCRF=Check GenChk RB3LYP/6-31G(2df,p) Fr
 eq
 ----------------------------------------------------------------------

 Structure from the checkpoint file:  "CCCCNCC1qCCOCrCCqCrC1.chk"
 -------------------
 Title Card Required
 -------------------
 Charge =  0 Multiplicity = 1

                         Standard orientation:
 ---------------------------------------------------------------------
 Center     Atomic      Atomic             Coordinates (Angstroms)
 Number     Number       Type             X           Y           Z
 ---------------------------------------------------------------------
      1          6           0        5.477899   -0.784343   -0.633701
      2          6           0        3.980760   -1.059751   -0.798094
      3          6           0        3.158847   -0.665102    0.432957
      4          6           0        1.660350   -0.927193    0.269603
      5          7           0        0.935649   -0.570355    1.481532
      6          6           0       -0.470913   -0.936870    1.558775
      7          6           0       -1.509107   -0.368452    0.563360
      8          6           0       -1.645204    1.165997    0.596707
      9          6           0       -0.520332    1.996407   -0.018946
     10          8           0       -0.983647    3.327916   -0.125099
     11          6           0       -0.026963    4.198502   -0.675457
     12          6           0       -2.918037   -1.022320    0.767666
     13          6           0       -3.047709   -1.211878   -0.768566
     14          6           0       -3.618121   -2.520439   -1.294647
     15          6           0       -1.520031   -0.964270   -0.886501
     16          1           0        6.039486   -1.078090   -1.526089
     17          1           0        5.890695   -1.337626    0.217099
     18          1           0        5.667403    0.280342   -0.456613
     19          1           0        3.826285   -2.126253   -1.009365
     20          1           0        3.603820   -0.520210   -1.677124
     21          1           0        3.316317    0.402831    0.645263
     22          1           0        3.515528   -1.207287    1.317140
     23          1           0        1.495062   -1.998612    0.089394
     24          1           0        1.302319   -0.406485   -0.637163
     25          1           0        1.077952    0.405070    1.712266
     26          1           0       -0.815500   -0.679533    2.570530
     27          1           0       -0.521337   -2.032830    1.490396
     28          1           0       -1.796720    1.489320    1.635127
     29          1           0       -2.556109    1.452788    0.057647
     30          1           0       -0.247764    1.610758   -1.015567
     31          1           0        0.395524    1.972027    0.592366
     32          1           0       -0.474942    5.194426   -0.719285
     33          1           0        0.266056    3.896132   -1.694029
     34          1           0        0.886396    4.247704   -0.060353
     35          1           0       -3.676020   -0.416728    1.273157
     36          1           0       -2.844029   -1.984886    1.286203
     37          1           0       -3.599998   -0.373557   -1.206394
     38          1           0       -3.082766   -3.379718   -0.873967
     39          1           0       -3.538008   -2.580792   -2.386085
     40          1           0       -4.677010   -2.627928   -1.032992
     41          1           0       -1.176337   -0.326278   -1.705231
     42          1           0       -0.965315   -1.907145   -0.935199
 ---------------------------------------------------------------------

 SCF Done:  E(RB3LYP) =  -641.626765929     A.U. after    1 cycles

 The electronic state is 1-A.
 Alpha  occ. eigenvalues --  -19.13657 -14.30474 -10.22394 -10.22226 -10.19799
 Alpha  occ. eigenvalues --  -10.19677 -10.18634 -10.18147 -10.17776 -10.17620
 Alpha  occ. eigenvalues --  -10.17344 -10.17190 -10.17119 -10.17097 -10.16984
 Alpha  occ. eigenvalues --   -1.02982  -0.89604  -0.84606  -0.78600  -0.76494
 Alpha  occ. eigenvalues --   -0.72900  -0.70980  -0.67183  -0.66197  -0.65271
 Alpha  occ. eigenvalues --   -0.61580  -0.60616  -0.57691  -0.56330  -0.52338
 Alpha  occ. eigenvalues --   -0.49251  -0.48630  -0.47466  -0.46726  -0.45872
 Alpha  occ. eigenvalues --   -0.44837  -0.44401  -0.43858  -0.41648  -0.41408
 Alpha  occ. eigenvalues --   -0.40662  -0.40247  -0.39513  -0.38382  -0.37661
 Alpha  occ. eigenvalues --   -0.36855  -0.36112  -0.35561  -0.34619  -0.33646
 Alpha  occ. eigenvalues --   -0.32969  -0.32619  -0.32171  -0.31555  -0.30955
 Alpha  occ. eigenvalues --   -0.30638  -0.28882  -0.28638  -0.25290  -0.20633
 Alpha virt. eigenvalues --    0.06659   0.08481   0.09397   0.09594   0.09919
 Alpha virt. eigenvalues --    0.10760   0.11932   0.12999   0.13897   0.13934
 Alpha virt. eigenvalues --    0.14274   0.15034   0.15368   0.15516   0.16138

 Mulliken charges:
               1
     1  C   -0.378271
     2  C   -0.162772
     3  C   -0.172318
     4  C   -0.127692
     5  N   -0.290408
     6  C   -0.235481
     7  C    0.300700
     8  C   -0.258447
     9  C   -0.069187
    10  O   -0.226673
    11  C   -0.227190
    12  C   -0.271848
    13  C    0.051279
    14  C   -0.408896
    15  C   -0.274042
    16  H    0.110110
    17  H    0.114828
    18  H    0.112140
    19  H    0.095211
    20  H    0.093444
    21  H    0.084110
    22  H    0.103198
    23  H    0.096329
    24  H    0.080486
    25  H    0.212071
    26  H    0.094649
    27  H    0.091060
    28  H    0.097857
    29  H    0.108776
    30  H    0.089152
    31  H    0.071184
    32  H    0.125912
    33  H    0.101207
    34  H    0.100372
    35  H    0.091556
    36  H    0.089229
    37  H    0.072032
    38  H    0.108389
    39  H    0.112059
    40  H    0.112773
    41  H    0.091533
    42  H    0.091580
 Sum of Mulliken charges =  -0.00000

 Dipole moment (field-independent basis, Debye):
    X=              0.5297    Y=              0.1643    Z=             -0.8124  Tot=              0.9836
 Quadrupole moment (field-independent basis, Debye-Ang):
   XX=            -98.1505   YY=            -96.1553   ZZ=            -98.2462
   XY=              4.1163   XZ=             -1.3333   YZ=             -0.1477

  Exact polarizability: 171.510   8.318 154.870  -1.942   0.854 134.637
 Approx polarizability: 211.042   2.090 212.324  -2.000   0.826 205.890

                      1                      2                      3
                      A                      A                      A
 Frequencies --     22.0100                41.3799                46.2665
 Red. masses --      3.5732                 2.2199                 3.0284
 Frc consts  --      0.0010                 0.0022                 0.0038
 IR Inten    --      0.1134                 0.8538                 0.1799

                      4                      5                      6
                      A                      A                      A
 Frequencies --     57.0931                60.0559                82.0264
 Red. masses --      1.7163                 2.6708                 2.8702
 Frc consts  --      0.0033                 0.0057                 0.0114
 IR Inten    --      0.9150                 0.6656                 0.6176

                      7                      8                      9
                      A                      A                      A
 Frequencies --     95.8671               128.7991               133.0003
 Red. masses --      2.6941                 2.8335                 2.2725
 Frc consts  --      0.0146                 0.0277                 0.0237
 IR Inten    --      0.1197                 1.0700                 0.3078

                     10                     11                     12
                      A                      A                      A
 Frequencies --    150.6598               156.5225               211.3068
 Red. masses --      2.4941                 2.2564                 1.5091
 Frc consts  --      0.0334                 0.0326                 0.0397
 IR Inten    --      0.3976                 0.9258                 0.1847

                     13                     14                     15
                      A                      A                      A
 Frequencies --    230.3590               237.0833               249.9189
 Red. masses --      1.2044                 2.3339                 1.6144
 Frc consts  --      0.0377                 0.0773                 0.0594
 IR Inten    --      2.2586                 0.6307                 0.2335

                     16                     17                     18
                      A                      A                      A
 Frequencies --    250.6398               263.1940               276.2000
 Red. masses --      1.3345                 2.3839                 3.2293
 Frc consts  --      0.0494                 0.0973                 0.1451
 IR Inten    --      0.1761                 0.6097                 0.3512

                     19                     20                     21
                      A                      A                      A
 Frequencies --    327.7367               337.3411               383.3991
 Red. masses --      3.1156                 2.2724                 2.3031
 Frc consts  --      0.1972                 0.1524                 0.1995
 IR Inten    --      0.2948                 2.6039                 1.4850

                     22                     23                     24
                      A                      A                      A
 Frequencies --    403.2730               421.2163               444.8347
 Red. masses --      2.7480                 2.2351                 2.1994
 Frc consts  --      0.2633                 0.2336                 0.2564
 IR Inten    --      2.2067                 1.4493                 1.5789

                     25                     26                     27
                      A                      A                      A
 Frequencies --    488.5083               526.3757               654.8966
 Red. masses --      2.6362                 2.6874                 2.5458
 Frc consts  --      0.3707                 0.4387                 0.6433
 IR Inten    --      3.1434                 0.6268                 6.1207

                     28                     29                     30
                      A                      A                      A
 Frequencies --    682.5125               741.7855               751.8807
 Red. masses --      1.3998                 1.0738                 2.5056
 Frc consts  --      0.3842                 0.3481                 0.8346
 IR Inten    --    126.5340                 4.9544                 6.5895

                     31                     32                     33
                      A                      A                      A
 Frequencies --    792.7608               809.8754               836.0205
 Red. masses --      1.3335                 1.1541                 1.3531
 Frc consts  --      0.4938                 0.4460                 0.5572
 IR Inten    --      1.3548                 0.9066                 2.8863

                     34                     35                     36
                      A                      A                      A
 Frequencies --    873.0835               900.9787               906.4989
 Red. masses --      2.3342                 2.2180                 2.1110
 Frc consts  --      1.0483                 1.0608                 1.0220
 IR Inten    --      1.4112                 6.5649                 1.2406

                     37                     38                     39
                      A                      A                      A
 Frequencies --    907.3177               933.8404               948.8901
 Red. masses --      1.7918                 2.0118                 1.2254
 Frc consts  --      0.8691                 1.0336                 0.6500
 IR Inten    --      0.8304                 1.5065                 1.1090

                     40                     41                     42
                      A                      A                      A
 Frequencies --    964.6688               981.6569               990.0273
 Red. masses --      1.4806                 3.6776                 1.8639
 Frc consts  --      0.8118                 2.0880                 1.0764
 IR Inten    --      5.5117                10.8975                 5.9837

                     43                     44                     45
                      A                      A                      A
 Frequencies --   1023.2369              1033.6765              1036.4525
 Red. masses --      3.1762                 1.9310                 2.7539
 Frc consts  --      1.9593                 1.2156                 1.7430
 IR Inten    --      5.7436                 2.1329                 3.0486

                     46                     47                     48
                      A                      A                      A
 Frequencies --   1060.3628              1070.7160              1087.0109
 Red. masses --      1.5519                 2.1107                 2.1153
 Frc consts  --      1.0281                 1.4257                 1.4726
 IR Inten    --      3.6932                 2.2781                 0.9757

                     49                     50                     51
                      A                      A                      A
 Frequencies --   1114.4645              1132.0386              1146.9877
 Red. masses --      2.2651                 2.1021                 1.7762
 Frc consts  --      1.6576                 1.5872                 1.3768
 IR Inten    --      1.9694                 2.5192                 5.8878

                     52                     53                     54
                      A                      A                      A
 Frequencies --   1150.2438              1160.5294              1174.9683
 Red. masses --      1.7329                 5.4542                 2.5067
 Frc consts  --      1.3509                 4.3281                 2.0390
 IR Inten    --     22.8293               173.9885                38.8533

                     55                     56                     57
                      A                      A                      A
 Frequencies --   1180.7818              1206.6193              1217.3315
 Red. masses --      1.5904                 1.9292                 2.1311
 Frc consts  --      1.3064                 1.6549                 1.8606
 IR Inten    --     19.2467                 3.3932                 0.8910

                     58                     59                     60
                      A                      A                      A
 Frequencies --   1227.4779              1237.4453              1241.1617
 Red. masses --      1.6819                 1.4059                 1.3499
 Frc consts  --      1.4930                 1.2684                 1.2252
 IR Inten    --     37.8523                 2.5604                 0.8100

                     61                     62                     63
                      A                      A                      A
 Frequencies --   1257.0851              1270.5165              1289.1819
 Red. masses --      1.3121                 1.4206                 1.3807
 Frc consts  --      1.2217                 1.3511                 1.3520
 IR Inten    --      1.5312                 4.5100                 0.0965

                     64                     65                     66
                      A                      A                      A
 Frequencies --   1295.1152              1296.8011              1316.2971
 Red. masses --      1.4786                 1.3604                 1.2069
 Frc consts  --      1.4612                 1.3479                 1.2320
 IR Inten    --      2.6947                 1.5567                 2.7535

                     67                     68                     69
                      A                      A                      A
 Frequencies --   1324.9550              1329.2929              1336.7227
 Red. masses --      1.0685                 1.3840                 1.3336
 Frc consts  --      1.1051                 1.4409                 1.4040
 IR Inten    --      0.3912                 1.3429                 0.3083

                     70                     71                     72
                      A                      A                      A
 Frequencies --   1357.9870              1374.4992              1381.4342
 Red. masses --      1.3235                 1.4037                 1.3737
 Frc consts  --      1.4380                 1.5625                 1.5446
 IR Inten    --      4.9982                 2.7553                 9.4735

                     73                     74                     75
                      A                      A                      A
 Frequencies --   1394.2172              1409.8083              1410.4184
 Red. masses --      1.3812                 1.2817                 1.3113
 Frc consts  --      1.5819                 1.5009                 1.5369
 IR Inten    --     23.0287                 1.2491                 1.0690

                     76                     77                     78
                      A                      A                      A
 Frequencies --   1417.1844              1424.5612              1463.8423
 Red. masses --      1.3531                 1.3836                 1.0862
 Frc consts  --      1.6011                 1.6543                 1.3713
 IR Inten    --      2.1462                15.7924                 1.8479

                     79                     80                     81
                      A                      A                      A
 Frequencies --   1471.9365              1480.8129              1484.9435
 Red. masses --      1.0875                 1.1578                 1.0486
 Frc consts  --      1.3882                 1.4958                 1.3623
 IR Inten    --      5.4640                 1.3533                 4.9206

                     82                     83                     84
                      A                      A                      A
 Frequencies --   1485.4183              1486.4556              1492.8652
 Red. masses --      1.0686                 1.0943                 1.0766
 Frc consts  --      1.3891                 1.4246                 1.4136
 IR Inten    --      1.0336                 3.6287                 0.7440

                     85                     86                     87
                      A                      A                      A
 Frequencies --   1493.5568              1496.3140              1496.8902
 Red. masses --      1.0828                 1.0552                 1.1094
 Frc consts  --      1.4231                 1.3920                 1.4646
 IR Inten    --      0.9242                 3.9400                10.6999

                     88                     89                     90
                      A                      A                      A
 Frequencies --   1499.8069              1502.7899              1504.7359
 Red. masses --      1.0416                 1.1554                 1.0656
 Frc consts  --      1.3804                 1.5373                 1.4216
 IR Inten    --      2.9629                 8.3103                 8.8162

                     91                     92                     93
                      A                      A                      A
 Frequencies --   1508.8301              1519.7140              1529.5636
 Red. masses --      1.0832                 1.0943                 1.0909
 Frc consts  --      1.4529                 1.4891                 1.5038
 IR Inten    --      5.5384                 2.7992                 3.3241

                     94                     95                     96
                      A                      A                      A
 Frequencies --   2929.9652              2956.3702              2969.4448
 Red. masses --      1.0712                 1.0455                 1.0479
 Frc consts  --      5.4179                 5.3836                 5.4441
 IR Inten    --     48.4982                43.8541                65.7837

                     97                     98                     99
                      A                      A                      A
 Frequencies --   2986.6237              2993.0118              2998.4289
 Red. masses --      1.0991                 1.0599                 1.0669
 Frc consts  --      5.7763                 5.5944                 5.6517
 IR Inten    --     58.7587                33.5245                 8.3674

                    100                    101                    102
                      A                      A                      A
 Frequencies --   3004.8878              3012.7666              3019.0324
 Red. masses --      1.1029                 1.0633                 1.0475
 Frc consts  --      5.8673                 5.6864                 5.6250
 IR Inten    --     52.2936                19.3927                14.8879

                    103                    104                    105
                      A                      A                      A
 Frequencies --   3019.5302              3022.1398              3028.5835
 Red. masses --      1.0488                 1.0796                 1.0367
 Frc consts  --      5.6341                 5.8095                 5.6026
 IR Inten    --     39.6647                32.1650                39.3083

                    106                    107                    108
                      A                      A                      A
 Frequencies --   3033.2732              3034.4329              3037.6098
 Red. masses --      1.0957                 1.0651                 1.0959
 Frc consts  --      5.9396                 5.7784                 5.9578
 IR Inten    --     46.6783                44.3996                 6.5835

                    109                    110                    111
                      A                      A                      A
 Frequencies --   3038.5295              3044.6761              3062.2219
 Red. masses --      1.0829                 1.0611                 1.1015
 Frc consts  --      5.8908                 5.7954                 6.0855
 IR Inten    --      5.0385                25.5999                35.6959

                    112                    113                    114
                      A                      A                      A
 Frequencies --   3063.7430              3085.0213              3087.2420
 Red. masses --      1.1004                 1.1032                 1.1010
 Frc consts  --      6.0855                 6.1863                 6.1827
 IR Inten    --     41.8053                14.8031                33.0948

                    115                    116                    117
                      A                      A                      A
 Frequencies --   3090.1225              3095.2284              3097.4534
 Red. masses --      1.1055                 1.1020                 1.1042
 Frc consts  --      6.2195                 6.2204                 6.2416
 IR Inten    --     19.0550                49.2496                84.5056

                    118                    119                    120
                      A                      A                      A
 Frequencies --   3100.4041              3110.4364              3550.8908
 Red. masses --      1.1011                 1.0953                 1.0733
 Frc consts  --      6.2360                 6.2434                 7.9736
 IR Inten    --     37.7741                33.9251                 0.1082

 - Thermochemistry -
 -------------------
 Temperature   298.150 Kelvin.  Pressure   1.00000 Atm.
 Atom     1 has atomic number  6 and mass  12.00000

 Molecular mass:   213.20926 amu.
 Principal axes and moments of inertia in atomic units:
                           1         2         3
     Eigenvalues --  3300.058805808.448097840.94999
           X            0.99986   0.01637  -0.00263
           Y           -0.01636   0.99986   0.00340
           Z            0.00268  -0.00336   0.99999
 This molecule is an asymmetric top.
 Rotational symmetry number  1.
 Warning -- assumption of classical behavior for rotation
           may cause significant error
 Rotational temperatures (Kelvin)      0.02625     0.01491     0.01105
 Rotational constants (GHZ):           0.54688     0.31071     0.23017
 Zero-point vibrational energy    1013714.9 (Joules/Mol)
                                  242.28367 (Kcal/Mol)
 Warning -- explicit consideration of  26 degrees of freedom as
           vibrations may cause significant error
 Vibrational temperatures:     31.67    59.54    66.57    82.14    86.41
          (Kelvin)            118.02   137.93   185.31   191.36   216.77
                              225.20   304.02   331.44   341.11   359.58
                              360.61   378.68   397.39   471.54   485.36
                              551.63   580.22   606.04   640.02   702.85
                              757.34   942.25   981.98  1067.26  1081.79
                             1140.61  1165.23  1202.85  1256.17  1296.31
                             1304.25  1305.43  1343.59  1365.24  1387.94
                             1412.39  1424.43  1472.21  1487.23  1491.22
                             1525.63  1540.52  1563.97  1603.47  1628.75
                             1650.26  1654.94  1669.74  1690.52  1698.88
                             1736.06  1751.47  1766.07  1780.41  1785.75
                             1808.67  1827.99  1854.85  1863.38  1865.81
                             1893.86  1906.31  1912.56  1923.25  1953.84
                             1977.60  1987.58  2005.97  2028.40  2029.28
                             2039.01  2049.63  2106.14  2117.79  2130.56
                             2136.50  2137.19  2138.68  2147.90  2148.90
                             2152.86  2153.69  2157.89  2162.18  2164.98
                             2170.87  2186.53  2200.70  4215.57  4253.56
                             4272.37  4297.09  4306.28  4314.07  4323.36
                             4334.70  4343.71  4344.43  4348.19  4357.46
                             4364.20  4365.87  4370.44  4371.77  4380.61
                             4405.85  4408.04  4438.66  4441.85  4446.00
                             4453.34  4456.54  4460.79  4475.22  5108.94

 Zero-point correction=                           0.386104 (Hartree/Particle)
 Thermal correction to Energy=                    0.404885
 Thermal correction to Enthalpy=                  0.405829
 Thermal correction to Gibbs Free Energy=         0.337508
 Sum of electronic and zero-point Energies=           -641.240662
 Sum of electronic and thermal Energies=              -641.221881
 Sum of electronic and thermal Enthalpies=            -641.220936
 Sum of electronic and thermal Free Energies=         -641.289258

                     E (Thermal)             CV                S
                      KCal/Mol        Cal/Mol-Kelvin    Cal/Mol-Kelvin
 Total                  254.069             68.497            143.795
 Electronic               0.000              0.000              0.000
 Translational            0.889              2.981             41.975
 Rotational               0.889              2.981             33.374
 Vibrational            252.292             62.536             68.446
 Vibration     1          0.593              1.985              6.444
 Vibration     2          0.594              1.981              5.192
 Vibration     3          0.595              1.979              4.971
 Vibration     4          0.596              1.975              4.555
 Vibration     5          0.597              1.973              4.455
 Vibration     6          0.600              1.961              3.842
 Vibration     7          0.603              1.952              3.537
 Vibration     8          0.611              1.924              2.964
 Vibration     9          0.613              1.920              2.902
 Vibration    10          0.618              1.902              2.664
 Vibration    11          0.620              1.895              2.591
 Vibration    12          0.643              1.824              2.032
 Vibration    13          0.652              1.795              1.876
 Vibration    14          0.656              1.784              1.825
 Vibration    15          0.663              1.763              1.731
 Vibration    16          0.663              1.762              1.726
 Vibration    17          0.670              1.740              1.640
 Vibration    18          0.678              1.717              1.557
 Vibration    19          0.711              1.620              1.271
 Vibration    20          0.718              1.601              1.225
 Vibration    21          0.753              1.506              1.026
 Vibration    22          0.769              1.463              0.951
 Vibration    23          0.784              1.424              0.888
 Vibration    24          0.804              1.372              0.812
 Vibration    25          0.844              1.276              0.687
 Vibration    26          0.881              1.192              0.595

 Optimization completed.
    -- Stationary point found.
 Normal termination of Gaussian 16 at Wed May 24 06:48:38 2023.
