 Gaussian 16, Revision A.03,
 Gaussian 16:  ES64L-G16RevA.03 25-Dec-2016

 -----------------------------
 # opt freq b3lyp/6-31g(2df,p)
 -----------------------------

 -------------------
 Title Card Required
 -------------------
 Symbolic Z-matrix:
 Charge =  0 Multiplicity = 1

 SCF Done:  E(RB3LYP) =  -432.469560350     A.U. after   12 cycles
 SCF Done:  E(RB3LYP) =  -432.471619427     A.U. after   10 cycles
 SCF Done:  E(RB3LYP) =  -432.473447424     A.U. after   10 cycles
 SCF Done:  E(RB3LYP) =  -432.474488321     A.U. after   10 cycles
 SCF Done:  E(RB3LYP) =  -432.475510041     A.U. after   10 cycles
 SCF Done:  E(RB3LYP) =  -432.476325792     A.U. after   10 cycles
 SCF Done:  E(RB3LYP) =  -432.477028090     A.U. after    9 cycles
 SCF Done:  E(RB3LYP) =  -432.477600264     A.U. after    9 cycles
 SCF Done:  E(RB3LYP) =  -432.477706845     A.U. after    9 cycles
 SCF Done:  E(RB3LYP) =  -432.477793358     A.U. after    9 cycles
 SCF Done:  E(RB3LYP) =  -432.477806504     A.U. after    8 cycles
 SCF Done:  E(RB3LYP) =  -432.477809119     A.U. after    8 cycles
 SCF Done:  E(RB3LYP) =  -432.477809765     A.U. after    6 cycles
 SCF Done:  E(RB3LYP) =  -432.477810050     A.U. after    6 cycles
 SCF Done:  E(RB3LYP) =  -432.477810067     A.U. after    5 cycles
 Optimization completed.
    -- Stationary point found.
 Normal termination of Gaussian 16 at Sun May 28 20:55:07 2023.

 ----------------------------------------------------------------------
 #N Geom=AllCheck Guess=TCheck SCRF=Check GenChk RB3LYP/6-31G(2df,p) Fr
 eq
 ----------------------------------------------------------------------

 Structure from the checkpoint file:  "CCCC1CCCCC1CC.chk"
 -------------------
 Title Card Required
 -------------------
 Charge =  0 Multiplicity = 1

                         Standard orientation:
 ---------------------------------------------------------------------
 Center     Atomic      Atomic             Coordinates (Angstroms)
 Number     Number       Type             X           Y           Z
 ---------------------------------------------------------------------
      1          6           0        4.021048   -0.462212    0.044352
      2          6           0        2.611594   -0.964742   -0.283632
      3          6           0        1.517276    0.012993    0.167967
      4          6           0        0.083414   -0.360066   -0.254063
      5          6           0       -0.352702   -1.709112    0.352908
      6          6           0       -1.768874   -2.123104   -0.063233
      7          6           0       -2.785713   -1.031210    0.281295
      8          6           0       -2.367816    0.311241   -0.326042
      9          6           0       -0.948189    0.748706    0.088517
     10          6           0       -0.610123    2.129665   -0.533248
     11          6           0       -0.008295    3.144119    0.446839
     12          1           0        4.786167   -1.173048   -0.283607
     13          1           0        4.146720   -0.312903    1.122731
     14          1           0        4.224703    0.496586   -0.445697
     15          1           0        2.464740   -1.944354    0.184942
     16          1           0        2.524787   -1.128565   -1.366414
     17          1           0        1.766239    1.000301   -0.237668
     18          1           0        1.555140    0.117201    1.262444
     19          1           0        0.079570   -0.471440   -1.351281
     20          1           0       -0.304157   -1.633597    1.449655
     21          1           0        0.354747   -2.494536    0.068260
     22          1           0       -2.041197   -3.069726    0.417756
     23          1           0       -1.788689   -2.307994   -1.146464
     24          1           0       -2.853583   -0.930080    1.373667
     25          1           0       -3.786480   -1.310938   -0.067743
     26          1           0       -3.082299    1.093392   -0.041449
     27          1           0       -2.409775    0.243118   -1.423305
     28          1           0       -0.949812    0.861499    1.184293
     29          1           0       -1.527087    2.563254   -0.950566
     30          1           0        0.063630    1.996399   -1.389274
     31          1           0       -0.699945    3.342933    1.273306
     32          1           0        0.198572    4.098835   -0.048198
     33          1           0        0.928288    2.786010    0.884650
 ---------------------------------------------------------------------

 SCF Done:  E(RB3LYP) =  -432.477810067     A.U. after    1 cycles

 The electronic state is 1-A.
 Alpha  occ. eigenvalues --  -10.17611 -10.17524 -10.17404 -10.17197 -10.17090
 Alpha  occ. eigenvalues --  -10.17044 -10.16976 -10.16964 -10.16911 -10.16882
 Alpha  occ. eigenvalues --  -10.16798  -0.83269  -0.78178  -0.76916  -0.73348
 Alpha  occ. eigenvalues --   -0.71254  -0.66484  -0.61589  -0.60264  -0.56784
 Alpha  occ. eigenvalues --   -0.56428  -0.54547  -0.46258  -0.45902  -0.44464
 Alpha  occ. eigenvalues --   -0.43397  -0.42620  -0.41934  -0.40345  -0.39482
 Alpha  occ. eigenvalues --   -0.38674  -0.37892  -0.36371  -0.35477  -0.34406
 Alpha  occ. eigenvalues --   -0.33603  -0.33379  -0.32801  -0.32175  -0.32014
 Alpha  occ. eigenvalues --   -0.31572  -0.30472  -0.27954  -0.27891
 Alpha virt. eigenvalues --    0.09064   0.09680   0.09791   0.10510   0.12923
 Alpha virt. eigenvalues --    0.13855   0.14107   0.14574   0.15137   0.15289
 Alpha virt. eigenvalues --    0.15994   0.16490   0.17270   0.18078   0.18309

 Mulliken charges:
               1
     1  C   -0.380994
     2  C   -0.175543
     3  C   -0.182972
     4  C    0.026093
     5  C   -0.195957
     6  C   -0.198752
     7  C   -0.199260
     8  C   -0.206471
     9  C    0.050965
    10  C   -0.201279
    11  C   -0.380083
    12  H    0.108956
    13  H    0.112625
    14  H    0.112057
    15  H    0.099278
    16  H    0.091653
    17  H    0.094811
    18  H    0.085986
    19  H    0.059652
    20  H    0.086518
    21  H    0.090749
    22  H    0.085785
    23  H    0.089508
    24  H    0.089220
    25  H    0.086072
    26  H    0.085761
    27  H    0.088286
    28  H    0.058649
    29  H    0.088258
    30  H    0.092686
    31  H    0.112184
    32  H    0.107759
    33  H    0.117801
 Sum of Mulliken charges =  -0.00000

 Dipole moment (field-independent basis, Debye):
    X=             -0.0407    Y=             -0.0719    Z=             -0.0484  Tot=              0.0957
 Quadrupole moment (field-independent basis, Debye-Ang):
   XX=            -73.8462   YY=            -73.4802   ZZ=            -72.4253
   XY=             -0.4068   XZ=             -0.3089   YZ=             -0.2166

  Exact polarizability: 132.295   1.670 123.260   0.292  -0.158  99.644
 Approx polarizability: 163.413  -0.190 163.194  -0.328  -0.260 163.710

                      1                      2                      3
                      A                      A                      A
 Frequencies --     58.1340                68.4163                87.8376
 Red. masses --      1.8240                 2.4237                 2.0444
 Frc consts  --      0.0036                 0.0067                 0.0093
 IR Inten    --      0.0144                 0.0034                 0.0119

                      4                      5                      6
                      A                      A                      A
 Frequencies --    106.3279               122.9426               197.2711
 Red. masses --      2.7126                 2.7970                 2.0013
 Frc consts  --      0.0181                 0.0249                 0.0459
 IR Inten    --      0.0242                 0.0001                 0.0157

                      7                      8                      9
                      A                      A                      A
 Frequencies --    209.9110               247.6129               264.9348
 Red. masses --      1.2146                 1.1769                 2.0928
 Frc consts  --      0.0315                 0.0425                 0.0865
 IR Inten    --      0.0094                 0.0221                 0.0216

                     10                     11                     12
                      A                      A                      A
 Frequencies --    275.7508               309.0789               330.3544
 Red. masses --      2.6363                 2.2526                 1.7603
 Frc consts  --      0.1181                 0.1268                 0.1132
 IR Inten    --      0.0574                 0.2129                 0.0344

                     13                     14                     15
                      A                      A                      A
 Frequencies --    377.5433               415.3454               447.6312
 Red. masses --      2.8389                 2.4422                 2.7079
 Frc consts  --      0.2384                 0.2482                 0.3197
 IR Inten    --      0.1417                 0.1468                 0.0087

                     16                     17                     18
                      A                      A                      A
 Frequencies --    456.3732               510.3437               562.1086
 Red. masses --      2.9288                 2.3828                 1.7889
 Frc consts  --      0.3594                 0.3657                 0.3330
 IR Inten    --      0.0053                 0.0396                 0.1560

                     19                     20                     21
                      A                      A                      A
 Frequencies --    742.6992               757.8561               793.2969
 Red. masses --      1.1793                 1.3680                 1.5395
 Frc consts  --      0.3833                 0.4629                 0.5708
 IR Inten    --      2.0059                 1.7404                 0.9007

                     22                     23                     24
                      A                      A                      A
 Frequencies --    824.2557               844.7524               871.6307
 Red. masses --      1.7001                 1.7074                 1.9310
 Frc consts  --      0.6805                 0.7179                 0.8643
 IR Inten    --      1.1047                 1.2512                 2.0691

                     25                     26                     27
                      A                      A                      A
 Frequencies --    895.7784               902.9972               923.5710
 Red. masses --      1.4836                 1.7133                 1.8454
 Frc consts  --      0.7014                 0.8231                 0.9274
 IR Inten    --      0.7530                 0.5037                 1.0695

                     28                     29                     30
                      A                      A                      A
 Frequencies --    949.5537               976.6108              1020.3802
 Red. masses --      2.0189                 2.1453                 1.7077
 Frc consts  --      1.0725                 1.2055                 1.0476
 IR Inten    --      0.1055                 3.0679                 1.2049

                     31                     32                     33
                      A                      A                      A
 Frequencies --   1032.4044              1040.6442              1046.0718
 Red. masses --      1.6922                 2.0217                 2.1093
 Frc consts  --      1.0627                 1.2899                 1.3599
 IR Inten    --      0.4644                 0.7400                 0.4132

                     34                     35                     36
                      A                      A                      A
 Frequencies --   1069.5378              1072.4002              1088.3335
 Red. masses --      1.7606                 2.1766                 1.2474
 Frc consts  --      1.1866                 1.4748                 0.8705
 IR Inten    --      0.3289                 0.0458                 0.6097

                     37                     38                     39
                      A                      A                      A
 Frequencies --   1097.3555              1128.1833              1131.8658
 Red. masses --      1.8555                 2.2463                 1.9460
 Frc consts  --      1.3164                 1.6845                 1.4689
 IR Inten    --      0.2529                 1.1591                 0.7055

                     40                     41                     42
                      A                      A                      A
 Frequencies --   1175.2692              1187.4231              1229.2063
 Red. masses --      2.2606                 2.0829                 1.4661
 Frc consts  --      1.8397                 1.7303                 1.3051
 IR Inten    --      0.2502                 0.4136                 0.9632

                     43                     44                     45
                      A                      A                      A
 Frequencies --   1250.0772              1263.1721              1289.1427
 Red. masses --      1.4342                 1.3267                 1.2679
 Frc consts  --      1.3205                 1.2472                 1.2415
 IR Inten    --      3.9209                 4.0086                 0.5285

                     46                     47                     48
                      A                      A                      A
 Frequencies --   1299.5954              1310.2696              1318.9579
 Red. masses --      1.1826                 1.2272                 1.2420
 Frc consts  --      1.1769                 1.2414                 1.2730
 IR Inten    --      0.3205                 1.9114                 0.5393

                     49                     50                     51
                      A                      A                      A
 Frequencies --   1325.9065              1337.4475              1354.2301
 Red. masses --      1.1875                 1.2046                 1.2228
 Frc consts  --      1.2301                 1.2695                 1.3213
 IR Inten    --      0.4984                 0.6934                 0.6473

                     52                     53                     54
                      A                      A                      A
 Frequencies --   1369.5921              1375.4542              1380.3820
 Red. masses --      1.3798                 1.3622                 1.4230
 Frc consts  --      1.5250                 1.5184                 1.5976
 IR Inten    --      0.9320                 0.3957                 3.6932

                     55                     56                     57
                      A                      A                      A
 Frequencies --   1381.6788              1386.4655              1391.2587
 Red. masses --      1.4321                 1.5357                 1.4801
 Frc consts  --      1.6107                 1.7393                 1.6879
 IR Inten    --      0.8676                 2.6930                 1.2631

                     58                     59                     60
                      A                      A                      A
 Frequencies --   1399.5139              1411.9989              1413.3617
 Red. masses --      1.4868                 1.2333                 1.2473
 Frc consts  --      1.7157                 1.4487                 1.4680
 IR Inten    --      1.0824                 1.8474                 1.6032

                     61                     62                     63
                      A                      A                      A
 Frequencies --   1480.3763              1483.6118              1485.0641
 Red. masses --      1.0766                 1.0873                 1.0935
 Frc consts  --      1.3902                 1.4101                 1.4208
 IR Inten    --      0.7420                 0.2799                 0.6857

                     64                     65                     66
                      A                      A                      A
 Frequencies --   1488.4238              1492.7844              1495.2846
 Red. masses --      1.0806                 1.0600                 1.0522
 Frc consts  --      1.4105                 1.3917                 1.3860
 IR Inten    --      4.2931                 3.5945                 1.7676

                     67                     68                     69
                      A                      A                      A
 Frequencies --   1499.5937              1501.1468              1502.2837
 Red. masses --      1.0407                 1.0458                 1.0999
 Frc consts  --      1.3788                 1.3885                 1.4625
 IR Inten    --      4.6225                 2.4032                 0.3823

                     70                     71                     72
                      A                      A                      A
 Frequencies --   1508.7546              1512.4986              2961.3883
 Red. masses --      1.0727                 1.0821                 1.0790
 Frc consts  --      1.4387                 1.4584                 5.5753
 IR Inten    --      2.2353                 3.3342                 2.6406

                     73                     74                     75
                      A                      A                      A
 Frequencies --   2975.8220              2996.9766              2999.0315
 Red. masses --      1.0814                 1.0679                 1.0653
 Frc consts  --      5.6423                 5.6513                 5.6450
 IR Inten    --      9.3633                11.3695                13.2356

                     76                     77                     78
                      A                      A                      A
 Frequencies --   3003.6348              3006.6276              3011.6465
 Red. masses --      1.0684                 1.0666                 1.0605
 Frc consts  --      5.6789                 5.6808                 5.6671
 IR Inten    --     18.2658                20.3289                36.2754

                     79                     80                     81
                      A                      A                      A
 Frequencies --   3017.9560              3020.3865              3026.9298
 Red. masses --      1.0634                 1.0609                 1.0359
 Frc consts  --      5.7063                 5.7024                 5.5918
 IR Inten    --     32.7661                47.4557                37.9486

                     82                     83                     84
                      A                      A                      A
 Frequencies --   3030.5984              3044.4113              3046.8705
 Red. masses --      1.0372                 1.0990                 1.0926
 Frc consts  --      5.6128                 6.0016                 5.9760
 IR Inten    --     34.9005                 1.6870                13.0419

                     85                     86                     87
                      A                      A                      A
 Frequencies --   3049.6743              3055.3988              3060.2197
 Red. masses --      1.0978                 1.0934                 1.1016
 Frc consts  --      6.0154                 6.0143                 6.0785
 IR Inten    --     65.2991                64.1696                49.4929

                     88                     89                     90
                      A                      A                      A
 Frequencies --   3066.1460              3072.6117              3093.5278
 Red. masses --      1.0986                 1.0933                 1.1012
 Frc consts  --      6.0854                 6.0816                 6.2089
 IR Inten    --     46.0633                41.7285                25.8594

                     91                     92                     93
                      A                      A                      A
 Frequencies --   3094.9441              3099.0168              3107.3896
 Red. masses --      1.1020                 1.1007                 1.1004
 Frc consts  --      6.2193                 6.2284                 6.2603
 IR Inten    --     75.8006                50.3391                35.9812

 - Thermochemistry -
 -------------------
 Temperature   298.150 Kelvin.  Pressure   1.00000 Atm.
 Atom     1 has atomic number  6 and mass  12.00000

 Molecular mass:   154.17215 amu.
 Principal axes and moments of inertia in atomic units:
                           1         2         3
     Eigenvalues --  1479.471282421.647563665.39197
           X            1.00000  -0.00143   0.00114
           Y            0.00143   0.99999   0.00306
           Z           -0.00114  -0.00306   0.99999
 This molecule is an asymmetric top.
 Rotational symmetry number  1.
 Warning -- assumption of classical behavior for rotation
           may cause significant error
 Rotational temperatures (Kelvin)      0.05854     0.03577     0.02363
 Rotational constants (GHZ):           1.21986     0.74525     0.49237
 Zero-point vibrational energy     815850.4 (Joules/Mol)
                                  194.99292 (Kcal/Mol)
 Warning -- explicit consideration of  18 degrees of freedom as
           vibrations may cause significant error
 Vibrational temperatures:     83.64    98.44   126.38   152.98   176.89
          (Kelvin)            283.83   302.02   356.26   381.18   396.74
                              444.70   475.31   543.20   597.59   644.04
                              656.62   734.27   808.75  1068.58  1090.39
                             1141.38  1185.92  1215.41  1254.08  1288.83
                             1299.21  1328.81  1366.20  1405.13  1468.10
                             1485.40  1497.25  1505.06  1538.83  1542.94
                             1565.87  1578.85  1623.20  1628.50  1690.95
                             1708.44  1768.55  1798.58  1817.42  1854.79
                             1869.83  1885.19  1897.69  1907.68  1924.29
                             1948.44  1970.54  1978.97  1986.06  1987.93
                             1994.81  2001.71  2013.59  2031.55  2033.51
                             2129.93  2134.59  2136.68  2141.51  2147.78
                             2151.38  2157.58  2159.82  2161.45  2170.76
                             2176.15  4260.78  4281.54  4311.98  4314.94
                             4321.56  4325.87  4333.09  4342.17  4345.66
                             4355.08  4360.36  4380.23  4383.77  4387.80
                             4396.04  4402.97  4411.50  4420.80  4450.90
                             4452.93  4458.79  4470.84

 Zero-point correction=                           0.310741 (Hartree/Particle)
 Thermal correction to Energy=                    0.323485
 Thermal correction to Enthalpy=                  0.324429
 Thermal correction to Gibbs Free Energy=         0.271945
 Sum of electronic and zero-point Energies=           -432.167069
 Sum of electronic and thermal Energies=              -432.154325
 Sum of electronic and thermal Enthalpies=            -432.153381
 Sum of electronic and thermal Free Energies=         -432.205865

                     E (Thermal)             CV                S
                      KCal/Mol        Cal/Mol-Kelvin    Cal/Mol-Kelvin
 Total                  202.990             48.905            110.462
 Electronic               0.000              0.000              0.000
 Translational            0.889              2.981             41.008
 Rotational               0.889              2.981             30.952
 Vibrational            201.213             42.944             38.502
 Vibration     1          0.596              1.974              4.520
 Vibration     2          0.598              1.969              4.198
 Vibration     3          0.601              1.958              3.708
 Vibration     4          0.605              1.944              3.335
 Vibration     5          0.610              1.930              3.054
 Vibration     6          0.637              1.844              2.158
 Vibration     7          0.642              1.826              2.044
 Vibration     8          0.661              1.767              1.748
 Vibration     9          0.671              1.737              1.629
 Vibration    10          0.677              1.718              1.560
 Vibration    11          0.698              1.656              1.367
 Vibration    12          0.713              1.615              1.258
 Vibration    13          0.748              1.518              1.049
 Vibration    14          0.779              1.437              0.908
 Vibration    15          0.807              1.366              0.803
 Vibration    16          0.815              1.347              0.777
 Vibration    17          0.865              1.227              0.633
 Vibration    18          0.918              1.113              0.520

 Optimization completed.
    -- Stationary point found.
 Normal termination of Gaussian 16 at Sun May 28 22:19:21 2023.
