 Gaussian 16, Revision A.03,
 Gaussian 16:  ES64L-G16RevA.03 25-Dec-2016

 -----------------------------
 # opt freq b3lyp/6-31g(2df,p)
 -----------------------------

 -------------------
 Title Card Required
 -------------------
 Symbolic Z-matrix:
 Charge =  0 Multiplicity = 1

 SCF Done:  E(RB3LYP) =  -705.473685604     A.U. after   12 cycles
 SCF Done:  E(RB3LYP) =  -705.485696339     A.U. after   10 cycles
 SCF Done:  E(RB3LYP) =  -705.486582047     A.U. after   10 cycles
 SCF Done:  E(RB3LYP) =  -705.486681488     A.U. after    9 cycles
 SCF Done:  E(RB3LYP) =  -705.486690463     A.U. after    8 cycles
 SCF Done:  E(RB3LYP) =  -705.486693030     A.U. after    7 cycles
 SCF Done:  E(RB3LYP) =  -705.486693545     A.U. after    6 cycles
 SCF Done:  E(RB3LYP) =  -705.486693624     A.U. after    6 cycles
 SCF Done:  E(RB3LYP) =  -705.486693687     A.U. after    6 cycles
 Optimization completed.
    -- Stationary point found.
 Normal termination of Gaussian 16 at Wed May 24 08:44:39 2023.

 ----------------------------------------------------------------------
 #N Geom=AllCheck Guess=TCheck SCRF=Check GenChk RB3LYP/6-31G(2df,p) Fr
 eq
 ----------------------------------------------------------------------

 Structure from the checkpoint file:  "CCCCCCCCCCCqCrCCCCO.chk"
 -------------------
 Title Card Required
 -------------------
 Charge =  0 Multiplicity = 1

                         Standard orientation:
 ---------------------------------------------------------------------
 Center     Atomic      Atomic             Coordinates (Angstroms)
 Number     Number       Type             X           Y           Z
 ---------------------------------------------------------------------
      1          6           0       -9.767449   -0.105229   -0.367173
      2          6           0       -8.461688   -0.698641    0.168648
      3          6           0       -7.215462    0.060278   -0.299945
      4          6           0       -5.903790   -0.527144    0.231339
      5          6           0       -4.657943    0.232546   -0.236953
      6          6           0       -3.346113   -0.355764    0.293690
      7          6           0       -2.100277    0.404658   -0.173586
      8          6           0       -0.788594   -0.184721    0.356210
      9          6           0        0.457827    0.576115   -0.111325
     10          6           0        1.763402   -0.022875    0.426230
     11          6           0        3.057585    0.633621   -0.093732
     12          6           0        3.177579    2.097827    0.355356
     13          6           0        4.279502   -0.201744    0.336198
     14          6           0        5.615855    0.216321   -0.290036
     15          6           0        6.770218   -0.719996    0.085467
     16          6           0        8.107742   -0.297454   -0.522534
     17          8           0        9.164824   -1.196682   -0.224434
     18          1           0      -10.638076   -0.667936   -0.015632
     19          1           0       -9.785974   -0.113924   -1.462825
     20          1           0       -9.891249    0.934802   -0.044861
     21          1           0       -8.382473   -1.749426   -0.140638
     22          1           0       -8.487012   -0.708855    1.266528
     23          1           0       -7.294597    1.112199    0.009170
     24          1           0       -7.190256    0.071563   -1.398843
     25          1           0       -5.825363   -1.578804   -0.078447
     26          1           0       -5.930079   -0.538757    1.330107
     27          1           0       -4.736002    1.284016    0.073491
     28          1           0       -4.631926    0.244796   -1.335685
     29          1           0       -3.267688   -1.406963   -0.017538
     30          1           0       -3.372375   -0.368863    1.392416
     31          1           0       -2.178427    1.455654    0.138439
     32          1           0       -2.074272    0.418504   -1.272309
     33          1           0       -0.710888   -1.235901    0.044863
     34          1           0       -0.814429   -0.198052    1.454960
     35          1           0        0.367410    1.625720    0.195098
     36          1           0        0.487369    0.581945   -1.210250
     37          1           0        1.787479   -1.090357    0.167594
     38          1           0        1.757271    0.019213    1.525419
     39          1           0        3.017300    0.618537   -1.193944
     40          1           0        3.223905    2.165014    1.449573
     41          1           0        2.323829    2.694307    0.022121
     42          1           0        4.077624    2.572827   -0.045147
     43          1           0        4.090139   -1.252735    0.079349
     44          1           0        4.366942   -0.171253    1.432219
     45          1           0        5.872127    1.239144    0.013013
     46          1           0        5.510860    0.240233   -1.383911
     47          1           0        6.548931   -1.744972   -0.237025
     48          1           0        6.871054   -0.754450    1.180715
     49          1           0        8.355735    0.729450   -0.205849
     50          1           0        8.034486   -0.283827   -1.615951
     51          1           0        9.269675   -1.216169    0.732117
 ---------------------------------------------------------------------

 SCF Done:  E(RB3LYP) =  -705.486693687     A.U. after    1 cycles

 The electronic state is 1-A.
 Alpha  occ. eigenvalues --  -19.12830 -10.22068 -10.18201 -10.17884 -10.17700
 Alpha  occ. eigenvalues --  -10.17481 -10.17448 -10.17311 -10.17290 -10.17258
 Alpha  occ. eigenvalues --  -10.17237 -10.17230 -10.17224 -10.17212 -10.17196
 Alpha  occ. eigenvalues --  -10.16883 -10.16877  -1.00910  -0.81800  -0.80593
 Alpha  occ. eigenvalues --   -0.79121  -0.77614  -0.75607  -0.72514  -0.69837
 Alpha  occ. eigenvalues --   -0.68400  -0.65183  -0.62877  -0.60191  -0.58333
 Alpha  occ. eigenvalues --   -0.57310  -0.56893  -0.56703  -0.55237  -0.49928
 Alpha  occ. eigenvalues --   -0.48074  -0.47069  -0.46444  -0.45268  -0.44346
 Alpha  occ. eigenvalues --   -0.43697  -0.42541  -0.42035  -0.41810  -0.40859
 Alpha  occ. eigenvalues --   -0.40325  -0.39778  -0.39111  -0.38214  -0.37307
 Alpha  occ. eigenvalues --   -0.36563  -0.36114  -0.35552  -0.35005  -0.34657
 Alpha  occ. eigenvalues --   -0.33803  -0.33349  -0.32894  -0.32357  -0.32276
 Alpha  occ. eigenvalues --   -0.31811  -0.31728  -0.31584  -0.31532  -0.31461
 Alpha  occ. eigenvalues --   -0.30983  -0.30621  -0.28564  -0.25894
 Alpha virt. eigenvalues --    0.08012   0.08317   0.08996   0.09721   0.10529
 Alpha virt. eigenvalues --    0.10679   0.11201   0.11441   0.11667   0.12385
 Alpha virt. eigenvalues --    0.13026   0.13411   0.13590   0.14633   0.15227

 Mulliken charges:
               1
     1  C   -0.378947
     2  C   -0.162618
     3  C   -0.158042
     4  C   -0.177705
     5  C   -0.180238
     6  C   -0.179572
     7  C   -0.181016
     8  C   -0.177825
     9  C   -0.194783
    10  C   -0.180649
    11  C    0.022701
    12  C   -0.390351
    13  C   -0.178616
    14  C   -0.195957
    15  C   -0.196413
    16  C   -0.057281
    17  O   -0.419422
    18  H    0.109356
    19  H    0.112258
    20  H    0.112204
    21  H    0.092662
    22  H    0.092596
    23  H    0.089357
    24  H    0.089429
    25  H    0.089940
    26  H    0.089844
    27  H    0.089947
    28  H    0.090064
    29  H    0.090145
    30  H    0.089977
    31  H    0.090006
    32  H    0.090155
    33  H    0.090280
    34  H    0.090423
    35  H    0.095217
    36  H    0.089683
    37  H    0.086829
    38  H    0.087553
    39  H    0.065995
    40  H    0.108104
    41  H    0.115090
    42  H    0.112958
    43  H    0.089131
    44  H    0.088045
    45  H    0.097408
    46  H    0.094693
    47  H    0.104330
    48  H    0.082515
    49  H    0.082672
    50  H    0.109366
    51  H    0.278503
 Sum of Mulliken charges =  -0.00000

 Dipole moment (field-independent basis, Debye):
    X=             -1.0191    Y=              0.6503    Z=              1.0396  Tot=              1.5944
 Quadrupole moment (field-independent basis, Debye-Ang):
   XX=           -131.2094   YY=           -114.2073   ZZ=           -110.1260
   XY=              6.9160   XZ=             10.4364   YZ=             -0.5981

  Exact polarizability: 245.364  -1.667 158.797   1.068  -1.974 153.519
 Approx polarizability: 247.212  -2.013 242.415   1.058   0.840 245.667

                      1                      2                      3
                      A                      A                      A
 Frequencies --     13.2896                22.2058                27.3715
 Red. masses --      3.9265                 3.0581                 1.7935
 Frc consts  --      0.0004                 0.0009                 0.0008
 IR Inten    --      0.1111                 0.0071                 0.4854

                      4                      5                      6
                      A                      A                      A
 Frequencies --     35.5011                49.2272                61.1833
 Red. masses --      3.5050                 2.0457                 2.8003
 Frc consts  --      0.0026                 0.0029                 0.0062
 IR Inten    --      0.4232                 1.1537                 0.3797

                      7                      8                      9
                      A                      A                      A
 Frequencies --     63.3768                75.3648                96.9595
 Red. masses --      3.4641                 1.8082                 2.6856
 Frc consts  --      0.0082                 0.0061                 0.0149
 IR Inten    --      0.5500                 0.3159                 0.4472

                     10                     11                     12
                      A                      A                      A
 Frequencies --    104.1506               118.2461               127.2169
 Red. masses --      3.7520                 1.6930                 2.2152
 Frc consts  --      0.0240                 0.0139                 0.0211
 IR Inten    --      0.1566                 0.4473                 0.9348

                     13                     14                     15
                      A                      A                      A
 Frequencies --    137.3878               142.1205               149.8815
 Red. masses --      1.9612                 3.4272                 2.3420
 Frc consts  --      0.0218                 0.0408                 0.0310
 IR Inten    --      0.4791                 0.1483                 0.7009

                     16                     17                     18
                      A                      A                      A
 Frequencies --    161.7667               168.2070               169.8420
 Red. masses --      1.9221                 2.0255                 3.3689
 Frc consts  --      0.0296                 0.0338                 0.0573
 IR Inten    --      0.0093                 0.0186                 0.2531

                     19                     20                     21
                      A                      A                      A
 Frequencies --    237.4132               239.3087               247.7271
 Red. masses --      1.9890                 1.6294                 1.1205
 Frc consts  --      0.0661                 0.0550                 0.0405
 IR Inten    --      1.5008                 0.2583                 0.0011

                     22                     23                     24
                      A                      A                      A
 Frequencies --    260.6893               292.1371               307.8508
 Red. masses --      3.1354                 2.5747                 1.2701
 Frc consts  --      0.1255                 0.1295                 0.0709
 IR Inten    --      0.5293                12.5054                96.8803

                     25                     26                     27
                      A                      A                      A
 Frequencies --    344.0000               381.0950               405.9119
 Red. masses --      3.0300                 2.8944                 2.4847
 Frc consts  --      0.2113                 0.2477                 0.2412
 IR Inten    --      2.2599                 2.0596                 1.1552

                     28                     29                     30
                      A                      A                      A
 Frequencies --    432.2276               471.0902               480.0234
 Red. masses --      2.8111                 2.6762                 3.4719
 Frc consts  --      0.3094                 0.3499                 0.4713
 IR Inten    --      2.2276                 0.5081                 2.5663

                     31                     32                     33
                      A                      A                      A
 Frequencies --    520.3149               543.8043               731.0582
 Red. masses --      2.8831                 2.7466                 1.0582
 Frc consts  --      0.4599                 0.4785                 0.3332
 IR Inten    --      0.2550                 2.3033                 5.4779

                     34                     35                     36
                      A                      A                      A
 Frequencies --    731.1881               736.2336               740.2503
 Red. masses --      1.0688                 1.0913                 1.0939
 Frc consts  --      0.3367                 0.3485                 0.3532
 IR Inten    --      0.4018                 0.0442                 4.1840

                     37                     38                     39
                      A                      A                      A
 Frequencies --    755.9470               784.1469               792.5162
 Red. masses --      1.1422                 1.1867                 1.2449
 Frc consts  --      0.3846                 0.4299                 0.4607
 IR Inten    --      0.1476                 0.4267                 0.6357

                     40                     41                     42
                      A                      A                      A
 Frequencies --    838.1407               858.4838               897.6063
 Red. masses --      1.6153                 1.5788                 1.9483
 Frc consts  --      0.6686                 0.6856                 0.9249
 IR Inten    --      0.0312                 0.7074                 1.2094

                     43                     44                     45
                      A                      A                      A
 Frequencies --    901.9737               909.8053               936.3896
 Red. masses --      1.2721                 1.2345                 2.3477
 Frc consts  --      0.6097                 0.6020                 1.2129
 IR Inten    --      7.0357                 0.6846                 2.4441

                     46                     47                     48
                      A                      A                      A
 Frequencies --    967.5731               988.5443               996.2850
 Red. masses --      1.2603                 3.8505                 2.5655
 Frc consts  --      0.6952                 2.2170                 1.5003
 IR Inten    --      0.3756                 0.4330                 7.8714

                     49                     50                     51
                      A                      A                      A
 Frequencies --   1004.8275              1010.7773              1025.6237
 Red. masses --      2.8298                 1.5484                 3.1273
 Frc consts  --      1.6834                 0.9321                 1.9382
 IR Inten    --      4.5620                 0.6088                 5.7732

                     52                     53                     54
                      A                      A                      A
 Frequencies --   1035.7382              1041.6738              1050.8050
 Red. masses --      2.1017                 1.6625                 2.6102
 Frc consts  --      1.3284                 1.0629                 1.6981
 IR Inten    --      0.3814                 1.0388                 2.0163

                     55                     56                     57
                      A                      A                      A
 Frequencies --   1061.2906              1063.1181              1069.2071
 Red. masses --      2.2120                 2.3051                 1.5888
 Frc consts  --      1.4679                 1.5350                 1.0702
 IR Inten    --      5.4697                 1.5713                 0.9695

                     58                     59                     60
                      A                      A                      A
 Frequencies --   1071.0280              1073.2778              1077.1921
 Red. masses --      1.8762                 2.1819                 2.6433
 Frc consts  --      1.2680                 1.4809                 1.8071
 IR Inten    --      0.0899                 2.0497                18.2383

                     61                     62                     63
                      A                      A                      A
 Frequencies --   1081.1688              1119.1793              1136.7350
 Red. masses --      3.7699                 1.9649                 1.7145
 Frc consts  --      2.5964                 1.4500                 1.3053
 IR Inten    --     91.7358                 2.6360                 5.0648

                     64                     65                     66
                      A                      A                      A
 Frequencies --   1149.4929              1176.5591              1206.4949
 Red. masses --      2.7147                 1.7355                 1.9204
 Frc consts  --      2.1134                 1.4155                 1.6470
 IR Inten    --      1.0112                 6.5072                 0.1481

                     67                     68                     69
                      A                      A                      A
 Frequencies --   1217.5189              1226.0786              1242.8762
 Red. masses --      1.7502                 1.2967                 1.4305
 Frc consts  --      1.5286                 1.1485                 1.3019
 IR Inten    --      0.4817                 6.7382                 0.0718

                     70                     71                     72
                      A                      A                      A
 Frequencies --   1251.3405              1264.3623              1274.0569
 Red. masses --      1.3363                 1.3241                 1.3532
 Frc consts  --      1.2328                 1.2472                 1.2941
 IR Inten    --      1.3523                 2.2962                 6.9583

                     73                     74                     75
                      A                      A                      A
 Frequencies --   1282.3424              1299.5400              1307.6428
 Red. masses --      1.3544                 1.2844                 1.2542
 Frc consts  --      1.3122                 1.2780                 1.2635
 IR Inten    --      2.7468                 0.1547                 0.1299

                     76                     77                     78
                      A                      A                      A
 Frequencies --   1319.2773              1321.5590              1322.9880
 Red. masses --      1.1572                 1.1819                 1.0577
 Frc consts  --      1.1866                 1.2162                 1.0908
 IR Inten    --      1.1535                 1.4623                 0.2999

                     79                     80                     81
                      A                      A                      A
 Frequencies --   1327.4364              1330.3038              1331.8146
 Red. masses --      1.1204                 1.1306                 1.0776
 Frc consts  --      1.1632                 1.1789                 1.1261
 IR Inten    --      0.1876                 1.0703                 0.1515

                     82                     83                     84
                      A                      A                      A
 Frequencies --   1339.2082              1339.3180              1343.5087
 Red. masses --      1.1182                 1.1028                 1.3221
 Frc consts  --      1.1816                 1.1655                 1.4061
 IR Inten    --      0.0683                 0.1186                 0.5438

                     85                     86                     87
                      A                      A                      A
 Frequencies --   1362.0865              1376.9632              1381.2441
 Red. masses --      1.3462                 1.4174                 1.3318
 Frc consts  --      1.4715                 1.5834                 1.4971
 IR Inten    --      0.6304                 0.7146                 2.5728

                     88                     89                     90
                      A                      A                      A
 Frequencies --   1392.9344              1393.9956              1398.9648
 Red. masses --      1.5349                 1.3823                 1.5286
 Frc consts  --      1.7547                 1.5826                 1.7627
 IR Inten    --      2.6868                 1.3326                 4.7574

                     91                     92                     93
                      A                      A                      A
 Frequencies --   1401.4022              1403.2018              1404.2309
 Red. masses --      1.5404                 1.6022                 1.4957
 Frc consts  --      1.7824                 1.8587                 1.7377
 IR Inten    --      1.3828                 0.3014                 0.4035

                     94                     95                     96
                      A                      A                      A
 Frequencies --   1413.3340              1414.6110              1424.5859
 Red. masses --      1.2606                 1.2996                 1.2932
 Frc consts  --      1.4836                 1.5322                 1.5463
 IR Inten    --      0.4557                 6.2612                54.4973

                     97                     98                     99
                      A                      A                      A
 Frequencies --   1474.3048              1481.1753              1481.2211
 Red. masses --      1.0780                 1.0741                 1.0741
 Frc consts  --      1.3805                 1.3884                 1.3884
 IR Inten    --      0.4043                 0.0033                 0.0818

                    100                    101                    102
                      A                      A                      A
 Frequencies --   1483.8657              1484.4752              1485.8239
 Red. masses --      1.0742                 1.0707                 1.0775
 Frc consts  --      1.3936                 1.3902                 1.4015
 IR Inten    --      0.2397                 0.0075                 0.0833

                    103                    104                    105
                      A                      A                      A
 Frequencies --   1487.0786              1492.1461              1498.3120
 Red. masses --      1.0822                 1.0816                 1.0604
 Frc consts  --      1.4100                 1.4188                 1.4026
 IR Inten    --      0.4065                 0.2300                 0.4564

                    106                    107                    108
                      A                      A                      A
 Frequencies --   1499.3445              1499.8339              1501.3295
 Red. masses --      1.0847                 1.0403                 1.0888
 Frc consts  --      1.4367                 1.3788                 1.4459
 IR Inten    --      0.4399                 4.8689                 0.0386

                    109                    110                    111
                      A                      A                      A
 Frequencies --   1506.1235              1509.7039              1513.0225
 Red. masses --      1.0827                 1.0605                 1.0903
 Frc consts  --      1.4470                 1.4241                 1.4706
 IR Inten    --      0.3180                 6.6420                 0.4566

                    112                    113                    114
                      A                      A                      A
 Frequencies --   1516.6203              1517.7315              2964.6009
 Red. masses --      1.0974                 1.0956                 1.0710
 Frc consts  --      1.4872                 1.4870                 5.5459
 IR Inten    --      4.5449                 1.4608                54.3114

                    115                    116                    117
                      A                      A                      A
 Frequencies --   2981.6617              2993.8962              2996.4808
 Red. masses --      1.0800                 1.0594                 1.0646
 Frc consts  --      5.6570                 5.5949                 5.6320
 IR Inten    --      6.6007                 1.6828                 5.3039

                    118                    119                    120
                      A                      A                      A
 Frequencies --   2997.0758              2997.4873              2999.5180
 Red. masses --      1.0574                 1.0578                 1.0583
 Frc consts  --      5.5959                 5.5997                 5.6098
 IR Inten    --      0.1541                 0.9787                 3.6065

                    121                    122                    123
                      A                      A                      A
 Frequencies --   2999.7436              3000.9766              3003.9839
 Red. masses --      1.0589                 1.0597                 1.0599
 Frc consts  --      5.6139                 5.6229                 5.6353
 IR Inten    --      0.7302                 6.1742                 1.9704

                    124                    125                    126
                      A                      A                      A
 Frequencies --   3009.3483              3012.8923              3014.5063
 Red. masses --      1.0616                 1.0620                 1.0627
 Frc consts  --      5.6644                 5.6798                 5.6896
 IR Inten    --      0.8456                13.8145                52.1686

                    127                    128                    129
                      A                      A                      A
 Frequencies --   3016.8963              3017.4109              3019.1551
 Red. masses --      1.0611                 1.0973                 1.0972
 Frc consts  --      5.6899                 5.8864                 5.8926
 IR Inten    --    234.4726                 1.1452                 6.4558

                    130                    131                    132
                      A                      A                      A
 Frequencies --   3023.7672              3025.9688              3027.6036
 Red. masses --      1.0966                 1.0974                 1.0357
 Frc consts  --      5.9072                 5.9205                 5.5932
 IR Inten    --      6.3580                 1.6050                42.8286

                    133                    134                    135
                      A                      A                      A
 Frequencies --   3028.2213              3031.3575              3033.8686
 Red. masses --      1.0468                 1.0930                 1.1007
 Frc consts  --      5.6556                 5.9177                 5.9691
 IR Inten    --     17.2153                 2.6430                 4.8191

                    136                    137                    138
                      A                      A                      A
 Frequencies --   3042.5541              3044.9645              3052.7184
 Red. masses --      1.1028                 1.0945                 1.1045
 Frc consts  --      6.0149                 5.9790                 6.0643
 IR Inten    --      2.9957                 9.5918                 4.0666

                    139                    140                    141
                      A                      A                      A
 Frequencies --   3058.8434              3061.5051              3066.9671
 Red. masses --      1.0960                 1.1038                 1.1041
 Frc consts  --      6.0419                 6.0954                 6.1188
 IR Inten    --     18.9582                20.7990               203.0971

                    142                    143                    144
                      A                      A                      A
 Frequencies --   3074.0560              3093.6883              3097.1237
 Red. masses --      1.1010                 1.1020                 1.0951
 Frc consts  --      6.1301                 6.2143                 6.1891
 IR Inten    --    128.4640                61.0464                32.4181

                    145                    146                    147
                      A                      A                      A
 Frequencies --   3099.0173              3111.2808              3814.2548
 Red. masses --      1.1009                 1.1002                 1.0661
 Frc consts  --      6.2297                 6.2750                 9.1380
 IR Inten    --     40.5514                42.9056                14.6604

 - Thermochemistry -
 -------------------
 Temperature   298.150 Kelvin.  Pressure   1.00000 Atm.
 Atom     1 has atomic number  6 and mass  12.00000

 Molecular mass:   242.26097 amu.
 Principal axes and moments of inertia in atomic units:
                           1         2         3
     Eigenvalues --   730.79214********************
           X            1.00000   0.00273   0.00130
           Y           -0.00270   0.99973  -0.02296
           Z           -0.00136   0.02296   0.99974
 This molecule is an asymmetric top.
 Rotational symmetry number  1.
 Warning -- assumption of classical behavior for rotation
           may cause significant error
 Rotational temperatures (Kelvin)      0.11852     0.00293     0.00290
 Rotational constants (GHZ):           2.46957     0.06110     0.06032
 Zero-point vibrational energy    1251661.5 (Joules/Mol)
                                  299.15427 (Kcal/Mol)
 Warning -- explicit consideration of  32 degrees of freedom as
           vibrations may cause significant error
 Vibrational temperatures:     19.12    31.95    39.38    51.08    70.83
          (Kelvin)             88.03    91.19   108.43   139.50   149.85
                              170.13   183.04   197.67   204.48   215.65
                              232.75   242.01   244.36   341.58   344.31
                              356.42   375.07   420.32   442.93   494.94
                              548.31   584.02   621.88   677.79   690.65
                              748.62   782.41  1051.83  1052.02  1059.28
                             1065.06  1087.64  1128.21  1140.25  1205.90
                             1235.17  1291.46  1297.74  1309.01  1347.26
                             1392.12  1422.29  1433.43  1445.72  1454.28
                             1475.64  1490.20  1498.74  1511.87  1526.96
                             1529.59  1538.35  1540.97  1544.21  1549.84
                             1555.56  1610.25  1635.51  1653.86  1692.81
                             1735.88  1751.74  1764.05  1788.22  1800.40
                             1819.14  1833.08  1845.00  1869.75  1881.41
                             1898.15  1901.43  1903.48  1909.88  1914.01
                             1916.18  1926.82  1926.98  1933.01  1959.74
                             1981.14  1987.30  2004.12  2005.65  2012.80
                             2016.31  2018.89  2020.38  2033.47  2035.31
                             2049.66  2121.20  2131.08  2131.15  2134.95
                             2135.83  2137.77  2139.57  2146.87  2155.74
                             2157.22  2157.93  2160.08  2166.98  2172.13
                             2176.90  2182.08  2183.68  4265.40  4289.95
                             4307.55  4311.27  4312.12  4312.72  4315.64
                             4315.96  4317.74  4322.06  4329.78  4334.88
                             4337.20  4340.64  4341.38  4343.89  4350.53
                             4353.69  4356.05  4356.93  4361.45  4365.06
                             4377.56  4381.02  4392.18  4400.99  4404.82
                             4412.68  4422.88  4451.13  4456.07  4458.79
                             4476.44  5487.86

 Zero-point correction=                           0.476733 (Hartree/Particle)
 Thermal correction to Energy=                    0.499986
 Thermal correction to Enthalpy=                  0.500930
 Thermal correction to Gibbs Free Energy=         0.419921
 Sum of electronic and zero-point Energies=           -705.009961
 Sum of electronic and thermal Energies=              -704.986708
 Sum of electronic and thermal Enthalpies=            -704.985764
 Sum of electronic and thermal Free Energies=         -705.066772

                     E (Thermal)             CV                S
                      KCal/Mol        Cal/Mol-Kelvin    Cal/Mol-Kelvin
 Total                  313.746             82.368            170.497
 Electronic               0.000              0.000              0.000
 Translational            0.889              2.981             42.356
 Rotational               0.889              2.981             34.823
 Vibrational            311.968             76.407             93.319
 Vibration     1          0.593              1.987              7.446
 Vibration     2          0.593              1.985              6.426
 Vibration     3          0.593              1.984              6.011
 Vibration     4          0.594              1.982              5.496
 Vibration     5          0.595              1.978              4.848
 Vibration     6          0.597              1.973              4.419
 Vibration     7          0.597              1.972              4.349
 Vibration     8          0.599              1.965              4.008
 Vibration     9          0.603              1.951              3.515
 Vibration    10          0.605              1.946              3.375
 Vibration    11          0.608              1.934              3.129
 Vibration    12          0.611              1.926              2.988
 Vibration    13          0.614              1.916              2.840
 Vibration    14          0.616              1.911              2.775
 Vibration    15          0.618              1.903              2.674
 Vibration    16          0.622              1.889              2.529
 Vibration    17          0.625              1.882              2.455
 Vibration    18          0.625              1.880              2.437
 Vibration    19          0.656              1.783              1.822
 Vibration    20          0.657              1.780              1.808
 Vibration    21          0.661              1.767              1.747
 Vibration    22          0.669              1.745              1.657
 Vibration    23          0.688              1.688              1.462
 Vibration    24          0.698              1.659              1.374
 Vibration    25          0.723              1.587              1.194
 Vibration    26          0.751              1.510              1.035
 Vibration    27          0.771              1.457              0.941
 Vibration    28          0.793              1.400              0.851
 Vibration    29          0.828              1.314              0.735
 Vibration    30          0.836              1.294              0.710
 Vibration    31          0.875              1.205              0.609
 Vibration    32          0.899              1.153              0.557

                           ! Non-Optimized Parameters !
 Normal termination of Gaussian 16 at Wed May 24 13:06:58 2023.
