 Gaussian 16, Revision A.03,
 Gaussian 16:  ES64L-G16RevA.03 25-Dec-2016

 -----------------------------
 # opt freq b3lyp/6-31g(2df,p)
 -----------------------------

 -------------------
 Title Card Required
 -------------------
 Symbolic Z-matrix:
 Charge =  0 Multiplicity = 1

 SCF Done:  E(RB3LYP) =  -534.845024143     A.U. after   12 cycles
 SCF Done:  E(RB3LYP) =  -534.846332006     A.U. after   10 cycles
 SCF Done:  E(RB3LYP) =  -534.846531476     A.U. after    9 cycles
 SCF Done:  E(RB3LYP) =  -534.846546475     A.U. after    8 cycles
 SCF Done:  E(RB3LYP) =  -534.846548454     A.U. after    7 cycles
 SCF Done:  E(RB3LYP) =  -534.846548956     A.U. after    7 cycles
 SCF Done:  E(RB3LYP) =  -534.846549089     A.U. after    6 cycles
 Optimization completed.
    -- Stationary point found.
 Normal termination of Gaussian 16 at Sat May 27 20:19:22 2023.

 ----------------------------------------------------------------------
 #N Geom=AllCheck Guess=TCheck SCRF=Check GenChk RB3LYP/6-31G(2df,p) Fr
 eq
 ----------------------------------------------------------------------

 Structure from the checkpoint file:  "CCCCqCrCqFrqFrF.chk"
 -------------------
 Title Card Required
 -------------------
 Charge =  0 Multiplicity = 1

                         Standard orientation:
 ---------------------------------------------------------------------
 Center     Atomic      Atomic             Coordinates (Angstroms)
 Number     Number       Type             X           Y           Z
 ---------------------------------------------------------------------
      1          6           0       -3.616216   -0.540216    0.145631
      2          6           0       -2.421701    0.280680   -0.348742
      3          6           0       -1.084473   -0.270146    0.159637
      4          6           0        0.150368    0.478801   -0.375958
      5          6           0        0.261062    1.923724    0.130193
      6          6           0        1.419346   -0.290047   -0.031614
      7          9           0        1.596877   -0.394987    1.297664
      8          9           0        1.396951   -1.539334   -0.528035
      9          9           0        2.514724    0.308718   -0.531038
     10          1           0       -4.560457   -0.133640   -0.229087
     11          1           0       -3.666501   -0.545596    1.240028
     12          1           0       -3.545364   -1.581795   -0.186331
     13          1           0       -2.545354    1.322991   -0.032288
     14          1           0       -2.414172    0.292786   -1.446876
     15          1           0       -1.004270   -1.324716   -0.126876
     16          1           0       -1.067161   -0.246154    1.256551
     17          1           0        0.112020    0.484305   -1.472822
     18          1           0        0.295494    1.948632    1.223697
     19          1           0       -0.597285    2.513517   -0.197808
     20          1           0        1.165766    2.403315   -0.250391
 ---------------------------------------------------------------------

 SCF Done:  E(RB3LYP) =  -534.846549089     A.U. after    1 cycles

 The electronic state is 1-A.
 Alpha  occ. eigenvalues --  -24.71132 -24.71129 -24.71093 -10.40750 -10.20894
 Alpha  occ. eigenvalues --  -10.18900 -10.18808 -10.18583 -10.17815  -1.29766
 Alpha  occ. eigenvalues --   -1.20868  -1.20845  -0.82983  -0.77131  -0.69556
 Alpha  occ. eigenvalues --   -0.68578  -0.62533  -0.59082  -0.57528  -0.56885
 Alpha  occ. eigenvalues --   -0.52730  -0.48116  -0.45676  -0.45092  -0.44253
 Alpha  occ. eigenvalues --   -0.43256  -0.41462  -0.40856  -0.40498  -0.39559
 Alpha  occ. eigenvalues --   -0.39057  -0.37731  -0.36116  -0.35541  -0.33683
 Alpha  occ. eigenvalues --   -0.33185  -0.32654
 Alpha virt. eigenvalues --    0.08223   0.10492   0.11382   0.12749   0.14052
 Alpha virt. eigenvalues --    0.15121   0.15299   0.16261   0.17099   0.18184
 Alpha virt. eigenvalues --    0.18644   0.19356   0.21263   0.21770   0.23619

 Mulliken charges:
               1
     1  C   -0.381157
     2  C   -0.183586
     3  C   -0.176432
     4  C   -0.130121
     5  C   -0.411017
     6  C    0.285384
     7  F   -0.089384
     8  F   -0.084865
     9  F   -0.085346
    10  H    0.114188
    11  H    0.117275
    12  H    0.117691
    13  H    0.101947
    14  H    0.097483
    15  H    0.110941
    16  H    0.107236
    17  H    0.101086
    18  H    0.130882
    19  H    0.125020
    20  H    0.132774
 Sum of Mulliken charges =  -0.00000

 Dipole moment (field-independent basis, Debye):
    X=             -1.8808    Y=              1.0196    Z=             -0.3791  Tot=              2.1727
 Quadrupole moment (field-independent basis, Debye-Ang):
   XX=            -56.2417   YY=            -53.5420   ZZ=            -53.4104
   XY=              0.7498   XZ=              0.0002   YZ=             -0.0306

  Exact polarizability:  77.550   2.832  66.226  -0.475   0.009  60.758
 Approx polarizability:  93.083   1.573  92.870  -0.715   0.588  93.331

                      1                      2                      3
                      A                      A                      A
 Frequencies --     55.5789                68.5941                98.0321
 Red. masses --      2.2870                 3.0330                 2.6899
 Frc consts  --      0.0042                 0.0084                 0.0152
 IR Inten    --      0.0205                 0.2132                 0.1557

                      4                      5                      6
                      A                      A                      A
 Frequencies --    139.8393               201.6715               244.8024
 Red. masses --      3.7259                 1.2146                 1.2097
 Frc consts  --      0.0429                 0.0291                 0.0427
 IR Inten    --      0.6154                 0.1984                 0.0267

                      7                      8                      9
                      A                      A                      A
 Frequencies --    258.6372               277.6224               314.3533
 Red. masses --      2.3254                 4.1293                 3.8403
 Frc consts  --      0.0917                 0.1875                 0.2236
 IR Inten    --      0.2663                 0.5341                 0.2557

                     10                     11                     12
                      A                      A                      A
 Frequencies --    330.4731               420.3849               476.1447
 Red. masses --      3.4294                 5.0618                 3.8356
 Frc consts  --      0.2207                 0.5270                 0.5123
 IR Inten    --      3.0210                 3.0979                 1.3457

                     13                     14                     15
                      A                      A                      A
 Frequencies --    563.4275               576.1497               659.9935
 Red. masses --      5.9631                 8.2311                 5.0347
 Frc consts  --      1.1153                 1.6098                 1.2921
 IR Inten    --      2.6975                 0.4233                 9.3368

                     16                     17                     18
                      A                      A                      A
 Frequencies --    746.3963               805.2607               863.6436
 Red. masses --      1.1166                 4.2158                 1.4203
 Frc consts  --      0.3665                 1.6107                 0.6242
 IR Inten    --      3.3055                 0.4786                 0.6878

                     19                     20                     21
                      A                      A                      A
 Frequencies --    885.8355               936.8970              1007.7331
 Red. masses --      1.7642                 1.8604                 1.3483
 Frc consts  --      0.8157                 0.9621                 0.8067
 IR Inten    --      1.2473                 3.5979                 6.9179

                     22                     23                     24
                      A                      A                      A
 Frequencies --   1022.4740              1055.9157              1092.6586
 Red. masses --      1.7655                 2.3896                 2.1595
 Frc consts  --      1.0875                 1.5698                 1.5190
 IR Inten    --     16.7552                13.3643                36.0095

                     25                     26                     27
                      A                      A                      A
 Frequencies --   1128.0629              1164.6449              1199.5605
 Red. masses --      2.7323                 3.3464                 2.1761
 Frc consts  --      2.0485                 2.6744                 1.8449
 IR Inten    --     42.4355               145.9758                18.4043

                     28                     29                     30
                      A                      A                      A
 Frequencies --   1205.8500              1264.7886              1283.8567
 Red. masses --      5.8159                 1.6355                 2.7874
 Frc consts  --      4.9826                 1.5415                 2.7070
 IR Inten    --    161.8298                34.5848               111.9427

                     31                     32                     33
                      A                      A                      A
 Frequencies --   1306.9466              1332.3554              1358.4735
 Red. masses --      1.3307                 1.1482                 1.3185
 Frc consts  --      1.3392                 1.2009                 1.4336
 IR Inten    --     15.7398                 2.2577                 0.9486

                     34                     35                     36
                      A                      A                      A
 Frequencies --   1380.6075              1403.3636              1411.7960
 Red. masses --      1.6980                 1.5631                 1.2510
 Frc consts  --      1.9069                 1.8138                 1.4691
 IR Inten    --     39.9290                 7.6074                 7.9156

                     37                     38                     39
                      A                      A                      A
 Frequencies --   1416.5363              1485.1094              1495.4173
 Red. masses --      1.2757                 1.0684                 1.0632
 Frc consts  --      1.5082                 1.3883                 1.4008
 IR Inten    --      2.3465                 0.2667                 1.5895

                     40                     41                     42
                      A                      A                      A
 Frequencies --   1498.0073              1499.9754              1507.1573
 Red. masses --      1.0474                 1.0419                 1.0650
 Frc consts  --      1.3848                 1.3811                 1.4253
 IR Inten    --      4.7308                 4.9280                 3.7733

                     43                     44                     45
                      A                      A                      A
 Frequencies --   1513.8037              3017.0541              3027.8481
 Red. masses --      1.0821                 1.0620                 1.0605
 Frc consts  --      1.4610                 5.6954                 5.7281
 IR Inten    --     10.3928                10.6352                 7.8682

                     46                     47                     48
                      A                      A                      A
 Frequencies --   3031.5937              3038.1796              3049.5429
 Red. masses --      1.0452                 1.0719                 1.0760
 Frc consts  --      5.6595                 5.8293                 5.8957
 IR Inten    --     25.8557                35.7671                 0.7045

                     49                     50                     51
                      A                      A                      A
 Frequencies --   3053.2108              3078.6431              3099.5175
 Red. masses --      1.0563                 1.1021                 1.1024
 Frc consts  --      5.8015                 6.1545                 6.2397
 IR Inten    --     13.8340                18.9110                58.3131

                     52                     53                     54
                      A                      A                      A
 Frequencies --   3104.7326              3123.8467              3133.7434
 Red. masses --      1.1011                 1.1004                 1.1018
 Frc consts  --      6.2534                 6.3267                 6.3748
 IR Inten    --     32.8115                18.4602                18.4272

 - Thermochemistry -
 -------------------
 Temperature   298.150 Kelvin.  Pressure   1.00000 Atm.
 Atom     1 has atomic number  6 and mass  12.00000

 Molecular mass:   140.08129 amu.
 Principal axes and moments of inertia in atomic units:
                           1         2         3
     Eigenvalues --   647.385432099.715402349.09974
           X            0.99978   0.02089  -0.00093
           Y           -0.02090   0.99975  -0.00785
           Z            0.00077   0.00787   0.99997
 This molecule is an asymmetric top.
 Rotational symmetry number  1.
 Warning -- assumption of classical behavior for rotation
           may cause significant error
 Rotational temperatures (Kelvin)      0.13379     0.04125     0.03687
 Rotational constants (GHZ):           2.78774     0.85952     0.76827
 Zero-point vibrational energy     434942.7 (Joules/Mol)
                                  103.95381 (Kcal/Mol)
 Warning -- explicit consideration of  14 degrees of freedom as
           vibrations may cause significant error
 Vibrational temperatures:     79.97    98.69   141.05   201.20   290.16
          (Kelvin)            352.22   372.12   399.44   452.28   475.48
                              604.84   685.07   810.65   828.95   949.58
                             1073.90  1158.59  1242.59  1274.52  1347.99
                             1449.90  1471.11  1519.23  1572.09  1623.03
                             1675.66  1725.90  1734.95  1819.75  1847.18
                             1880.40  1916.96  1954.54  1986.39  2019.13
                             2031.26  2038.08  2136.74  2151.57  2155.30
                             2158.13  2168.46  2178.03  4340.87  4356.40
                             4361.79  4371.26  4387.61  4392.89  4429.48
                             4459.51  4467.02  4494.52  4508.76

 Zero-point correction=                           0.165661 (Hartree/Particle)
 Thermal correction to Energy=                    0.175942
 Thermal correction to Enthalpy=                  0.176886
 Thermal correction to Gibbs Free Energy=         0.129509
 Sum of electronic and zero-point Energies=           -534.680888
 Sum of electronic and thermal Energies=              -534.670607
 Sum of electronic and thermal Enthalpies=            -534.669663
 Sum of electronic and thermal Free Energies=         -534.717040

                     E (Thermal)             CV                S
                      KCal/Mol        Cal/Mol-Kelvin    Cal/Mol-Kelvin
 Total                  110.405             36.654             99.713
 Electronic               0.000              0.000              0.000
 Translational            0.889              2.981             40.723
 Rotational               0.889              2.981             29.547
 Vibrational            108.628             30.692             29.443
 Vibration     1          0.596              1.975              4.608
 Vibration     2          0.598              1.969              4.193
 Vibration     3          0.603              1.951              3.493
 Vibration     4          0.615              1.913              2.806
 Vibration     5          0.639              1.838              2.118
 Vibration     6          0.660              1.771              1.768
 Vibration     7          0.667              1.748              1.671
 Vibration     8          0.679              1.715              1.548
 Vibration     9          0.702              1.646              1.339
 Vibration    10          0.713              1.615              1.258
 Vibration    11          0.783              1.426              0.891
 Vibration    12          0.833              1.303              0.721
 Vibration    13          0.919              1.110              0.517
 Vibration    14          0.933              1.083              0.493

 Optimization completed.
    -- Stationary point found.
 Normal termination of Gaussian 16 at Sat May 27 20:47:07 2023.
