 Gaussian 16, Revision A.03,
 Gaussian 16:  ES64L-G16RevA.03 25-Dec-2016

 -----------------------------
 # opt freq b3lyp/6-31g(2df,p)
 -----------------------------

 -------------------
 Title Card Required
 -------------------
 Symbolic Z-matrix:
 Charge =  0 Multiplicity = 1

 SCF Done:  E(RB3LYP) =  -353.832728219     A.U. after   12 cycles
 SCF Done:  E(RB3LYP) =  -353.835527657     A.U. after   10 cycles
 SCF Done:  E(RB3LYP) =  -353.835775098     A.U. after    9 cycles
 SCF Done:  E(RB3LYP) =  -353.835848972     A.U. after    8 cycles
 SCF Done:  E(RB3LYP) =  -353.835966875     A.U. after    9 cycles
 SCF Done:  E(RB3LYP) =  -353.835992472     A.U. after    9 cycles
 SCF Done:  E(RB3LYP) =  -353.835927621     A.U. after    9 cycles
 SCF Done:  E(RB3LYP) =  -353.836107357     A.U. after    9 cycles
 SCF Done:  E(RB3LYP) =  -353.836195433     A.U. after    8 cycles
 SCF Done:  E(RB3LYP) =  -353.836248124     A.U. after    9 cycles
 SCF Done:  E(RB3LYP) =  -353.843003404     A.U. after   10 cycles
 SCF Done:  E(RB3LYP) =  -353.843109150     A.U. after    9 cycles
 SCF Done:  E(RB3LYP) =  -353.843115368     A.U. after    8 cycles
 SCF Done:  E(RB3LYP) =  -353.843120856     A.U. after    8 cycles
 SCF Done:  E(RB3LYP) =  -353.843123151     A.U. after    6 cycles
 SCF Done:  E(RB3LYP) =  -353.843125319     A.U. after    7 cycles
 SCF Done:  E(RB3LYP) =  -353.843129431     A.U. after    8 cycles
 SCF Done:  E(RB3LYP) =  -353.843132308     A.U. after    8 cycles
 SCF Done:  E(RB3LYP) =  -353.843133039     A.U. after    7 cycles
 Optimization completed.
    -- Stationary point found.
 Normal termination of Gaussian 16 at Sun May 28 15:04:58 2023.

 ----------------------------------------------------------------------
 #N Geom=AllCheck Guess=TCheck SCRF=Check GenChk RB3LYP/6-31G(2df,p) Fr
 eq
 ----------------------------------------------------------------------

 Structure from the checkpoint file:  "CCCC1CCCqCrC1.chk"
 -------------------
 Title Card Required
 -------------------
 Charge =  0 Multiplicity = 1

                         Standard orientation:
 ---------------------------------------------------------------------
 Center     Atomic      Atomic             Coordinates (Angstroms)
 Number     Number       Type             X           Y           Z
 ---------------------------------------------------------------------
      1          6           0        3.975052   -0.431218   -0.226352
      2          6           0        2.567571   -0.523114    0.369573
      3          6           0        1.604013    0.525888   -0.197934
      4          6           0        0.187584    0.459393    0.382296
      5          6           0       -0.724234    1.624668   -0.062072
      6          6           0       -2.142520    1.074134    0.120659
      7          6           0       -2.036972   -0.366955   -0.414655
      8          6           0       -3.158475   -1.300288    0.038844
      9          6           0       -0.612864   -0.826329    0.009860
     10          1           0        4.641888   -1.187133    0.200456
     11          1           0        4.421638    0.551558   -0.037503
     12          1           0        3.955605   -0.579770   -1.311925
     13          1           0        2.622884   -0.406392    1.460338
     14          1           0        2.162070   -1.527610    0.193765
     15          1           0        1.547859    0.416494   -1.291148
     16          1           0        2.020769    1.526544   -0.015487
     17          1           0        0.271550    0.504759    1.476839
     18          1           0       -0.548513    1.850991   -1.122774
     19          1           0       -0.533209    2.544759    0.499082
     20          1           0       -2.911346    1.661893   -0.391025
     21          1           0       -2.403280    1.056782    1.188050
     22          1           0       -2.062636   -0.309706   -1.511337
     23          1           0       -3.175552   -1.387273    1.131917
     24          1           0       -3.031983   -2.308080   -0.371584
     25          1           0       -4.139631   -0.932600   -0.281378
     26          1           0       -0.124200   -1.379902   -0.799586
     27          1           0       -0.668840   -1.512388    0.861983
 ---------------------------------------------------------------------

 SCF Done:  E(RB3LYP) =  -353.843133039     A.U. after    1 cycles

 The electronic state is 1-A.
 Alpha  occ. eigenvalues --  -10.17730 -10.17519 -10.17354 -10.17046 -10.16906
 Alpha  occ. eigenvalues --  -10.16883 -10.16834 -10.16761 -10.16736  -0.83415
 Alpha  occ. eigenvalues --   -0.78118  -0.73743  -0.70595  -0.66807  -0.63148
 Alpha  occ. eigenvalues --   -0.57896  -0.55811  -0.53553  -0.47428  -0.46332
 Alpha  occ. eigenvalues --   -0.44113  -0.42409  -0.41219  -0.39950  -0.38998
 Alpha  occ. eigenvalues --   -0.37710  -0.37446  -0.36111  -0.33774  -0.32796
 Alpha  occ. eigenvalues --   -0.32098  -0.31649  -0.30922  -0.30063  -0.29919
 Alpha  occ. eigenvalues --   -0.29674
 Alpha virt. eigenvalues --    0.08399   0.09555   0.10463   0.11649   0.13526
 Alpha virt. eigenvalues --    0.14153   0.14859   0.15862   0.16099   0.17184
 Alpha virt. eigenvalues --    0.17669   0.17802   0.18319   0.19018   0.19253

 Mulliken charges:
               1
     1  C   -0.378550
     2  C   -0.167146
     3  C   -0.185092
     4  C    0.052652
     5  C   -0.229645
     6  C   -0.210078
     7  C    0.062488
     8  C   -0.407505
     9  C   -0.223285
    10  H    0.108918
    11  H    0.112028
    12  H    0.112029
    13  H    0.091533
    14  H    0.097831
    15  H    0.085537
    16  H    0.086450
    17  H    0.062634
    18  H    0.089575
    19  H    0.087697
    20  H    0.087486
    21  H    0.088420
    22  H    0.065907
    23  H    0.109383
    24  H    0.109879
    25  H    0.108645
    26  H    0.091008
    27  H    0.091203
 Sum of Mulliken charges =  -0.00000

 Dipole moment (field-independent basis, Debye):
    X=             -0.0226    Y=              0.0118    Z=              0.0045  Tot=              0.0259
 Quadrupole moment (field-independent basis, Debye-Ang):
   XX=            -60.9929   YY=            -59.9655   ZZ=            -58.8258
   XY=             -0.1921   XZ=              0.4834   YZ=              0.2953

  Exact polarizability: 114.587   0.276  92.343   0.028  -0.190  83.114
 Approx polarizability: 132.625  -0.153 131.092   0.424   0.208 132.074

                      1                      2                      3
                      A                      A                      A
 Frequencies --     27.8466                85.1976               102.9892
 Red. masses --      2.2009                 2.7000                 1.7065
 Frc consts  --      0.0010                 0.0115                 0.0107
 IR Inten    --      0.0040                 0.0042                 0.0041

                      4                      5                      6
                      A                      A                      A
 Frequencies --    131.8661               214.3562               246.3452
 Red. masses --      2.6303                 1.8310                 1.1622
 Frc consts  --      0.0269                 0.0496                 0.0416
 IR Inten    --      0.0077                 0.0063                 0.0092

                      7                      8                      9
                      A                      A                      A
 Frequencies --    247.2389               271.8391               316.6460
 Red. masses --      1.1175                 2.2112                 3.0268
 Frc consts  --      0.0402                 0.0963                 0.1788
 IR Inten    --      0.0014                 0.0381                 0.0564

                     10                     11                     12
                      A                      A                      A
 Frequencies --    381.8853               421.3676               441.1079
 Red. masses --      2.6370                 1.7127                 2.0753
 Frc consts  --      0.2266                 0.1792                 0.2379
 IR Inten    --      0.0392                 0.1355                 0.0258

                     13                     14                     15
                      A                      A                      A
 Frequencies --    548.3490               591.1757               745.2931
 Red. masses --      2.7853                 2.6077                 1.1082
 Frc consts  --      0.4934                 0.5370                 0.3627
 IR Inten    --      0.3756                 0.3259                 2.1443

                     16                     17                     18
                      A                      A                      A
 Frequencies --    804.5898               828.3488               853.0981
 Red. masses --      1.8401                 2.6504                 1.5451
 Frc consts  --      0.7018                 1.0715                 0.6625
 IR Inten    --      0.2034                 0.2777                 0.4644

                     19                     20                     21
                      A                      A                      A
 Frequencies --    879.1456               899.7291               921.0688
 Red. masses --      1.6989                 2.0544                 1.4457
 Frc consts  --      0.7736                 0.9798                 0.7226
 IR Inten    --      0.6054                 1.6625                 0.1454

                     22                     23                     24
                      A                      A                      A
 Frequencies --    931.3359               970.7996               985.3658
 Red. masses --      1.7788                 1.2867                 1.7700
 Frc consts  --      0.9091                 0.7145                 1.0125
 IR Inten    --      0.0401                 0.8780                 0.6445

                     25                     26                     27
                      A                      A                      A
 Frequencies --   1014.0394              1040.1777              1048.9116
 Red. masses --      1.6842                 2.4447                 1.4307
 Frc consts  --      1.0204                 1.5584                 0.9274
 IR Inten    --      0.3734                 0.0678                 1.3969

                     28                     29                     30
                      A                      A                      A
 Frequencies --   1078.7400              1092.8746              1102.4531
 Red. masses --      1.7921                 1.7528                 2.1222
 Frc consts  --      1.2287                 1.2334                 1.5197
 IR Inten    --      0.3951                 0.6166                 0.8809

                     31                     32                     33
                      A                      A                      A
 Frequencies --   1153.1289              1163.2559              1210.3887
 Red. masses --      2.3881                 2.2137                 1.7464
 Frc consts  --      1.8709                 1.7649                 1.5074
 IR Inten    --      0.9421                 1.5278                 0.3530

                     34                     35                     36
                      A                      A                      A
 Frequencies --   1222.6995              1250.2600              1274.3510
 Red. masses --      1.5692                 1.4392                 1.3302
 Frc consts  --      1.3822                 1.3255                 1.2727
 IR Inten    --      0.2019                 0.5772                 1.8572

                     37                     38                     39
                      A                      A                      A
 Frequencies --   1290.9912              1296.4457              1321.4904
 Red. masses --      1.3060                 1.2932                 1.2428
 Frc consts  --      1.2825                 1.2806                 1.2787
 IR Inten    --      2.1982                 2.0692                 0.5136

                     40                     41                     42
                      A                      A                      A
 Frequencies --   1326.5215              1335.4041              1347.3062
 Red. masses --      1.1474                 1.2971                 1.2630
 Frc consts  --      1.1896                 1.3629                 1.3508
 IR Inten    --      1.0634                 2.2171                 3.6842

                     43                     44                     45
                      A                      A                      A
 Frequencies --   1355.2894              1374.6838              1384.6706
 Red. masses --      1.2923                 1.4223                 1.5500
 Frc consts  --      1.3985                 1.5837                 1.7509
 IR Inten    --      2.6497                 0.0987                 2.1759

                     46                     47                     48
                      A                      A                      A
 Frequencies --   1397.7875              1410.6956              1412.4297
 Red. masses --      1.6066                 1.2451                 1.2398
 Frc consts  --      1.8495                 1.4599                 1.4572
 IR Inten    --      1.0730                 0.7298                 0.8094

                     49                     50                     51
                      A                      A                      A
 Frequencies --   1480.0347              1489.6628              1491.3404
 Red. masses --      1.0757                 1.0831                 1.0763
 Frc consts  --      1.3883                 1.4161                 1.4103
 IR Inten    --      0.1158                 1.5966                 0.5411

                     52                     53                     54
                      A                      A                      A
 Frequencies --   1494.1437              1497.2600              1499.2952
 Red. masses --      1.0728                 1.0540                 1.0528
 Frc consts  --      1.4111                 1.3922                 1.3943
 IR Inten    --      1.0738                 1.1337                 4.9259

                     55                     56                     57
                      A                      A                      A
 Frequencies --   1499.6587              1506.4044              1510.8712
 Red. masses --      1.0404                 1.0952                 1.0842
 Frc consts  --      1.3786                 1.4643                 1.4582
 IR Inten    --      5.4429                 1.0887                 2.3084

                     58                     59                     60
                      A                      A                      A
 Frequencies --   2992.3422              2997.5798              3001.0089
 Red. masses --      1.0658                 1.0750                 1.0811
 Frc consts  --      5.6225                 5.6910                 5.7367
 IR Inten    --      8.6956                14.2843                 3.8392

                     61                     62                     63
                      A                      A                      A
 Frequencies --   3012.4161              3015.0046              3018.9506
 Red. masses --      1.0688                 1.0627                 1.0589
 Frc consts  --      5.7144                 5.6915                 5.6860
 IR Inten    --     14.9394                21.4114                28.5915

                     64                     65                     66
                      A                      A                      A
 Frequencies --   3021.6997              3026.0815              3027.2365
 Red. masses --      1.0432                 1.0928                 1.0373
 Frc consts  --      5.6120                 5.8960                 5.6007
 IR Inten    --     66.6407                14.2631                41.1415

                     67                     68                     69
                      A                      A                      A
 Frequencies --   3034.3783              3052.5565              3070.8490
 Red. masses --      1.0615                 1.1020                 1.1036
 Frc consts  --      5.7588                 6.0501                 6.1314
 IR Inten    --     31.5547                32.1277                23.4482

                     70                     71                     72
                      A                      A                      A
 Frequencies --   3074.8726              3079.5427              3088.8047
 Red. masses --      1.0943                 1.1010                 1.1006
 Frc consts  --      6.0962                 6.1518                 6.1870
 IR Inten    --     35.5971                35.1678                73.6249

                     73                     74                     75
                      A                      A                      A
 Frequencies --   3091.2132              3093.5098              3098.7401
 Red. masses --      1.1012                 1.1020                 1.1009
 Frc consts  --      6.1998                 6.2137                 6.2284
 IR Inten    --     31.3228                63.6345                38.7859

 - Thermochemistry -
 -------------------
 Temperature   298.150 Kelvin.  Pressure   1.00000 Atm.
 Atom     1 has atomic number  6 and mass  12.00000

 Molecular mass:   126.14085 amu.
 Principal axes and moments of inertia in atomic units:
                           1         2         3
     Eigenvalues --   512.967622464.550752813.83440
           X            0.99999   0.00260  -0.00284
           Y           -0.00262   0.99998  -0.00600
           Z            0.00283   0.00600   0.99998
 This molecule is an asymmetric top.
 Rotational symmetry number  1.
 Warning -- assumption of classical behavior for rotation
           may cause significant error
 Rotational temperatures (Kelvin)      0.16885     0.03514     0.03078
 Rotational constants (GHZ):           3.51824     0.73228     0.64138
 Zero-point vibrational energy     664031.7 (Joules/Mol)
                                  158.70740 (Kcal/Mol)
 Warning -- explicit consideration of  14 degrees of freedom as
           vibrations may cause significant error
 Vibrational temperatures:     40.07   122.58   148.18   189.73   308.41
          (Kelvin)            354.44   355.72   391.12   455.58   549.45
                              606.25   634.66   788.95   850.57  1072.31
                             1157.63  1191.81  1227.42  1264.89  1294.51
                             1325.21  1339.98  1396.76  1417.72  1458.98
                             1496.58  1509.15  1552.07  1572.40  1586.18
                             1659.10  1673.67  1741.48  1759.19  1798.85
                             1833.51  1857.45  1865.30  1901.33  1908.57
                             1921.35  1938.47  1949.96  1977.86  1992.23
                             2011.10  2029.68  2032.17  2129.44  2143.29
                             2145.71  2149.74  2154.22  2157.15  2157.67
                             2167.38  2173.81  4305.31  4312.85  4317.78
                             4334.19  4337.92  4343.60  4347.55  4353.86
                             4355.52  4365.79  4391.95  4418.27  4424.06
                             4430.78  4444.10  4447.57  4450.87  4458.40

 Zero-point correction=                           0.252916 (Hartree/Particle)
 Thermal correction to Energy=                    0.263443
 Thermal correction to Enthalpy=                  0.264387
 Thermal correction to Gibbs Free Energy=         0.216438
 Sum of electronic and zero-point Energies=           -353.590217
 Sum of electronic and thermal Energies=              -353.579690
 Sum of electronic and thermal Enthalpies=            -353.578746
 Sum of electronic and thermal Free Energies=         -353.626695

                     E (Thermal)             CV                S
                      KCal/Mol        Cal/Mol-Kelvin    Cal/Mol-Kelvin
 Total                  165.313             39.585            100.917
 Electronic               0.000              0.000              0.000
 Translational            0.889              2.981             40.410
 Rotational               0.889              2.981             29.654
 Vibrational            163.535             33.624             30.852
 Vibration     1          0.593              1.984              5.977
 Vibration     2          0.601              1.959              3.767
 Vibration     3          0.605              1.947              3.397
 Vibration     4          0.612              1.921              2.919
 Vibration     5          0.644              1.819              2.006
 Vibration     6          0.661              1.769              1.757
 Vibration     7          0.661              1.767              1.750
 Vibration     8          0.675              1.725              1.584
 Vibration     9          0.704              1.642              1.327
 Vibration    10          0.751              1.509              1.032
 Vibration    11          0.784              1.424              0.887
 Vibration    12          0.801              1.381              0.823
 Vibration    13          0.904              1.143              0.548
 Vibration    14          0.949              1.051              0.465

                           ! Non-Optimized Parameters !
 Normal termination of Gaussian 16 at Sun May 28 15:45:09 2023.
