 Gaussian 16, Revision A.03,
 Gaussian 16:  ES64L-G16RevA.03 25-Dec-2016

 -----------------------------
 # opt freq b3lyp/6-31g(2df,p)
 -----------------------------

 -------------------
 Title Card Required
 -------------------
 Symbolic Z-matrix:
 Charge =  0 Multiplicity = 1

 SCF Done:  E(RB3LYP) =  -237.104608934     A.U. after   11 cycles
 SCF Done:  E(RB3LYP) =  -237.106230061     A.U. after    9 cycles
 SCF Done:  E(RB3LYP) =  -237.106401398     A.U. after    8 cycles
 SCF Done:  E(RB3LYP) =  -237.106407386     A.U. after    6 cycles
 Optimization completed.
    -- Stationary point found.
 Normal termination of Gaussian 16 at Sat May 27 22:02:36 2023.

 ----------------------------------------------------------------------
 #N Geom=AllCheck Guess=TCheck SCRF=Check GenChk RB3LYP/6-31G(2df,p) Fr
 eq
 ----------------------------------------------------------------------

 Structure from the checkpoint file:  "CCCCCC.chk"
 -------------------
 Title Card Required
 -------------------
 Charge =  0 Multiplicity = 1

                         Standard orientation:
 ---------------------------------------------------------------------
 Center     Atomic      Atomic             Coordinates (Angstroms)
 Number     Number       Type             X           Y           Z
 ---------------------------------------------------------------------
      1          6           0       -3.220711    0.208421    0.000000
      2          6           0       -1.890258   -0.549681   -0.000000
      3          6           0       -0.668038    0.375104    0.000000
      4          6           0        0.668038   -0.375103   -0.000000
      5          6           0        1.890259    0.549681   -0.000000
      6          6           0        3.220711   -0.208421    0.000000
      7          1           0       -4.073518   -0.477839   -0.000000
      8          1           0       -3.310259    0.850500   -0.883470
      9          1           0       -3.310259    0.850500    0.883471
     10          1           0       -1.844322   -1.209254   -0.876780
     11          1           0       -1.844322   -1.209254    0.876780
     12          1           0       -0.714082    1.035877    0.877181
     13          1           0       -0.714082    1.035878   -0.877181
     14          1           0        0.714081   -1.035877   -0.877181
     15          1           0        0.714082   -1.035878    0.877181
     16          1           0        1.844322    1.209255    0.876779
     17          1           0        1.844323    1.209254   -0.876780
     18          1           0        3.310258   -0.850500    0.883471
     19          1           0        4.073518    0.477839    0.000000
     20          1           0        3.310259   -0.850501   -0.883470
 ---------------------------------------------------------------------

 SCF Done:  E(RB3LYP) =  -237.106407386     A.U. after    1 cycles

 The electronic state is 1-A.
 Alpha  occ. eigenvalues --  -10.17426 -10.17426 -10.17192 -10.17171 -10.16860
 Alpha  occ. eigenvalues --  -10.16860  -0.79942  -0.76158  -0.70305  -0.63334
 Alpha  occ. eigenvalues --   -0.57708  -0.56959  -0.47246  -0.43938  -0.42865
 Alpha  occ. eigenvalues --   -0.41498  -0.39350  -0.37530  -0.37289  -0.34941
 Alpha  occ. eigenvalues --   -0.33596  -0.32224  -0.31960  -0.31534  -0.30395
 Alpha virt. eigenvalues --    0.09172   0.10287   0.12238   0.13153   0.13440
 Alpha virt. eigenvalues --    0.16288   0.16839   0.16889   0.18397   0.19134
 Alpha virt. eigenvalues --    0.19300   0.19899   0.20540   0.20610   0.22738

 Mulliken charges:
               1
     1  C   -0.378580
     2  C   -0.163082
     3  C   -0.156199
     4  C   -0.156199
     5  C   -0.163082
     6  C   -0.378580
     7  H    0.109327
     8  H    0.112239
     9  H    0.112239
    10  H    0.092684
    11  H    0.092684
    12  H    0.089343
    13  H    0.089343
    14  H    0.089343
    15  H    0.089343
    16  H    0.092684
    17  H    0.092684
    18  H    0.112239
    19  H    0.109327
    20  H    0.112239
 Sum of Mulliken charges =  -0.00000

 Dipole moment (field-independent basis, Debye):
    X=              0.0000    Y=             -0.0000    Z=             -0.0000  Tot=              0.0000
 Quadrupole moment (field-independent basis, Debye-Ang):
   XX=            -42.4759   YY=            -41.6105   ZZ=            -40.5939
   XY=              0.3839   XZ=             -0.0000   YZ=             -0.0000

  Exact polarizability:  82.315  -0.145  61.930   0.000   0.000  59.791
 Approx polarizability:  90.263   0.364  89.491   0.000   0.000  90.550

                      1                      2                      3
                      A                      A                      A
 Frequencies --     74.6337               101.1292               129.5615
 Red. masses --      2.3127                 1.5965                 2.7795
 Frc consts  --      0.0076                 0.0096                 0.0275
 IR Inten    --      0.0117                 0.0000                 0.0147

                      4                      5                      6
                      A                      A                      A
 Frequencies --    150.6598               241.3231               252.8750
 Red. masses --      2.0171                 1.0844                 1.1401
 Frc consts  --      0.0270                 0.0372                 0.0430
 IR Inten    --      0.0000                 0.0000                 0.0022

                      7                      8                      9
                      A                      A                      A
 Frequencies --    294.1581               365.0235               462.6380
 Red. masses --      2.6138                 3.4139                 2.5538
 Frc consts  --      0.1333                 0.2680                 0.3220
 IR Inten    --      0.0000                 0.0000                 0.0973

                     10                     11                     12
                      A                      A                      A
 Frequencies --    731.1250               744.9717               805.4689
 Red. masses --      1.0618                 1.0946                 1.1495
 Frc consts  --      0.3344                 0.3579                 0.4394
 IR Inten    --      4.3178                 0.0000                 1.1204

                     13                     14                     15
                      A                      A                      A
 Frequencies --    890.4944               905.9096               906.0327
 Red. masses --      2.2521                 1.1690                 1.6262
 Frc consts  --      1.0522                 0.5652                 0.7865
 IR Inten    --      2.3792                 0.0000                 0.0000

                     16                     17                     18
                      A                      A                      A
 Frequencies --   1010.9115              1014.1364              1053.4703
 Red. masses --      1.1121                 3.8618                 2.4083
 Frc consts  --      0.6696                 2.3401                 1.5748
 IR Inten    --      0.3974                 0.0000                 0.1582

                     19                     20                     21
                      A                      A                      A
 Frequencies --   1071.3119              1076.9833              1158.8382
 Red. masses --      2.2044                 1.8261                 2.4851
 Frc consts  --      1.4906                 1.2479                 1.9663
 IR Inten    --      0.0000                 3.0480                 0.0000

                     22                     23                     24
                      A                      A                      A
 Frequencies --   1210.4564              1253.9550              1273.5646
 Red. masses --      1.8616                 1.4093                 1.3120
 Frc consts  --      1.6070                 1.3056                 1.2538
 IR Inten    --      0.0000                 0.0001                 7.7544

                     25                     26                     27
                      A                      A                      A
 Frequencies --   1308.9391              1329.3454              1335.6672
 Red. masses --      1.2101                 1.0431                 1.1086
 Frc consts  --      1.2215                 1.0861                 1.1653
 IR Inten    --      0.0000                 0.0000                 0.6698

                     28                     29                     30
                      A                      A                      A
 Frequencies --   1343.3277              1390.6290              1399.9482
 Red. masses --      1.3639                 1.4859                 1.6036
 Frc consts  --      1.4501                 1.6930                 1.8517
 IR Inten    --      0.0000                 3.4065                 0.0000

                     31                     32                     33
                      A                      A                      A
 Frequencies --   1411.3259              1414.6122              1482.7677
 Red. masses --      1.2449                 1.2632                 1.0717
 Frc consts  --      1.4610                 1.4893                 1.3882
 IR Inten    --      1.6420                 0.0000                 0.0000

                     34                     35                     36
                      A                      A                      A
 Frequencies --   1483.1944              1490.6314              1499.7310
 Red. masses --      1.0673                 1.0595                 1.0406
 Frc consts  --      1.3833                 1.3870                 1.3790
 IR Inten    --      0.5260                 0.0000                 9.7403

                     37                     38                     39
                      A                      A                      A
 Frequencies --   1499.9252              1499.9538              1509.1337
 Red. masses --      1.0662                 1.0400                 1.0784
 Frc consts  --      1.4133                 1.3787                 1.4471
 IR Inten    --      1.1237                 0.0000                 0.0000

                     40                     41                     42
                      A                      A                      A
 Frequencies --   1515.3163              2998.5129              3001.8962
 Red. masses --      1.0922                 1.0574                 1.0580
 Frc consts  --      1.4776                 5.6014                 5.6175
 IR Inten    --      3.8586                 0.0000                 5.7621

                     43                     44                     45
                      A                      A                      A
 Frequencies --   3012.9181              3017.3958              3019.6336
 Red. masses --      1.0595                 1.0592                 1.0983
 Frc consts  --      5.6668                 5.6822                 5.9004
 IR Inten    --      0.0000                97.7166                 0.0000

                     46                     47                     48
                      A                      A                      A
 Frequencies --   3027.6769              3027.8471              3030.4788
 Red. masses --      1.0358                 1.0355                 1.1011
 Frc consts  --      5.5944                 5.5932                 5.9579
 IR Inten    --     80.8238                 0.0000                 0.0189

                     49                     50                     51
                      A                      A                      A
 Frequencies --   3046.6472              3060.1693              3093.7900
 Red. masses --      1.1037                 1.1049                 1.1021
 Frc consts  --      6.0362                 6.0961                 6.2151
 IR Inten    --      0.0000                74.9797                 0.0000

                     52                     53                     54
                      A                      A                      A
 Frequencies --   3094.4690              3099.0112              3099.0147
 Red. masses --      1.1020                 1.1009                 1.1010
 Frc consts  --      6.2174                 6.2296                 6.2300
 IR Inten    --    119.4056                 0.0302                78.6173

 - Thermochemistry -
 -------------------
 Temperature   298.150 Kelvin.  Pressure   1.00000 Atm.
 Atom     1 has atomic number  6 and mass  12.00000

 Molecular mass:    86.10955 amu.
 Principal axes and moments of inertia in atomic units:
                           1         2         3
     Eigenvalues --   123.596971600.398571657.23511
           X            0.99999  -0.00337   0.00000
           Y            0.00337   0.99999   0.00000
           Z           -0.00000  -0.00000   1.00000
 This molecule is an asymmetric top.
 Rotational symmetry number  1.
 Rotational temperatures (Kelvin)      0.70078     0.05412     0.05226
 Rotational constants (GHZ):          14.60182     1.12768     1.08901
 Zero-point vibrational energy     494796.7 (Joules/Mol)
                                  118.25924 (Kcal/Mol)
 Warning -- explicit consideration of   9 degrees of freedom as
           vibrations may cause significant error
 Vibrational temperatures:    107.38   145.50   186.41   216.77   347.21
          (Kelvin)            363.83   423.23   525.19   665.63  1051.93
                             1071.85  1158.89  1281.22  1303.40  1303.58
                             1454.48  1459.12  1515.71  1541.38  1549.54
                             1667.31  1741.58  1804.16  1832.38  1883.27
                             1912.63  1921.73  1932.75  2000.80  2014.21
                             2030.58  2035.31  2133.37  2133.99  2144.69
                             2157.78  2158.06  2158.10  2171.31  2180.20
                             4314.19  4319.06  4334.92  4341.36  4344.58
                             4356.15  4356.40  4360.18  4383.45  4402.90
                             4451.27  4452.25  4458.79  4458.79

 Zero-point correction=                           0.188458 (Hartree/Particle)
 Thermal correction to Energy=                    0.196897
 Thermal correction to Enthalpy=                  0.197841
 Thermal correction to Gibbs Free Energy=         0.155839
 Sum of electronic and zero-point Energies=           -236.917949
 Sum of electronic and thermal Energies=              -236.909510
 Sum of electronic and thermal Enthalpies=            -236.908566
 Sum of electronic and thermal Free Energies=         -236.950569

                     E (Thermal)             CV                S
                      KCal/Mol        Cal/Mol-Kelvin    Cal/Mol-Kelvin
 Total                  123.555             29.436             88.402
 Electronic               0.000              0.000              0.000
 Translational            0.889              2.981             39.272
 Rotational               0.889              2.981             27.285
 Vibrational            121.777             23.475             21.844
 Vibration     1          0.599              1.966              4.027
 Vibration     2          0.604              1.948              3.432
 Vibration     3          0.612              1.924              2.953
 Vibration     4          0.618              1.902              2.664
 Vibration     5          0.658              1.777              1.793
 Vibration     6          0.664              1.758              1.710
 Vibration     7          0.689              1.685              1.450
 Vibration     8          0.738              1.544              1.101
 Vibration     9          0.820              1.333              0.758

 Optimization completed.
    -- Stationary point found.
 Normal termination of Gaussian 16 at Sat May 27 22:18:29 2023.
