 Gaussian 16, Revision A.03,
 Gaussian 16:  ES64L-G16RevA.03 25-Dec-2016

 -----------------------------
 # opt freq b3lyp/6-31g(2df,p)
 -----------------------------

 -------------------
 Title Card Required
 -------------------
 Symbolic Z-matrix:
 Charge =  0 Multiplicity = 1

 SCF Done:  E(RB3LYP) =  -508.890335957     A.U. after   12 cycles
 SCF Done:  E(RB3LYP) =  -508.894922880     A.U. after   10 cycles
 SCF Done:  E(RB3LYP) =  -508.895712212     A.U. after    9 cycles
 SCF Done:  E(RB3LYP) =  -508.895838116     A.U. after    8 cycles
 SCF Done:  E(RB3LYP) =  -508.895853588     A.U. after    8 cycles
 SCF Done:  E(RB3LYP) =  -508.895859262     A.U. after    8 cycles
 SCF Done:  E(RB3LYP) =  -508.895862848     A.U. after    8 cycles
 SCF Done:  E(RB3LYP) =  -508.895863531     A.U. after    7 cycles
 SCF Done:  E(RB3LYP) =  -508.895864310     A.U. after    7 cycles
 SCF Done:  E(RB3LYP) =  -508.895864768     A.U. after    8 cycles
 SCF Done:  E(RB3LYP) =  -508.895864814     A.U. after    6 cycles
 Optimization completed.
    -- Stationary point found.
 Normal termination of Gaussian 16 at Mon May 22 21:46:15 2023.

 ----------------------------------------------------------------------
 #N Geom=AllCheck Guess=TCheck SCRF=Check GenChk RB3LYP/6-31G(2df,p) Fr
 eq
 ----------------------------------------------------------------------

 Structure from the checkpoint file:  "CCCCCqCrCCCqCrOC.chk"
 -------------------
 Title Card Required
 -------------------
 Charge =  0 Multiplicity = 1

                         Standard orientation:
 ---------------------------------------------------------------------
 Center     Atomic      Atomic             Coordinates (Angstroms)
 Number     Number       Type             X           Y           Z
 ---------------------------------------------------------------------
      1          6           0       -5.937989   -0.316888   -0.286925
      2          6           0       -4.580115   -0.736181    0.282706
      3          6           0       -3.421557    0.138991   -0.210100
      4          6           0       -2.064054   -0.281763    0.365715
      5          6           0       -0.844472    0.486066   -0.181313
      6          6           0       -0.904259    1.979835    0.171487
      7          6           0        0.457683   -0.173212    0.318972
      8          6           0        1.736522    0.337955   -0.354512
      9          6           0        3.028187   -0.304960    0.161666
     10          6           0        3.143942   -1.794738   -0.174034
     11          8           0        4.091168    0.443424   -0.422550
     12          6           0        5.336897    0.306694    0.215734
     13          1           0       -6.743449   -0.959965    0.081711
     14          1           0       -5.942390   -0.372477   -1.381346
     15          1           0       -6.182506    0.714630   -0.009400
     16          1           0       -4.379734   -1.783502    0.020029
     17          1           0       -4.616780   -0.702582    1.379827
     18          1           0       -3.635173    1.184435    0.045434
     19          1           0       -3.379316    0.097471   -1.307988
     20          1           0       -1.919144   -1.352203    0.164827
     21          1           0       -2.087603   -0.182599    1.461073
     22          1           0       -0.860808    0.394987   -1.278297
     23          1           0       -0.904799    2.120921    1.259629
     24          1           0       -1.807141    2.452424   -0.224973
     25          1           0       -0.049517    2.527911   -0.234145
     26          1           0        0.372497   -1.255434    0.161806
     27          1           0        0.533575   -0.029933    1.407146
     28          1           0        1.843721    1.416968   -0.206102
     29          1           0        1.678054    0.177988   -1.439423
     30          1           0        3.070361   -0.181427    1.258835
     31          1           0        3.092043   -1.942151   -1.257822
     32          1           0        2.337786   -2.367053    0.293792
     33          1           0        4.088684   -2.214111    0.183388
     34          1           0        6.022636    1.010960   -0.262994
     35          1           0        5.760696   -0.704077    0.120344
     36          1           0        5.274257    0.550645    1.288681
 ---------------------------------------------------------------------

 SCF Done:  E(RB3LYP) =  -508.895864814     A.U. after    1 cycles

 The electronic state is 1-A.
 Alpha  occ. eigenvalues --  -19.12951 -10.22589 -10.21801 -10.18105 -10.17505
 Alpha  occ. eigenvalues --  -10.17396 -10.17232 -10.17150 -10.17019 -10.16999
 Alpha  occ. eigenvalues --  -10.16911 -10.16656  -1.02210  -0.81567  -0.78745
 Alpha  occ. eigenvalues --   -0.76506  -0.71492  -0.69451  -0.68152  -0.64849
 Alpha  occ. eigenvalues --   -0.61309  -0.57498  -0.56261  -0.55245  -0.48382
 Alpha  occ. eigenvalues --   -0.47251  -0.46659  -0.45309  -0.44371  -0.42874
 Alpha  occ. eigenvalues --   -0.42500  -0.41342  -0.40119  -0.39716  -0.38826
 Alpha  occ. eigenvalues --   -0.38174  -0.36849  -0.35708  -0.35061  -0.35031
 Alpha  occ. eigenvalues --   -0.34093  -0.33050  -0.32603  -0.31775  -0.31387
 Alpha  occ. eigenvalues --   -0.30917  -0.30208  -0.29224  -0.24651
 Alpha virt. eigenvalues --    0.08257   0.09302   0.10250   0.11009   0.11624
 Alpha virt. eigenvalues --    0.12604   0.13078   0.13437   0.14119   0.14962
 Alpha virt. eigenvalues --    0.15410   0.15623   0.16551   0.16857   0.17189

 Mulliken charges:
               1
     1  C   -0.380135
     2  C   -0.160948
     3  C   -0.172731
     4  C   -0.181047
     5  C    0.025918
     6  C   -0.392062
     7  C   -0.193433
     8  C   -0.207982
     9  C    0.142069
    10  C   -0.399750
    11  O   -0.247129
    12  C   -0.235316
    13  H    0.109539
    14  H    0.112518
    15  H    0.112482
    16  H    0.092560
    17  H    0.093066
    18  H    0.095189
    19  H    0.089237
    20  H    0.085988
    21  H    0.087510
    22  H    0.067347
    23  H    0.107979
    24  H    0.114461
    25  H    0.117292
    26  H    0.090843
    27  H    0.088047
    28  H    0.104322
    29  H    0.097023
    30  H    0.057644
    31  H    0.120095
    32  H    0.118865
    33  H    0.113721
    34  H    0.124139
    35  H    0.103330
    36  H    0.099350
 Sum of Mulliken charges =  -0.00000

 Dipole moment (field-independent basis, Debye):
    X=              0.0027    Y=             -0.6398    Z=              0.7853  Tot=              1.0129
 Quadrupole moment (field-independent basis, Debye-Ang):
   XX=            -77.5243   YY=            -79.7570   ZZ=            -79.3964
   XY=             -1.9658   XZ=              3.3605   YZ=              0.8157

  Exact polarizability: 162.946   1.757 115.753   1.160   0.139 106.095
 Approx polarizability: 176.274   1.479 168.246   0.052  -0.337 169.075

                      1                      2                      3
                      A                      A                      A
 Frequencies --     21.9224                33.1483                55.8662
 Red. masses --      2.6107                 2.7575                 2.2078
 Frc consts  --      0.0007                 0.0018                 0.0041
 IR Inten    --      0.3318                 0.0563                 0.1016

                      4                      5                      6
                      A                      A                      A
 Frequencies --     68.1546                76.2160                89.2587
 Red. masses --      2.4728                 2.2377                 2.0194
 Frc consts  --      0.0068                 0.0077                 0.0095
 IR Inten    --      1.1820                 0.2176                 0.5406

                      7                      8                      9
                      A                      A                      A
 Frequencies --    113.0544               133.8664               145.2947
 Red. masses --      1.8694                 2.0839                 2.6447
 Frc consts  --      0.0141                 0.0220                 0.0329
 IR Inten    --      0.0103                 0.0217                 0.2563

                     10                     11                     12
                      A                      A                      A
 Frequencies --    190.8610               217.1202               232.1701
 Red. masses --      1.2358                 2.8907                 1.2373
 Frc consts  --      0.0265                 0.0803                 0.0393
 IR Inten    --      0.6164                 0.4923                 0.7203

                     13                     14                     15
                      A                      A                      A
 Frequencies --    236.5107               248.3958               260.3192
 Red. masses --      1.3019                 1.1593                 2.5310
 Frc consts  --      0.0429                 0.0421                 0.1011
 IR Inten    --      0.7106                 0.0004                 1.1108

                     16                     17                     18
                      A                      A                      A
 Frequencies --    305.2766               327.4766               388.8932
 Red. masses --      2.5260                 2.5385                 2.9624
 Frc consts  --      0.1387                 0.1604                 0.2640
 IR Inten    --      0.1721                 0.6715                 2.3597

                     19                     20                     21
                      A                      A                      A
 Frequencies --    410.2076               450.1423               465.0884
 Red. masses --      2.0711                 2.6455                 2.4944
 Frc consts  --      0.2053                 0.3158                 0.3179
 IR Inten    --      0.2762                 3.5010                 0.8316

                     22                     23                     24
                      A                      A                      A
 Frequencies --    509.4358               548.5677               734.5614
 Red. masses --      2.7196                 2.5487                 1.0831
 Frc consts  --      0.4158                 0.4519                 0.3443
 IR Inten    --      1.1619                 1.0378                 2.2473

                     25                     26                     27
                      A                      A                      A
 Frequencies --    759.1364               786.0817               839.5744
 Red. masses --      1.2666                 1.2669                 2.1526
 Frc consts  --      0.4301                 0.4613                 0.8940
 IR Inten    --      2.6257                 0.3727                 3.1667

                     28                     29                     30
                      A                      A                      A
 Frequencies --    854.3887               903.6202               914.2668
 Red. masses --      2.3198                 1.7905                 1.4000
 Frc consts  --      0.9977                 0.8614                 0.6895
 IR Inten    --      0.6969                 0.8049                 5.0881

                     31                     32                     33
                      A                      A                      A
 Frequencies --    918.0141               927.9084               945.8743
 Red. masses --      1.7244                 1.4928                 2.0433
 Frc consts  --      0.8562                 0.7573                 1.0771
 IR Inten    --      5.9732                 3.6942                 2.7351

                     34                     35                     36
                      A                      A                      A
 Frequencies --   1011.5264              1023.1061              1043.3467
 Red. masses --      1.3429                 2.3529                 2.4839
 Frc consts  --      0.8095                 1.4511                 1.5931
 IR Inten    --      0.8080                 2.2481                 5.3361

                     37                     38                     39
                      A                      A                      A
 Frequencies --   1058.8394              1061.4064              1074.4669
 Red. masses --      2.5065                 1.3491                 2.5373
 Frc consts  --      1.6557                 0.8955                 1.7259
 IR Inten    --      5.4996                 0.6313                 1.0608

                     40                     41                     42
                      A                      A                      A
 Frequencies --   1091.2868              1124.5436              1148.6030
 Red. masses --      2.1287                 2.7010                 2.6199
 Frc consts  --      1.4936                 2.0125                 2.0364
 IR Inten    --      1.6358                34.2596                50.8229

                     43                     44                     45
                      A                      A                      A
 Frequencies --   1158.6587              1175.1184              1181.7672
 Red. masses --      2.7942                 1.8665                 1.3219
 Frc consts  --      2.2102                 1.5186                 1.0877
 IR Inten    --     78.2537                 0.0930                 3.4606

                     46                     47                     48
                      A                      A                      A
 Frequencies --   1196.6344              1216.1801              1240.9482
 Red. masses --      2.0179                 1.6112                 1.5831
 Frc consts  --      1.7025                 1.4041                 1.4364
 IR Inten    --     42.6774                32.6713                 2.9342

                     49                     50                     51
                      A                      A                      A
 Frequencies --   1254.2219              1269.1806              1294.1946
 Red. masses --      1.3929                 1.2593                 1.3014
 Frc consts  --      1.2910                 1.1952                 1.2843
 IR Inten    --      3.5511                 0.7004                 3.3246

                     52                     53                     54
                      A                      A                      A
 Frequencies --   1314.6065              1320.2256              1332.7815
 Red. masses --      1.1847                 1.2009                 1.0933
 Frc consts  --      1.2063                 1.2332                 1.1442
 IR Inten    --      0.2767                 0.5579                 0.7625

                     55                     56                     57
                      A                      A                      A
 Frequencies --   1337.1241              1373.0753              1377.2893
 Red. masses --      1.2290                 1.3159                 1.2905
 Frc consts  --      1.2946                 1.4618                 1.4423
 IR Inten    --      1.9999                 4.0060                10.1418

                     58                     59                     60
                      A                      A                      A
 Frequencies --   1381.8699              1384.9483              1394.8838
 Red. masses --      1.3562                 1.4378                 1.5458
 Frc consts  --      1.5258                 1.6249                 1.7720
 IR Inten    --      0.2022                14.5468                 7.6604

                     61                     62                     63
                      A                      A                      A
 Frequencies --   1401.2426              1407.2419              1412.3352
 Red. masses --      1.4280                 1.3284                 1.2407
 Frc consts  --      1.6520                 1.5499                 1.4581
 IR Inten    --      1.4704                18.1580                 2.0547

                     64                     65                     66
                      A                      A                      A
 Frequencies --   1416.2738              1474.2806              1477.1179
 Red. masses --      1.3003                 1.0787                 1.1113
 Frc consts  --      1.5367                 1.3813                 1.4286
 IR Inten    --      9.7082                 0.3243                 1.8082

                     67                     68                     69
                      A                      A                      A
 Frequencies --   1482.6239              1484.0822              1485.8535
 Red. masses --      1.0765                 1.0654                 1.0666
 Frc consts  --      1.3942                 1.3825                 1.3874
 IR Inten    --      0.1352                 2.6887                 0.4928

                     70                     71                     72
                      A                      A                      A
 Frequencies --   1492.2487              1498.6618              1499.0814
 Red. masses --      1.0672                 1.0602                 1.0753
 Frc consts  --      1.4001                 1.4030                 1.4237
 IR Inten    --      0.6119                 0.8559                 0.2189

                     73                     74                     75
                      A                      A                      A
 Frequencies --   1499.7258              1500.1270              1506.5594
 Red. masses --      1.0445                 1.0731                 1.0547
 Frc consts  --      1.3841                 1.4228                 1.4104
 IR Inten    --      6.3979                 3.1486                 1.8681

                     76                     77                     78
                      A                      A                      A
 Frequencies --   1509.9283              1513.3390              1513.6938
 Red. masses --      1.0575                 1.0766                 1.0772
 Frc consts  --      1.4205                 1.4527                 1.4542
 IR Inten    --      6.0275                 2.6466                12.2693

                     79                     80                     81
                      A                      A                      A
 Frequencies --   2938.8732              2970.2725              2983.4418
 Red. masses --      1.0808                 1.0399                 1.0796
 Frc consts  --      5.5001                 5.4057                 5.6616
 IR Inten    --     34.0433                70.1340                 3.4815

                     82                     83                     84
                      A                      A                      A
 Frequencies --   2994.1457              3001.9086              3005.1881
 Red. masses --      1.0598                 1.0633                 1.0621
 Frc consts  --      5.5980                 5.6455                 5.6514
 IR Inten    --      1.2460                12.1562                15.3249

                     85                     86                     87
                      A                      A                      A
 Frequencies --   3014.9973              3017.3029              3025.8901
 Red. masses --      1.0623                 1.0986                 1.0656
 Frc consts  --      5.6897                 5.8929                 5.7486
 IR Inten    --     60.9267                51.6272                39.3778

                     88                     89                     90
                      A                      A                      A
 Frequencies --   3026.1972              3027.9757              3028.9921
 Red. masses --      1.0805                 1.0472                 1.0436
 Frc consts  --      5.8298                 5.6568                 5.6415
 IR Inten    --     10.7013                41.6955                14.1820

                     91                     92                     93
                      A                      A                      A
 Frequencies --   3036.1184              3039.9263              3046.7773
 Red. masses --      1.0966                 1.0458                 1.0870
 Frc consts  --      5.9555                 5.6942                 5.9453
 IR Inten    --      2.9494                 6.8076                23.9065

                     94                     95                     96
                      A                      A                      A
 Frequencies --   3061.8826              3083.9132              3093.8653
 Red. masses --      1.1028                 1.0987                 1.1020
 Frc consts  --      6.0916                 6.1567                 6.2151
 IR Inten    --     65.3602                51.8210                63.4159

                     97                     98                     99
                      A                      A                      A
 Frequencies --   3098.5161              3099.0981              3104.3277
 Red. masses --      1.0949                 1.1005                 1.0956
 Frc consts  --      6.1937                 6.2274                 6.2207
 IR Inten    --     18.7722                52.5124                36.6572

                    100                    101                    102
                      A                      A                      A
 Frequencies --   3111.6289              3113.1769              3115.0505
 Red. masses --      1.1010                 1.1001                 1.1005
 Frc consts  --      6.2807                 6.2820                 6.2916
 IR Inten    --     30.3587                37.4201                28.2390

 - Thermochemistry -
 -------------------
 Temperature   298.150 Kelvin.  Pressure   1.00000 Atm.
 Atom     1 has atomic number  6 and mass  12.00000

 Molecular mass:   172.18272 amu.
 Principal axes and moments of inertia in atomic units:
                           1         2         3
     Eigenvalues --   650.369237635.065868057.35076
           X            0.99999  -0.00350   0.00371
           Y            0.00348   0.99998   0.00439
           Z           -0.00372  -0.00438   0.99998
 This molecule is an asymmetric top.
 Rotational symmetry number  1.
 Warning -- assumption of classical behavior for rotation
           may cause significant error
 Rotational temperatures (Kelvin)      0.13318     0.01134     0.01075
 Rotational constants (GHZ):           2.77495     0.23638     0.22399
 Zero-point vibrational energy     876655.7 (Joules/Mol)
                                  209.52574 (Kcal/Mol)
 Warning -- explicit consideration of  23 degrees of freedom as
           vibrations may cause significant error
 Vibrational temperatures:     31.54    47.69    80.38    98.06   109.66
          (Kelvin)            128.42   162.66   192.60   209.05   274.61
                              312.39   334.04   340.29   357.39   374.54
                              439.22   471.17   559.53   590.20   647.65
                              669.16   732.96   789.27  1056.87  1092.23
                             1131.00  1207.96  1229.27  1300.11  1315.43
                             1320.82  1335.05  1360.90  1455.36  1472.02
                             1501.14  1523.43  1527.13  1545.92  1570.12
                             1617.97  1652.58  1667.05  1690.73  1700.30
                             1721.69  1749.81  1785.45  1804.55  1826.07
                             1862.06  1891.43  1899.51  1917.58  1923.82
                             1975.55  1981.61  1988.20  1992.63  2006.93
                             2016.08  2024.71  2032.04  2037.70  2121.16
                             2125.24  2133.17  2135.26  2137.81  2147.01
                             2156.24  2156.84  2157.77  2158.35  2167.60
                             2172.45  2177.36  2177.87  4228.38  4273.56
                             4292.51  4307.91  4319.08  4323.80  4337.91
                             4341.23  4353.58  4354.02  4356.58  4358.04
                             4368.30  4373.78  4383.63  4405.37  4437.06
                             4451.38  4458.07  4458.91  4466.44  4476.94
                             4479.17  4481.86

 Zero-point correction=                           0.333901 (Hartree/Particle)
 Thermal correction to Energy=                    0.350349
 Thermal correction to Enthalpy=                  0.351293
 Thermal correction to Gibbs Free Energy=         0.288321
 Sum of electronic and zero-point Energies=           -508.561964
 Sum of electronic and thermal Energies=              -508.545516
 Sum of electronic and thermal Enthalpies=            -508.544572
 Sum of electronic and thermal Free Energies=         -508.607544

                     E (Thermal)             CV                S
                      KCal/Mol        Cal/Mol-Kelvin    Cal/Mol-Kelvin
 Total                  219.847             58.368            132.535
 Electronic               0.000              0.000              0.000
 Translational            0.889              2.981             41.338
 Rotational               0.889              2.981             32.059
 Vibrational            218.070             52.406             59.138
 Vibration     1          0.593              1.985              6.452
 Vibration     2          0.594              1.983              5.631
 Vibration     3          0.596              1.975              4.598
 Vibration     4          0.598              1.969              4.206
 Vibration     5          0.599              1.965              3.986
 Vibration     6          0.602              1.957              3.676
 Vibration     7          0.607              1.939              3.216
 Vibration     8          0.613              1.920              2.890
 Vibration     9          0.617              1.908              2.733
 Vibration    10          0.634              1.852              2.219
 Vibration    11          0.646              1.815              1.983
 Vibration    12          0.653              1.792              1.862
 Vibration    13          0.655              1.785              1.829
 Vibration    14          0.662              1.765              1.742
 Vibration    15          0.668              1.745              1.660
 Vibration    16          0.696              1.664              1.388
 Vibration    17          0.711              1.621              1.273
 Vibration    18          0.757              1.494              1.004
 Vibration    19          0.774              1.448              0.926
 Vibration    20          0.809              1.361              0.795
 Vibration    21          0.823              1.327              0.751
 Vibration    22          0.865              1.229              0.635
 Vibration    23          0.904              1.143              0.547

                           ! Non-Optimized Parameters !
 Normal termination of Gaussian 16 at Mon May 22 23:11:13 2023.
