 Gaussian 16, Revision A.03,
 Gaussian 16:  ES64L-G16RevA.03 25-Dec-2016

 -----------------------------
 # opt freq b3lyp/6-31g(2df,p)
 -----------------------------

 -------------------
 Title Card Required
 -------------------
 Symbolic Z-matrix:
 Charge =  0 Multiplicity = 1

 SCF Done:  E(RB3LYP) =  -823.347463822     A.U. after   12 cycles
 SCF Done:  E(RB3LYP) =  -823.369516486     A.U. after   10 cycles
 SCF Done:  E(RB3LYP) =  -823.375624552     A.U. after   10 cycles
 SCF Done:  E(RB3LYP) =  -823.375318712     A.U. after   10 cycles
 SCF Done:  E(RB3LYP) =  -823.381032541     A.U. after   11 cycles
 SCF Done:  E(RB3LYP) =  -823.390065708     A.U. after   11 cycles
 SCF Done:  E(RB3LYP) =  -823.395856721     A.U. after   10 cycles
 SCF Done:  E(RB3LYP) =  -823.401823909     A.U. after   11 cycles
 SCF Done:  E(RB3LYP) =  -823.404625944     A.U. after   10 cycles
 SCF Done:  E(RB3LYP) =  -823.406426243     A.U. after   10 cycles
 SCF Done:  E(RB3LYP) =  -823.408618551     A.U. after    8 cycles
 SCF Done:  E(RB3LYP) =  -823.408628933     A.U. after    8 cycles
 SCF Done:  E(RB3LYP) =  -823.408631550     A.U. after    7 cycles
 SCF Done:  E(RB3LYP) =  -823.408634115     A.U. after    8 cycles
 SCF Done:  E(RB3LYP) =  -823.408634800     A.U. after    6 cycles
 SCF Done:  E(RB3LYP) =  -823.408635212     A.U. after    6 cycles
 SCF Done:  E(RB3LYP) =  -823.408635366     A.U. after    6 cycles
 SCF Done:  E(RB3LYP) =  -823.408635401     A.U. after    5 cycles
 SCF Done:  E(RB3LYP) =  -823.408635399     A.U. after    5 cycles
 Optimization completed.
    -- Stationary point found.

 The electronic state is 1-A.
 Alpha  occ. eigenvalues --  -19.13496 -10.22067 -10.21829 -10.18416 -10.17874
 Alpha  occ. eigenvalues --  -10.17687 -10.17580 -10.17355 -10.17277 -10.17240
 Alpha  occ. eigenvalues --  -10.17069 -10.16986 -10.16985 -10.16895 -10.16765
 Alpha  occ. eigenvalues --  -10.16745 -10.16737 -10.16722 -10.16690 -10.16233
 Alpha  occ. eigenvalues --   -1.02826  -0.82587  -0.80247  -0.79095  -0.77426
 Alpha  occ. eigenvalues --   -0.76075  -0.74228  -0.71948  -0.70328  -0.68503
 Alpha  occ. eigenvalues --   -0.66877  -0.64266  -0.62982  -0.61147  -0.58747
 Alpha  occ. eigenvalues --   -0.57430  -0.57213  -0.56775  -0.55623  -0.54455
 Alpha  occ. eigenvalues --   -0.48101  -0.47846  -0.47158  -0.46635  -0.46337
 Alpha  occ. eigenvalues --   -0.45092  -0.43881  -0.43240  -0.42851  -0.42365
 Alpha  occ. eigenvalues --   -0.42067  -0.41360  -0.40707  -0.40133  -0.39696
 Alpha  occ. eigenvalues --   -0.39079  -0.38152  -0.37911  -0.37616  -0.37257
 Alpha  occ. eigenvalues --   -0.36620  -0.35657  -0.34994  -0.34768  -0.34411
 Alpha  occ. eigenvalues --   -0.34153  -0.33496  -0.32994  -0.32324  -0.32304
 Alpha  occ. eigenvalues --   -0.32045  -0.31754  -0.31693  -0.31402  -0.31235
 Alpha  occ. eigenvalues --   -0.31120  -0.30350  -0.29772  -0.28627  -0.27833
 Alpha  occ. eigenvalues --   -0.24889
 Alpha virt. eigenvalues --    0.07925   0.08568   0.09112   0.09663   0.10185
 Alpha virt. eigenvalues --    0.10477   0.11261   0.11449   0.12064   0.12654
 Alpha virt. eigenvalues --    0.13004   0.13269   0.13838   0.13915   0.14514

 Mulliken charges:
               1
     1  C   -0.378932
     2  C   -0.161868
     3  C   -0.159700
     4  C   -0.179406
     5  C   -0.200325
     6  C   -0.185244
     7  C   -0.036370
     8  C   -0.165023
     9  C   -0.174847
    10  C   -0.379747
    11  C   -0.018288
    12  C   -0.096772
    13  O   -0.224208
    14  C   -0.228864
    15  C    0.019988
    16  C   -0.425427
    17  C   -0.176111
    18  C   -0.173581
    19  C   -0.161861
    20  C   -0.380129
    21  H    0.108707
    22  H    0.111775
    23  H    0.112122
    24  H    0.091784
    25  H    0.092653
    26  H    0.088994
    27  H    0.088299
    28  H    0.088004
    29  H    0.091623
    30  H    0.096851
    31  H    0.086310
    32  H    0.087092
    33  H    0.104341
    34  H    0.059375
    35  H    0.087860
    36  H    0.088139
    37  H    0.100717
    38  H    0.094392
    39  H    0.112326
    40  H    0.108341
    41  H    0.111051
    42  H    0.078841
    43  H    0.083921
    44  H    0.082730
    45  H    0.124723
    46  H    0.100571
    47  H    0.101382
    48  H    0.064902
    49  H    0.116267
    50  H    0.119664
    51  H    0.111548
    52  H    0.095482
    53  H    0.089384
    54  H    0.095357
    55  H    0.088831
    56  H    0.093329
    57  H    0.094193
    58  H    0.112100
    59  H    0.110106
    60  H    0.112630
 Sum of Mulliken charges =  -0.00000

 Dipole moment (field-independent basis, Debye):
    X=             -0.5161    Y=             -0.6104    Z=              0.7099  Tot=              1.0691
 Quadrupole moment (field-independent basis, Debye-Ang):
   XX=           -133.8384   YY=           -129.1769   ZZ=           -133.0539
   XY=             -0.1497   XZ=             -0.5064   YZ=             -1.1669

 Normal termination of Gaussian 16 at Tue May 23 04:09:06 2023.

 ----------------------------------------------------------------------
 #N Geom=AllCheck Guess=TCheck SCRF=Check GenChk RB3LYP/6-31G(2df,p) Fr
 eq
 ----------------------------------------------------------------------

 Structure from the checkpoint file:  "CCCCCCCqCCCrCqCOCrCqCrCCCC.chk"
 -------------------
 Title Card Required
 -------------------
 Charge =  0 Multiplicity = 1

                         Standard orientation:
 ---------------------------------------------------------------------
 Center     Atomic      Atomic             Coordinates (Angstroms)
 Number     Number       Type             X           Y           Z
 ---------------------------------------------------------------------
      1          6           0        7.859660   -0.376101    0.570385
      2          6           0        6.508076   -1.030315    0.271140
      3          6           0        5.328680   -0.057185    0.374894
      4          6           0        3.971932   -0.703477    0.076092
      5          6           0        2.791660    0.270485    0.182535
      6          6           0        1.448029   -0.398145   -0.137971
      7          6           0        0.193701    0.480535    0.083809
      8          6           0        0.265069    1.768494   -0.787260
      9          6           0        0.825658    3.023689   -0.102643
     10          6           0        0.897590    4.226396   -1.048650
     11          6           0       -1.147919   -0.280661   -0.187291
     12          6           0       -1.085382   -1.788198    0.108448
     13          8           0       -0.452461   -2.470866   -0.954849
     14          6           0       -0.330422   -3.851626   -0.720347
     15          6           0       -2.404585    0.266748    0.579705
     16          6           0       -2.396522    1.750800    0.977696
     17          6           0       -3.685633   -0.055655   -0.225071
     18          6           0       -4.993232   -0.024413    0.576072
     19          6           0       -6.220995   -0.395944   -0.264017
     20          6           0       -7.527640   -0.372673    0.533664
     21          1           0        8.680901   -1.095206    0.488204
     22          1           0        7.882238    0.040267    1.583826
     23          1           0        8.065092    0.444463   -0.126302
     24          1           0        6.346214   -1.869280    0.961142
     25          1           0        6.527676   -1.468105   -0.735848
     26          1           0        5.491474    0.783184   -0.314792
     27          1           0        5.309073    0.381567    1.382690
     28          1           0        3.811499   -1.545649    0.763963
     29          1           0        3.991410   -1.139584   -0.932535
     30          1           0        2.971786    1.113606   -0.495323
     31          1           0        2.764344    0.693188    1.197118
     32          1           0        1.375676   -1.298866    0.480712
     33          1           0        1.458062   -0.754395   -1.174454
     34          1           0        0.201018    0.775528    1.143146
     35          1           0       -0.731238    2.012868   -1.170193
     36          1           0        0.865579    1.549394   -1.681190
     37          1           0        1.821517    2.822453    0.304993
     38          1           0        0.195211    3.278477    0.758113
     39          1           0        1.554087    4.021188   -1.901893
     40          1           0        1.283560    5.114881   -0.538776
     41          1           0       -0.091623    4.476089   -1.449182
     42          1           0       -1.346905   -0.201556   -1.264548
     43          1           0       -2.101538   -2.192497    0.239504
     44          1           0       -0.555919   -1.972496    1.059948
     45          1           0        0.145293   -4.294748   -1.598867
     46          1           0       -1.312139   -4.329470   -0.569406
     47          1           0        0.290443   -4.064830    0.164867
     48          1           0       -2.452957   -0.298112    1.524261
     49          1           0       -2.446378    2.411851    0.106655
     50          1           0       -1.512858    2.021176    1.558761
     51          1           0       -3.266553    1.972982    1.602565
     52          1           0       -3.592261   -1.046308   -0.686651
     53          1           0       -3.753658    0.653717   -1.062449
     54          1           0       -5.151303    0.970146    1.011845
     55          1           0       -4.913763   -0.718008    1.425514
     56          1           0       -6.074081   -1.393870   -0.698300
     57          1           0       -6.298597    0.294108   -1.114735
     58          1           0       -7.492809   -1.078189    1.371480
     59          1           0       -8.384269   -0.642128   -0.092213
     60          1           0       -7.719959    0.622571    0.950013
 ---------------------------------------------------------------------

 SCF Done:  E(RB3LYP) =  -823.408635399     A.U. after    1 cycles
