 Gaussian 16, Revision A.03,
 Gaussian 16:  ES64L-G16RevA.03 25-Dec-2016

 -----------------------------
 # opt freq b3lyp/6-31g(2df,p)
 -----------------------------

 -------------------
 Title Card Required
 -------------------
 Symbolic Z-matrix:
 Charge =  0 Multiplicity = 1

 SCF Done:  E(RB3LYP) =  -456.211838685     A.U. after   12 cycles
 SCF Done:  E(RB3LYP) =  -456.212628944     A.U. after   10 cycles
 SCF Done:  E(RB3LYP) =  -456.212728938     A.U. after    9 cycles
 SCF Done:  E(RB3LYP) =  -456.212734229     A.U. after    7 cycles
 Optimization completed.
    -- Stationary point found.
 Normal termination of Gaussian 16 at Sat May 27 18:42:57 2023.

 ----------------------------------------------------------------------
 #N Geom=AllCheck Guess=TCheck SCRF=Check GenChk RB3LYP/6-31G(2df,p) Fr
 eq
 ----------------------------------------------------------------------

 Structure from the checkpoint file:  "CCCCqFrqFrF.chk"
 -------------------
 Title Card Required
 -------------------
 Charge =  0 Multiplicity = 1

                         Standard orientation:
 ---------------------------------------------------------------------
 Center     Atomic      Atomic             Coordinates (Angstroms)
 Number     Number       Type             X           Y           Z
 ---------------------------------------------------------------------
      1          6           0       -2.951532    0.184094   -0.000000
      2          6           0       -1.550118   -0.430042    0.000000
      3          6           0       -0.447827    0.634798   -0.000000
      4          6           0        0.944998    0.043227    0.000000
      5          9           0        1.161421   -0.725678    1.081445
      6          9           0        1.161420   -0.725680   -1.081444
      7          9           0        1.884536    1.003388   -0.000001
      8          1           0       -3.719728   -0.594522    0.000000
      9          1           0       -3.111470    0.810778   -0.884155
     10          1           0       -3.111470    0.810779    0.884155
     11          1           0       -1.422631   -1.072769   -0.877728
     12          1           0       -1.422631   -1.072768    0.877729
     13          1           0       -0.525794    1.278884    0.882168
     14          1           0       -0.525794    1.278883   -0.882170
 ---------------------------------------------------------------------

 SCF Done:  E(RB3LYP) =  -456.212734229     A.U. after    1 cycles

 The electronic state is 1-A.
 Alpha  occ. eigenvalues --  -24.71186 -24.71186 -24.71110 -10.41108 -10.20523
 Alpha  occ. eigenvalues --  -10.19627 -10.18506  -1.29847  -1.20938  -1.20934
 Alpha  occ. eigenvalues --   -0.81571  -0.73779  -0.66094  -0.61143  -0.57866
 Alpha  occ. eigenvalues --   -0.57248  -0.53634  -0.48009  -0.45343  -0.44881
 Alpha  occ. eigenvalues --   -0.42900  -0.41835  -0.41627  -0.39301  -0.39197
 Alpha  occ. eigenvalues --   -0.39107  -0.35493  -0.34603  -0.34464
 Alpha virt. eigenvalues --    0.08603   0.12152   0.12190   0.14542   0.15211
 Alpha virt. eigenvalues --    0.15342   0.16660   0.17864   0.22612   0.23027
 Alpha virt. eigenvalues --    0.23484   0.25144   0.26003   0.38412   0.42727

 Mulliken charges:
               1
     1  C   -0.388068
     2  C   -0.175388
     3  C   -0.311342
     4  C    0.282452
     5  F   -0.086549
     6  F   -0.086549
     7  F   -0.081694
     8  H    0.120843
     9  H    0.119100
    10  H    0.119100
    11  H    0.116736
    12  H    0.116736
    13  H    0.127312
    14  H    0.127312
 Sum of Mulliken charges =  -0.00000

 Dipole moment (field-independent basis, Debye):
    X=             -2.0497    Y=              0.6025    Z=              0.0000  Tot=              2.1364
 Quadrupole moment (field-independent basis, Debye-Ang):
   XX=            -41.5258   YY=            -40.2812   ZZ=            -40.3675
   XY=             -0.0208   XZ=              0.0000   YZ=             -0.0000

  Exact polarizability:  52.910   0.727  44.192  -0.000   0.000  43.096
 Approx polarizability:  62.155   1.430  63.405  -0.000   0.000  64.220

                      1                      2                      3
                      A                      A                      A
 Frequencies --     80.1222                98.4840               163.9661
 Red. masses --      1.8900                 3.3931                 4.7649
 Frc consts  --      0.0071                 0.0194                 0.0755
 IR Inten    --      0.2038                 0.3792                 1.0966

                      4                      5                      6
                      A                      A                      A
 Frequencies --    247.5061               320.6813               360.8139
 Red. masses --      1.1147                 3.4369                 3.5054
 Frc consts  --      0.0402                 0.2082                 0.2689
 IR Inten    --      0.0016                 1.1829                 0.3941

                      7                      8                      9
                      A                      A                      A
 Frequencies --    387.5888               538.6987               550.9993
 Red. masses --      6.5694                 7.4208                 9.7386
 Frc consts  --      0.5815                 1.2688                 1.7420
 IR Inten    --      3.2881                 0.6356                 2.7421

                     10                     11                     12
                      A                      A                      A
 Frequencies --    657.0896               752.2242               841.7101
 Red. masses --      7.1145                 1.1148                 5.0834
 Frc consts  --      1.8099                 0.3716                 2.1219
 IR Inten    --     14.1259                 1.3373                 4.8037

                     13                     14                     15
                      A                      A                      A
 Frequencies --    876.7089               920.9261              1048.0857
 Red. masses --      1.3051                 1.9528                 2.6547
 Frc consts  --      0.5910                 0.9758                 1.7182
 IR Inten    --      6.7258                 5.9777                 7.7748

                     16                     17                     18
                      A                      A                      A
 Frequencies --   1051.1201              1108.4494              1189.3403
 Red. masses --      1.7588                 2.3534                 4.2827
 Frc consts  --      1.1449                 1.7036                 3.5693
 IR Inten    --     68.6437                20.2621               184.8451

                     19                     20                     21
                      A                      A                      A
 Frequencies --   1215.1459              1271.5215              1284.6591
 Red. masses --      2.3093                 3.3384                 1.4774
 Frc consts  --      2.0090                 3.1801                 1.4366
 IR Inten    --     66.6269               147.9683                48.9302

                     22                     23                     24
                      A                      A                      A
 Frequencies --   1340.9948              1342.4338              1408.0537
 Red. masses --      1.8561                 1.2236                 1.7676
 Frc consts  --      1.9666                 1.2992                 2.0648
 IR Inten    --     57.6360                32.4469                38.2431

                     25                     26                     27
                      A                      A                      A
 Frequencies --   1416.1256              1476.7636              1495.0204
 Red. masses --      1.2325                 1.1056                 1.0481
 Frc consts  --      1.4563                 1.4206                 1.3802
 IR Inten    --      1.2746                 7.1223                 2.2805

                     28                     29                     30
                      A                      A                      A
 Frequencies --   1500.6514              1511.5809              3032.3988
 Red. masses --      1.0398                 1.0890                 1.0363
 Frc consts  --      1.3796                 1.4660                 5.6146
 IR Inten    --      6.4973                 3.5023                20.4867

                     31                     32                     33
                      A                      A                      A
 Frequencies --   3043.5019              3055.6908              3073.5259
 Red. masses --      1.0589                 1.0594                 1.1012
 Frc consts  --      5.7791                 5.8279                 6.1291
 IR Inten    --      7.9116                21.8955                 0.0076

                     34                     35                     36
                      A                      A                      A
 Frequencies --   3096.0979              3109.6988              3109.8631
 Red. masses --      1.1030                 1.1006                 1.1043
 Frc consts  --      6.2295                 6.2709                 6.2926
 IR Inten    --      3.2039                29.5120                52.1807

 - Thermochemistry -
 -------------------
 Temperature   298.150 Kelvin.  Pressure   1.00000 Atm.
 Atom     1 has atomic number  6 and mass  12.00000

 Molecular mass:   112.04999 amu.
 Principal axes and moments of inertia in atomic units:
                           1         2         3
     Eigenvalues --   367.861421248.421061265.35169
           X            0.99998  -0.00658   0.00000
           Y            0.00658   0.99998  -0.00000
           Z           -0.00000   0.00000   1.00000
 This molecule is an asymmetric top.
 Rotational symmetry number  1.
 Rotational temperatures (Kelvin)      0.23545     0.06938     0.06845
 Rotational constants (GHZ):           4.90604     1.44562     1.42628
 Zero-point vibrational energy     286973.6 (Joules/Mol)
                                   68.58834 (Kcal/Mol)
 Warning -- explicit consideration of   9 degrees of freedom as
           vibrations may cause significant error
 Vibrational temperatures:    115.28   141.70   235.91   356.11   461.39
          (Kelvin)            519.13   557.65   775.07   792.77   945.41
                             1082.28  1211.03  1261.39  1325.01  1507.96
                             1512.33  1594.81  1711.20  1748.32  1829.44
                             1848.34  1929.39  1931.46  2025.88  2037.49
                             2124.73  2151.00  2159.10  2174.83  4362.95
                             4378.92  4396.46  4422.12  4454.59  4474.16
                             4474.40

 Zero-point correction=                           0.109302 (Hartree/Particle)
 Thermal correction to Energy=                    0.116804
 Thermal correction to Enthalpy=                  0.117748
 Thermal correction to Gibbs Free Energy=         0.077061
 Sum of electronic and zero-point Energies=           -456.103432
 Sum of electronic and thermal Energies=              -456.095931
 Sum of electronic and thermal Enthalpies=            -456.094986
 Sum of electronic and thermal Free Energies=         -456.135673

                     E (Thermal)             CV                S
                      KCal/Mol        Cal/Mol-Kelvin    Cal/Mol-Kelvin
 Total                   73.295             26.165             85.632
 Electronic               0.000              0.000              0.000
 Translational            0.889              2.981             40.057
 Rotational               0.889              2.981             27.854
 Vibrational             71.518             20.204             17.721
 Vibration     1          0.600              1.963              3.888
 Vibration     2          0.604              1.950              3.484
 Vibration     3          0.623              1.887              2.504
 Vibration     4          0.661              1.767              1.748
 Vibration     5          0.706              1.634              1.307
 Vibration     6          0.735              1.553              1.119
 Vibration     7          0.756              1.497              1.009
 Vibration     8          0.894              1.164              0.568
 Vibration     9          0.906              1.137              0.542

 Optimization completed.
    -- Stationary point found.
 Normal termination of Gaussian 16 at Sat May 27 18:55:32 2023.
