 Gaussian 16, Revision A.03,
 Gaussian 16:  ES64L-G16RevA.03 25-Dec-2016

 -----------------------------
 # opt freq b3lyp/6-31g(2df,p)
 -----------------------------

 -------------------
 Title Card Required
 -------------------
 Symbolic Z-matrix:
 Charge =  0 Multiplicity = 1

 SCF Done:  E(RB3LYP) =  -351.028701313     A.U. after   14 cycles
 SCF Done:  E(RB3LYP) =  -351.079377536     A.U. after   12 cycles
 SCF Done:  E(RB3LYP) =  -351.135447090     A.U. after   12 cycles
 SCF Done:  E(RB3LYP) =  -351.146753619     A.U. after   11 cycles
 SCF Done:  E(RB3LYP) =  -351.146999517     A.U. after    7 cycles
 SCF Done:  E(RB3LYP) =  -351.161870170     A.U. after   11 cycles
 SCF Done:  E(RB3LYP) =  -351.167253236     A.U. after   11 cycles
 SCF Done:  E(RB3LYP) =  -351.171915740     A.U. after   10 cycles
 SCF Done:  E(RB3LYP) =  -351.138000805     A.U. after   12 cycles
 SCF Done:  E(RB3LYP) =  -351.193183015     A.U. after   11 cycles
 SCF Done:  E(RB3LYP) =  -351.295205665     A.U. after   10 cycles
 SCF Done:  E(RB3LYP) =  -351.295807862     A.U. after    9 cycles
 SCF Done:  E(RB3LYP) =  -351.296101780     A.U. after    9 cycles
 SCF Done:  E(RB3LYP) =  -351.296366506     A.U. after    9 cycles
 SCF Done:  E(RB3LYP) =  -351.296609939     A.U. after    9 cycles
 SCF Done:  E(RB3LYP) =  -351.296641638     A.U. after    8 cycles
 SCF Done:  E(RB3LYP) =  -351.296647478     A.U. after    7 cycles
 SCF Done:  E(RB3LYP) =  -351.296648296     A.U. after    6 cycles
 SCF Done:  E(RB3LYP) =  -351.296648477     A.U. after    6 cycles
 Optimization completed.
    -- Stationary point found.
 Normal termination of Gaussian 16 at Mon May 29 02:05:05 2023.

 ----------------------------------------------------------------------
 #N Geom=AllCheck Guess=TCheck SCRF=Check GenChk RB3LYP/6-31G(2df,p) Fr
 eq
 ----------------------------------------------------------------------

 Structure from the checkpoint file:  "CCCC12CC3C1CC32.chk"
 -------------------
 Title Card Required
 -------------------
 Charge =  0 Multiplicity = 1

                         Standard orientation:
 ---------------------------------------------------------------------
 Center     Atomic      Atomic             Coordinates (Angstroms)
 Number     Number       Type             X           Y           Z
 ---------------------------------------------------------------------
      1          6           0        3.558489   -0.231984    0.018211
      2          6           0        2.146263    0.217359    0.401574
      3          6           0        1.074102   -0.261714   -0.587656
      4          6           0       -0.320301    0.182857   -0.226910
      5          6           0       -0.869752    1.623214   -0.089022
      6          6           0       -2.080772    0.725330    0.216941
      7          6           0       -1.210002   -0.335105    0.971465
      8          6           0       -1.781714   -1.501833    0.142638
      9          6           0       -1.668660   -0.335280   -0.858528
     10          1           0        4.301085    0.123512    0.739493
     11          1           0        3.841988    0.151972   -0.968223
     12          1           0        3.629507   -1.324794   -0.021753
     13          1           0        2.114403    1.312293    0.466424
     14          1           0        1.900945   -0.153421    1.404979
     15          1           0        1.101118   -1.358552   -0.651695
     16          1           0        1.318130    0.107121   -1.594160
     17          1           0       -0.916097    2.220480   -1.006841
     18          1           0       -0.481081    2.226143    0.739023
     19          1           0       -3.102760    1.008010    0.474444
     20          1           0       -0.942311   -0.304863    2.029703
     21          1           0       -2.794056   -1.833320    0.396263
     22          1           0       -1.129561   -2.365996   -0.020678
     23          1           0       -1.927237   -0.305651   -1.919248
 ---------------------------------------------------------------------

 SCF Done:  E(RB3LYP) =  -351.296648477     A.U. after    1 cycles

 The electronic state is 1-A.
 Alpha  occ. eigenvalues --  -10.19481 -10.19042 -10.18957 -10.18914 -10.17707
 Alpha  occ. eigenvalues --  -10.17607 -10.17529 -10.17391 -10.17061  -0.93078
 Alpha  occ. eigenvalues --   -0.78372  -0.73428  -0.69792  -0.62507  -0.60541
 Alpha  occ. eigenvalues --   -0.60227  -0.57213  -0.49475  -0.47362  -0.46120
 Alpha  occ. eigenvalues --   -0.45252  -0.42733  -0.42483  -0.40450  -0.38096
 Alpha  occ. eigenvalues --   -0.36304  -0.34039  -0.32770  -0.31386  -0.30773
 Alpha  occ. eigenvalues --   -0.29146  -0.28240  -0.28182  -0.27707
 Alpha virt. eigenvalues --    0.09287   0.10763   0.12377   0.12391   0.12922
 Alpha virt. eigenvalues --    0.13260   0.13959   0.14674   0.15704   0.16706
 Alpha virt. eigenvalues --    0.17264   0.17890   0.18972   0.19150   0.19347

 Mulliken charges:
               1
     1  C   -0.379643
     2  C   -0.160901
     3  C   -0.334725
     4  C    0.393696
     5  C   -0.310362
     6  C   -0.042411
     7  C   -0.071292
     8  C   -0.268532
     9  C   -0.088847
    10  H    0.109889
    11  H    0.113133
    12  H    0.112926
    13  H    0.099371
    14  H    0.097201
    15  H    0.094669
    16  H    0.093536
    17  H    0.084962
    18  H    0.087192
    19  H    0.065792
    20  H    0.063852
    21  H    0.088072
    22  H    0.089380
    23  H    0.063042
 Sum of Mulliken charges =  -0.00000

 Dipole moment (field-independent basis, Debye):
    X=              0.2191    Y=             -0.0005    Z=             -0.0155  Tot=              0.2196
 Quadrupole moment (field-independent basis, Debye-Ang):
   XX=            -56.9753   YY=            -56.9873   ZZ=            -56.0284
   XY=             -0.0089   XZ=              0.1147   YZ=             -0.1317

  Exact polarizability: 102.819   1.604  88.343  -0.262  -0.336  80.475
 Approx polarizability: 130.381   1.512 130.830  -0.259  -0.639 127.815

                      1                      2                      3
                      A                      A                      A
 Frequencies --     76.2161                81.9531               130.7670
 Red. masses --      2.3599                 1.8718                 2.9949
 Frc consts  --      0.0081                 0.0074                 0.0302
 IR Inten    --      0.0014                 0.0109                 0.0127

                      4                      5                      6
                      A                      A                      A
 Frequencies --    243.1494               270.2248               316.4657
 Red. masses --      1.1939                 2.0615                 2.7538
 Frc consts  --      0.0416                 0.0887                 0.1625
 IR Inten    --      0.0040                 0.0027                 0.1402

                      7                      8                      9
                      A                      A                      A
 Frequencies --    335.7770               418.9115               460.2668
 Red. masses --      2.5634                 1.9604                 2.1404
 Frc consts  --      0.1703                 0.2027                 0.2672
 IR Inten    --      0.0066                 0.5854                 1.4128

                     10                     11                     12
                      A                      A                      A
 Frequencies --    671.7433               720.9893               746.0893
 Red. masses --      3.0747                 2.3119                 1.3925
 Frc consts  --      0.8175                 0.7081                 0.4567
 IR Inten    --      0.0391                 0.7178                 1.5358

                     13                     14                     15
                      A                      A                      A
 Frequencies --    768.9045               838.4381               863.4668
 Red. masses --      3.2450                 1.6566                 2.0982
 Frc consts  --      1.1303                 0.6861                 0.9217
 IR Inten    --      0.3066                 0.1947                 1.5043

                     16                     17                     18
                      A                      A                      A
 Frequencies --    870.8121               888.8483               901.8975
 Red. masses --      2.0428                 1.7214                 1.8076
 Frc consts  --      0.9127                 0.8013                 0.8663
 IR Inten    --      0.4189                 0.4321                 0.6165

                     19                     20                     21
                      A                      A                      A
 Frequencies --    912.3610               928.7070               971.6887
 Red. masses --      2.2510                 1.9870                 1.7014
 Frc consts  --      1.1040                 1.0097                 0.9465
 IR Inten    --      0.5716                 0.2448                 0.9012

                     22                     23                     24
                      A                      A                      A
 Frequencies --    993.9876              1026.3321              1032.3763
 Red. masses --      1.1292                 1.1540                 1.3951
 Frc consts  --      0.6573                 0.7162                 0.8761
 IR Inten    --      0.6645                 0.2205                 0.1820

                     25                     26                     27
                      A                      A                      A
 Frequencies --   1045.1458              1059.1932              1078.9432
 Red. masses --      2.6804                 2.2829                 1.8636
 Frc consts  --      1.7250                 1.5090                 1.2782
 IR Inten    --      0.1275                 0.2424                 1.4427

                     28                     29                     30
                      A                      A                      A
 Frequencies --   1122.1062              1134.1716              1154.6351
 Red. masses --      1.2892                 2.1079                 1.6937
 Frc consts  --      0.9564                 1.5976                 1.3304
 IR Inten    --      0.1735                 1.3791                 0.3351

                     31                     32                     33
                      A                      A                      A
 Frequencies --   1159.9950              1171.7637              1189.0168
 Red. masses --      1.6188                 1.8285                 1.7159
 Frc consts  --      1.2834                 1.4792                 1.4293
 IR Inten    --      0.3176                 1.8588                 3.4491

                     34                     35                     36
                      A                      A                      A
 Frequencies --   1217.3915              1238.0688              1243.8782
 Red. masses --      1.9132                 1.6171                 1.7274
 Frc consts  --      1.6706                 1.4604                 1.5747
 IR Inten    --      1.5101                10.0780                 8.0574

                     37                     38                     39
                      A                      A                      A
 Frequencies --   1273.2547              1297.9845              1306.3055
 Red. masses --      1.5322                 1.8736                 1.4396
 Frc consts  --      1.4635                 1.8598                 1.4473
 IR Inten    --     10.6985                 6.1442                 7.5136

                     40                     41                     42
                      A                      A                      A
 Frequencies --   1332.5542              1347.6844              1394.5646
 Red. masses --      1.1779                 2.2776                 1.7616
 Frc consts  --      1.2323                 2.4372                 2.0185
 IR Inten    --      0.4262                 4.0467                 2.2335

                     43                     44                     45
                      A                      A                      A
 Frequencies --   1412.1891              1475.7105              1492.2152
 Red. masses --      1.2344                 1.0830                 1.0580
 Frc consts  --      1.4504                 1.3896                 1.3881
 IR Inten    --      0.4658                 1.0071                 0.9417

                     46                     47                     48
                      A                      A                      A
 Frequencies --   1499.4723              1508.4006              1509.9533
 Red. masses --      1.0404                 1.1071                 1.1448
 Frc consts  --      1.3783                 1.4842                 1.5378
 IR Inten    --      5.2034                 0.9216                 1.3640

                     49                     50                     51
                      A                      A                      A
 Frequencies --   1511.2661              2999.8798              3021.2958
 Red. masses --      1.1238                 1.0584                 1.0587
 Frc consts  --      1.5123                 5.6117                 5.6939
 IR Inten    --      1.0228                17.2627                18.6655

                     52                     53                     54
                      A                      A                      A
 Frequencies --   3025.6173              3027.7731              3028.5862
 Red. masses --      1.0552                 1.0364                 1.0964
 Frc consts  --      5.6911                 5.5978                 5.9250
 IR Inten    --     65.7983                41.3648                 1.8812

                     55                     56                     57
                      A                      A                      A
 Frequencies --   3035.3028              3057.0527              3080.7616
 Red. masses --      1.0567                 1.1030                 1.1089
 Frc consts  --      5.7357                 6.0733                 6.2008
 IR Inten    --     51.1018                25.7794                30.7715

                     58                     59                     60
                      A                      A                      A
 Frequencies --   3085.4198              3086.7978              3089.2084
 Red. masses --      1.0891                 1.0877                 1.1086
 Frc consts  --      6.1086                 6.1063                 6.2336
 IR Inten    --    104.2377                21.5425                45.7010

                     61                     62                     63
                      A                      A                      A
 Frequencies --   3094.7282              3099.8081              3103.3312
 Red. masses --      1.1022                 1.1009                 1.0950
 Frc consts  --      6.2196                 6.2326                 6.2134
 IR Inten    --     57.1275                40.7181                51.9691

 - Thermochemistry -
 -------------------
 Temperature   298.150 Kelvin.  Pressure   1.00000 Atm.
 Atom     1 has atomic number  6 and mass  12.00000

 Molecular mass:   122.10955 amu.
 Principal axes and moments of inertia in atomic units:
                           1         2         3
     Eigenvalues --   500.168961781.288531965.13452
           X            1.00000  -0.00043   0.00005
           Y            0.00043   0.99999   0.00505
           Z           -0.00005  -0.00505   0.99999
 This molecule is an asymmetric top.
 Rotational symmetry number  1.
 Warning -- assumption of classical behavior for rotation
           may cause significant error
 Rotational temperatures (Kelvin)      0.17317     0.04862     0.04408
 Rotational constants (GHZ):           3.60826     1.01317     0.91838
 Zero-point vibrational energy     541201.4 (Joules/Mol)
                                  129.35023 (Kcal/Mol)
 Warning -- explicit consideration of   9 degrees of freedom as
           vibrations may cause significant error
 Vibrational temperatures:    109.66   117.91   188.14   349.84   388.79
          (Kelvin)            455.32   483.11   602.72   662.22   966.49
                             1037.34  1073.46  1106.28  1206.33  1242.34
                             1252.90  1278.85  1297.63  1312.68  1336.20
                             1398.04  1430.13  1476.66  1485.36  1503.73
                             1523.94  1552.36  1614.46  1631.82  1661.26
                             1668.97  1685.91  1710.73  1751.55  1781.30
                             1789.66  1831.93  1867.51  1879.48  1917.25
                             1939.02  2006.47  2031.83  2123.22  2146.96
                             2157.41  2170.25  2172.49  2174.37  4316.16
                             4346.97  4353.19  4356.29  4357.46  4367.12
                             4398.42  4432.53  4439.23  4441.21  4444.68
                             4452.62  4459.93  4465.00

 Zero-point correction=                           0.206133 (Hartree/Particle)
 Thermal correction to Energy=                    0.214779
 Thermal correction to Enthalpy=                  0.215724
 Thermal correction to Gibbs Free Energy=         0.172483
 Sum of electronic and zero-point Energies=           -351.090516
 Sum of electronic and thermal Energies=              -351.081869
 Sum of electronic and thermal Enthalpies=            -351.080925
 Sum of electronic and thermal Free Energies=         -351.124165

                     E (Thermal)             CV                S
                      KCal/Mol        Cal/Mol-Kelvin    Cal/Mol-Kelvin
 Total                  134.776             33.868             91.007
 Electronic               0.000              0.000              0.000
 Translational            0.889              2.981             40.313
 Rotational               0.889              2.981             28.950
 Vibrational            132.999             27.906             21.744
 Vibration     1          0.599              1.965              3.986
 Vibration     2          0.600              1.962              3.844
 Vibration     3          0.612              1.923              2.935
 Vibration     4          0.659              1.774              1.780
 Vibration     5          0.674              1.728              1.595
 Vibration     6          0.703              1.642              1.328
 Vibration     7          0.717              1.604              1.232
 Vibration     8          0.782              1.429              0.896
 Vibration     9          0.818              1.338              0.765

 Optimization completed.
    -- Stationary point found.
 Normal termination of Gaussian 16 at Mon May 29 02:43:12 2023.
