 Gaussian 16, Revision A.03,
 Gaussian 16:  ES64L-G16RevA.03 25-Dec-2016

 -----------------------------
 # opt freq b3lyp/6-31g(2df,p)
 -----------------------------

 -------------------
 Title Card Required
 -------------------
 Symbolic Z-matrix:
 Charge =  0 Multiplicity = 1

 SCF Done:  E(RB3LYP) =  -639.450084643     A.U. after   12 cycles
 SCF Done:  E(RB3LYP) =  -639.458867717     A.U. after   11 cycles
 SCF Done:  E(RB3LYP) =  -639.460076151     A.U. after   10 cycles
 SCF Done:  E(RB3LYP) =  -639.460857763     A.U. after   10 cycles
 SCF Done:  E(RB3LYP) =  -639.461079338     A.U. after   10 cycles
 SCF Done:  E(RB3LYP) =  -639.461154074     A.U. after    9 cycles
 SCF Done:  E(RB3LYP) =  -639.461179787     A.U. after    9 cycles
 SCF Done:  E(RB3LYP) =  -639.461196338     A.U. after    8 cycles
 SCF Done:  E(RB3LYP) =  -639.461207037     A.U. after    9 cycles
 SCF Done:  E(RB3LYP) =  -639.461208823     A.U. after    8 cycles
 SCF Done:  E(RB3LYP) =  -639.461210534     A.U. after    8 cycles
 SCF Done:  E(RB3LYP) =  -639.461212850     A.U. after    9 cycles
 SCF Done:  E(RB3LYP) =  -639.461212944     A.U. after   10 cycles
 SCF Done:  E(RB3LYP) =  -639.461215465     A.U. after   10 cycles
 SCF Done:  E(RB3LYP) =  -639.461216861     A.U. after   10 cycles
 SCF Done:  E(RB3LYP) =  -639.461221405     A.U. after    9 cycles
 SCF Done:  E(RB3LYP) =  -639.461221174     A.U. after    9 cycles
 SCF Done:  E(RB3LYP) =  -639.461221532     A.U. after    8 cycles
 SCF Done:  E(RB3LYP) =  -639.461221573     A.U. after    5 cycles
 Optimization completed.
    -- Stationary point found.
 Normal termination of Gaussian 16 at Mon May 22 09:46:24 2023.

 ----------------------------------------------------------------------
 #N Geom=AllCheck Guess=TCheck SCRF=Check GenChk RB3LYP/6-31G(2df,p) Fr
 eq
 ----------------------------------------------------------------------

 Structure from the checkpoint file:  "CCCCqCOrCCOCCCqCrN.chk"
 -------------------
 Title Card Required
 -------------------
 Charge =  0 Multiplicity = 1

                         Standard orientation:
 ---------------------------------------------------------------------
 Center     Atomic      Atomic             Coordinates (Angstroms)
 Number     Number       Type             X           Y           Z
 ---------------------------------------------------------------------
      1          6           0       -5.935362   -1.643367   -0.113093
      2          6           0       -4.909587   -0.547932   -0.418366
      3          6           0       -3.543869   -0.834057    0.220950
      4          6           0       -2.417732    0.173831   -0.087897
      5          6           0       -2.654925    1.555104    0.551001
      6          8           0       -3.758296    2.279659    0.024993
      7          6           0       -1.054233   -0.388027    0.369497
      8          6           0        0.155062    0.251585   -0.305758
      9          8           0        1.318711   -0.374608    0.187997
     10          6           0        2.511597    0.137153   -0.368265
     11          6           0        3.684815   -0.612058    0.250575
     12          6           0        5.056189   -0.249822   -0.335842
     13          6           0        5.441921    1.218467   -0.091474
     14          7           0        6.039980   -1.210785    0.187228
     15          1           0       -6.899289   -1.430144   -0.585917
     16          1           0       -6.108648   -1.733852    0.965312
     17          1           0       -5.596241   -2.621313   -0.474078
     18          1           0       -5.280971    0.422329   -0.079837
     19          1           0       -4.782610   -0.462822   -1.506935
     20          1           0       -3.211196   -1.827982   -0.108148
     21          1           0       -3.660227   -0.906793    1.312416
     22          1           0       -2.377622    0.314620   -1.181308
     23          1           0       -1.738439    2.160485    0.483648
     24          1           0       -2.872555    1.425931    1.618033
     25          1           0       -3.599294    2.416118   -0.914469
     26          1           0       -1.012899   -1.463026    0.164263
     27          1           0       -0.947989   -0.280191    1.456693
     28          1           0        0.199729    1.336951   -0.113391
     29          1           0        0.086863    0.125233   -1.401238
     30          1           0        2.581034    1.220885   -0.176193
     31          1           0        2.509616    0.005563   -1.465198
     32          1           0        3.523370   -1.685367    0.111713
     33          1           0        3.687075   -0.429503    1.333934
     34          1           0        5.013882   -0.416036   -1.421860
     35          1           0        5.461054    1.439211    0.982952
     36          1           0        4.744893    1.917982   -0.565568
     37          1           0        6.439504    1.425750   -0.494046
     38          1           0        6.112974   -1.097536    1.196489
     39          1           0        6.961555   -0.986681   -0.179756
 ---------------------------------------------------------------------

 SCF Done:  E(RB3LYP) =  -639.461221573     A.U. after    1 cycles

 The electronic state is 1-A.
 Alpha  occ. eigenvalues --  -19.13534 -19.13490 -14.30466 -10.22536 -10.22434
 Alpha  occ. eigenvalues --  -10.22346 -10.21116 -10.18757 -10.17870 -10.17461
 Alpha  occ. eigenvalues --  -10.17407 -10.17352 -10.16817 -10.16561  -1.03011
 Alpha  occ. eigenvalues --   -1.01496  -0.88236  -0.81306  -0.77597  -0.75773
 Alpha  occ. eigenvalues --   -0.72201  -0.69420  -0.66918  -0.63558  -0.61157
 Alpha  occ. eigenvalues --   -0.58196  -0.57005  -0.56818  -0.50222  -0.49463
 Alpha  occ. eigenvalues --   -0.48369  -0.47835  -0.47220  -0.44510  -0.43977
 Alpha  occ. eigenvalues --   -0.43370  -0.42323  -0.40969  -0.40686  -0.40611
 Alpha  occ. eigenvalues --   -0.39849  -0.38831  -0.37107  -0.36365  -0.35505
 Alpha  occ. eigenvalues --   -0.34981  -0.33999  -0.33401  -0.33047  -0.32832
 Alpha  occ. eigenvalues --   -0.31878  -0.31678  -0.31358  -0.30096  -0.25972
 Alpha  occ. eigenvalues --   -0.25136  -0.23531
 Alpha virt. eigenvalues --    0.07314   0.07657   0.08718   0.09511   0.10811
 Alpha virt. eigenvalues --    0.11133   0.11343   0.12164   0.13647   0.14016
 Alpha virt. eigenvalues --    0.14737   0.14951   0.15448   0.16526   0.16722

 Mulliken charges:
               1
     1  C   -0.378101
     2  C   -0.183307
     3  C   -0.165488
     4  C   -0.026098
     5  C   -0.056514
     6  O   -0.414347
     7  C   -0.215707
     8  C   -0.062124
     9  O   -0.245248
    10  C   -0.060323
    11  C   -0.177308
    12  C    0.039360
    13  C   -0.386945
    14  N   -0.511424
    15  H    0.108586
    16  H    0.112269
    17  H    0.108597
    18  H    0.123598
    19  H    0.080047
    20  H    0.087751
    21  H    0.091326
    22  H    0.056343
    23  H    0.087103
    24  H    0.110982
    25  H    0.279382
    26  H    0.105888
    27  H    0.104708
    28  H    0.083397
    29  H    0.081379
    30  H    0.083251
    31  H    0.082066
    32  H    0.118273
    33  H    0.093844
    34  H    0.079264
    35  H    0.108643
    36  H    0.114031
    37  H    0.105177
    38  H    0.218117
    39  H    0.219551
 Sum of Mulliken charges =  -0.00000

 Dipole moment (field-independent basis, Debye):
    X=              1.6303    Y=              1.3095    Z=             -1.0924  Tot=              2.3592
 Quadrupole moment (field-independent basis, Debye-Ang):
   XX=            -89.0581   YY=            -96.2419   ZZ=            -86.2209
   XY=              9.3011   XZ=              4.2056   YZ=             -2.7514

  Exact polarizability: 177.755   2.635 125.635   1.616  -2.175 117.803
 Approx polarizability: 193.559  -2.571 181.176   0.432  -3.201 187.664

                      1                      2                      3
                      A                      A                      A
 Frequencies --     13.8547                22.5331                42.3720
 Red. masses --      2.7468                 3.9767                 3.9084
 Frc consts  --      0.0003                 0.0012                 0.0041
 IR Inten    --      0.7659                 0.2186                 0.2654

                      4                      5                      6
                      A                      A                      A
 Frequencies --     56.8963                64.2971                76.8429
 Red. masses --      2.0185                 2.1986                 2.3316
 Frc consts  --      0.0038                 0.0054                 0.0081
 IR Inten    --      0.7406                 0.6548                 0.4788

                      7                      8                      9
                      A                      A                      A
 Frequencies --     97.7761               114.1764               130.5271
 Red. masses --      2.3097                 3.2482                 2.0636
 Frc consts  --      0.0130                 0.0249                 0.0207
 IR Inten    --      1.4696                 0.8261                 0.2367

                     10                     11                     12
                      A                      A                      A
 Frequencies --    139.3834               151.0585               195.2947
 Red. masses --      2.7976                 3.8289                 3.3295
 Frc consts  --      0.0320                 0.0515                 0.0748
 IR Inten    --      0.7119                 3.0343                 0.6304

                     13                     14                     15
                      A                      A                      A
 Frequencies --    202.4936               243.1247               254.0237
 Red. masses --      2.8389                 1.2641                 1.0662
 Frc consts  --      0.0686                 0.0440                 0.0405
 IR Inten    --      2.0214                 2.1429                10.1863

                     16                     17                     18
                      A                      A                      A
 Frequencies --    255.3926               261.2184               290.8099
 Red. masses --      1.5373                 1.6219                 1.3126
 Frc consts  --      0.0591                 0.0652                 0.0654
 IR Inten    --      7.7153                12.9764                92.8944

                     19                     20                     21
                      A                      A                      A
 Frequencies --    309.0744               357.3575               369.7399
 Red. masses --      2.5942                 3.1034                 3.4016
 Frc consts  --      0.1460                 0.2335                 0.2740
 IR Inten    --     20.0183                 1.3919                 6.2846

                     22                     23                     24
                      A                      A                      A
 Frequencies --    395.0436               432.3455               456.0460
 Red. masses --      2.3119                 2.3096                 3.1155
 Frc consts  --      0.2126                 0.2544                 0.3818
 IR Inten    --     18.6101                 6.1415                 3.8492

                     25                     26                     27
                      A                      A                      A
 Frequencies --    474.4770               534.8346               589.5451
 Red. masses --      2.2134                 2.7316                 3.2715
 Frc consts  --      0.2936                 0.4604                 0.6699
 IR Inten    --      6.3758                 2.9710                 4.7067

                     28                     29                     30
                      A                      A                      A
 Frequencies --    749.0671               782.0394               797.1424
 Red. masses --      1.1122                 1.2510                 1.3085
 Frc consts  --      0.3677                 0.4508                 0.4899
 IR Inten    --      3.0481                 1.8201                 0.4482

                     31                     32                     33
                      A                      A                      A
 Frequencies --    840.3061               851.2749               868.9247
 Red. masses --      2.1952                 1.3778                 1.8256
 Frc consts  --      0.9133                 0.5883                 0.8121
 IR Inten    --     11.5835                 3.8373                 0.9029

                     34                     35                     36
                      A                      A                      A
 Frequencies --    900.2891               917.6886               950.6696
 Red. masses --      1.3776                 2.0380                 1.4642
 Frc consts  --      0.6579                 1.0112                 0.7797
 IR Inten    --    143.1414                 2.0391                12.1712

                     37                     38                     39
                      A                      A                      A
 Frequencies --    957.7444               971.3326              1009.1026
 Red. masses --      1.4350                 1.4712                 3.9021
 Frc consts  --      0.7755                 0.8178                 2.3411
 IR Inten    --      9.8329                 4.1537                 6.1735

                     40                     41                     42
                      A                      A                      A
 Frequencies --   1025.0279              1038.4294              1048.0919
 Red. masses --      2.1209                 2.2855                 1.9297
 Frc consts  --      1.3129                 1.4521                 1.2489
 IR Inten    --      1.3665                 1.2137                 5.8252

                     43                     44                     45
                      A                      A                      A
 Frequencies --   1056.4206              1064.2275              1079.1502
 Red. masses --      2.0714                 2.6767                 2.8063
 Frc consts  --      1.3621                 1.7862                 1.9256
 IR Inten    --     13.6241                16.6707                51.2027

                     46                     47                     48
                      A                      A                      A
 Frequencies --   1081.6072              1114.9704              1139.1044
 Red. masses --      2.9151                 1.4196                 2.1713
 Frc consts  --      2.0093                 1.0398                 1.6599
 IR Inten    --     47.1356                 1.0353                47.3701

                     49                     50                     51
                      A                      A                      A
 Frequencies --   1144.4786              1156.2155              1161.2175
 Red. masses --      2.1947                 3.1996                 3.3563
 Frc consts  --      1.6937                 2.5201                 2.6665
 IR Inten    --      5.6384               161.9555                95.7107

                     52                     53                     54
                      A                      A                      A
 Frequencies --   1182.9847              1206.6947              1224.3238
 Red. masses --      2.1430                 1.3878                 1.5759
 Frc consts  --      1.7670                 1.1907                 1.3917
 IR Inten    --     11.2935                 0.5807                 8.0195

                     55                     56                     57
                      A                      A                      A
 Frequencies --   1241.1553              1261.4256              1275.8806
 Red. masses --      1.4033                 1.3036                 1.2555
 Frc consts  --      1.2736                 1.2221                 1.2042
 IR Inten    --      3.7608                 1.8006                 5.1075

                     58                     59                     60
                      A                      A                      A
 Frequencies --   1288.0178              1306.6134              1309.3813
 Red. masses --      1.2368                 1.1143                 1.1446
 Frc consts  --      1.2089                 1.1209                 1.1562
 IR Inten    --      4.3967                 1.4261                 0.3916

                     61                     62                     63
                      A                      A                      A
 Frequencies --   1323.8010              1329.1713              1334.2892
 Red. masses --      1.2485                 1.2883                 1.2240
 Frc consts  --      1.2891                 1.3410                 1.2839
 IR Inten    --      0.7824                 1.6058                 0.7249

                     64                     65                     66
                      A                      A                      A
 Frequencies --   1351.6675              1369.8019              1379.9619
 Red. masses --      1.2905                 1.2975                 1.3258
 Frc consts  --      1.3891                 1.4344                 1.4875
 IR Inten    --      7.4003                11.7515                 5.5418

                     67                     68                     69
                      A                      A                      A
 Frequencies --   1391.0374              1399.8131              1404.7400
 Red. masses --      1.4364                 1.3120                 1.2949
 Frc consts  --      1.6376                 1.5147                 1.5055
 IR Inten    --      2.4048                 9.2176                 3.8877

                     70                     71                     72
                      A                      A                      A
 Frequencies --   1406.8287              1411.7129              1413.9268
 Red. masses --      1.2777                 1.2360                 1.3903
 Frc consts  --      1.4899                 1.4514                 1.6376
 IR Inten    --     31.0197                 4.5428                40.2808

                     73                     74                     75
                      A                      A                      A
 Frequencies --   1425.3285              1454.7459              1479.3260
 Red. masses --      1.3089                 1.4910                 1.0813
 Frc consts  --      1.5667                 1.8591                 1.3942
 IR Inten    --     21.4911                 2.8356                 0.1643

                     76                     77                     78
                      A                      A                      A
 Frequencies --   1486.0503              1494.3195              1496.8224
 Red. masses --      1.0795                 1.0672                 1.0617
 Frc consts  --      1.4045                 1.4041                 1.4014
 IR Inten    --      0.0467                 4.1985                 1.5851

                     79                     80                     81
                      A                      A                      A
 Frequencies --   1498.2530              1499.7077              1500.7016
 Red. masses --      1.0745                 1.0410                 1.0586
 Frc consts  --      1.4211                 1.3794                 1.4046
 IR Inten    --      1.3206                 4.9450                 7.7822

                     82                     83                     84
                      A                      A                      A
 Frequencies --   1505.0111              1515.3990              1516.9866
 Red. masses --      1.0871                 1.0908                 1.0876
 Frc consts  --      1.4507                 1.4759                 1.4746
 IR Inten    --      0.7920                 4.3525                 5.7109

                     85                     86                     87
                      A                      A                      A
 Frequencies --   1538.0803              1658.1397              2935.8416
 Red. masses --      1.0933                 1.0904                 1.0568
 Frc consts  --      1.5238                 1.7664                 5.3666
 IR Inten    --      0.2797                21.1917                22.2747

                     88                     89                     90
                      A                      A                      A
 Frequencies --   2947.4298              2961.7145              2967.7483
 Red. masses --      1.0623                 1.0804                 1.0958
 Frc consts  --      5.4374                 5.5837                 5.6861
 IR Inten    --     60.1558                31.8753                41.1492

                     91                     92                     93
                      A                      A                      A
 Frequencies --   2973.9247              2990.6090              2996.7425
 Red. masses --      1.0983                 1.0683                 1.0607
 Frc consts  --      5.7231                 5.6296                 5.6123
 IR Inten    --     38.2590                85.1681                10.7622

                     94                     95                     96
                      A                      A                      A
 Frequencies --   3000.8341              3009.9415              3018.5214
 Red. masses --      1.0815                 1.0729                 1.0389
 Frc consts  --      5.7382                 5.7269                 5.5774
 IR Inten    --     13.3124                32.1580                22.4117

                     97                     98                     99
                      A                      A                      A
 Frequencies --   3025.2916              3025.4132              3030.2270
 Red. masses --      1.0361                 1.0638                 1.0617
 Frc consts  --      5.5871                 5.7369                 5.7438
 IR Inten    --     33.5964                39.2185                31.6277

                    100                    101                    102
                      A                      A                      A
 Frequencies --   3033.2867              3059.2897              3075.7455
 Red. masses --      1.0981                 1.0950                 1.1012
 Frc consts  --      5.9527                 6.0381                 6.1379
 IR Inten    --     26.6923                42.4767                37.3246

                    103                    104                    105
                      A                      A                      A
 Frequencies --   3081.3483              3087.2925              3090.8747
 Red. masses --      1.0969                 1.0989                 1.0987
 Frc consts  --      6.1360                 6.1710                 6.1840
 IR Inten    --     11.4053                25.1958                39.1534

                    106                    107                    108
                      A                      A                      A
 Frequencies --   3093.0890              3097.6584              3110.2548
 Red. masses --      1.1006                 1.1011                 1.0945
 Frc consts  --      6.2039                 6.2253                 6.2380
 IR Inten    --     43.1115                38.7203                38.5123

                    109                    110                    111
                      A                      A                      A
 Frequencies --   3466.2291              3544.4314              3815.0859
 Red. masses --      1.0493                 1.0912                 1.0661
 Frc consts  --      7.4280                 8.0767                 9.1419
 IR Inten    --      1.6313                 0.5456                15.3637

 - Thermochemistry -
 -------------------
 Temperature   298.150 Kelvin.  Pressure   1.00000 Atm.
 Atom     1 has atomic number  6 and mass  12.00000

 Molecular mass:   203.18853 amu.
 Principal axes and moments of inertia in atomic units:
                           1         2         3
     Eigenvalues --  1040.42796********************
           X            0.99993   0.01197   0.00069
           Y           -0.01196   0.99989  -0.00920
           Z           -0.00080   0.00919   0.99996
 This molecule is an asymmetric top.
 Rotational symmetry number  1.
 Warning -- assumption of classical behavior for rotation
           may cause significant error
 Rotational temperatures (Kelvin)      0.08325     0.00757     0.00709
 Rotational constants (GHZ):           1.73461     0.15769     0.14777
 Zero-point vibrational energy     936412.8 (Joules/Mol)
                                  223.80802 (Kcal/Mol)
 Warning -- explicit consideration of  27 degrees of freedom as
           vibrations may cause significant error
 Vibrational temperatures:     19.93    32.42    60.96    81.86    92.51
          (Kelvin)            110.56   140.68   164.27   187.80   200.54
                              217.34   280.99   291.34   349.80   365.48
                              367.45   375.83   418.41   444.69   514.16
                              531.97   568.38   622.05   656.15   682.67
                              769.51   848.22  1077.74  1125.18  1146.91
                             1209.01  1224.79  1250.19  1295.32  1320.35
                             1367.80  1377.98  1397.53  1451.87  1474.79
                             1494.07  1507.97  1519.95  1531.19  1552.66
                             1556.19  1604.19  1638.92  1646.65  1663.54
                             1670.73  1702.05  1736.16  1761.53  1785.75
                             1814.91  1835.71  1853.17  1879.93  1883.91
                             1904.65  1912.38  1919.74  1944.75  1970.84
                             1985.46  2001.39  2014.02  2021.11  2024.11
                             2031.14  2034.33  2050.73  2093.05  2128.42
                             2138.09  2149.99  2153.59  2155.65  2157.74
                             2159.17  2165.38  2180.32  2182.61  2212.95
                             2385.69  4224.02  4240.69  4261.25  4269.93
                             4278.81  4302.82  4311.64  4317.53  4330.63
                             4342.98  4352.72  4352.89  4359.82  4364.22
                             4401.64  4425.31  4433.37  4441.93  4447.08
                             4450.27  4456.84  4474.96  4987.13  5099.65
                             5489.06

 Zero-point correction=                           0.356661 (Hartree/Particle)
 Thermal correction to Energy=                    0.375355
 Thermal correction to Enthalpy=                  0.376299
 Thermal correction to Gibbs Free Energy=         0.306953
 Sum of electronic and zero-point Energies=           -639.104561
 Sum of electronic and thermal Energies=              -639.085867
 Sum of electronic and thermal Enthalpies=            -639.084922
 Sum of electronic and thermal Free Energies=         -639.154269

                     E (Thermal)             CV                S
                      KCal/Mol        Cal/Mol-Kelvin    Cal/Mol-Kelvin
 Total                  235.539             66.209            145.952
 Electronic               0.000              0.000              0.000
 Translational            0.889              2.981             41.831
 Rotational               0.889              2.981             33.341
 Vibrational            233.761             60.247             70.779
 Vibration     1          0.593              1.986              7.363
 Vibration     2          0.593              1.985              6.397
 Vibration     3          0.595              1.980              5.145
 Vibration     4          0.596              1.975              4.562
 Vibration     5          0.597              1.971              4.321
 Vibration     6          0.599              1.965              3.970
 Vibration     7          0.603              1.951              3.498
 Vibration     8          0.607              1.938              3.197
 Vibration     9          0.612              1.923              2.938
 Vibration    10          0.615              1.914              2.812
 Vibration    11          0.618              1.901              2.659
 Vibration    12          0.636              1.846              2.177
 Vibration    13          0.639              1.836              2.110
 Vibration    14          0.659              1.774              1.780
 Vibration    15          0.665              1.756              1.702
 Vibration    16          0.666              1.754              1.693
 Vibration    17          0.669              1.744              1.654
 Vibration    18          0.687              1.691              1.469
 Vibration    19          0.698              1.656              1.367
 Vibration    20          0.733              1.560              1.134
 Vibration    21          0.742              1.534              1.081
 Vibration    22          0.762              1.481              0.981
 Vibration    23          0.793              1.400              0.851
 Vibration    24          0.814              1.348              0.778
 Vibration    25          0.831              1.307              0.725
 Vibration    26          0.890              1.173              0.577
 Vibration    27          0.947              1.054              0.468

 Optimization completed.
    -- Stationary point found.
 Normal termination of Gaussian 16 at Mon May 22 11:49:02 2023.
