 Gaussian 16, Revision A.03,
 Gaussian 16:  ES64L-G16RevA.03 25-Dec-2016

 -----------------------------
 # opt freq b3lyp/6-31g(2df,p)
 -----------------------------

 -------------------
 Title Card Required
 -------------------
 Symbolic Z-matrix:
 Charge =  0 Multiplicity = 1

 SCF Done:  E(RB3LYP) =  -1001.73382521     A.U. after   12 cycles
 SCF Done:  E(RB3LYP) =  -1001.74565656     A.U. after   11 cycles
 SCF Done:  E(RB3LYP) =  -1001.75095187     A.U. after   10 cycles
 SCF Done:  E(RB3LYP) =  -1001.75546573     A.U. after   11 cycles
 SCF Done:  E(RB3LYP) =  -1001.75659258     A.U. after   10 cycles
 SCF Done:  E(RB3LYP) =  -1001.75677956     A.U. after   11 cycles
 SCF Done:  E(RB3LYP) =  -1001.75734802     A.U. after   11 cycles
 SCF Done:  E(RB3LYP) =  -1001.75751305     A.U. after    9 cycles
 SCF Done:  E(RB3LYP) =  -1001.75760532     A.U. after    9 cycles
 SCF Done:  E(RB3LYP) =  -1001.75763108     A.U. after    9 cycles
 SCF Done:  E(RB3LYP) =  -1001.75763757     A.U. after    8 cycles
 SCF Done:  E(RB3LYP) =  -1001.75763886     A.U. after    7 cycles
 SCF Done:  E(RB3LYP) =  -1001.75763916     A.U. after    6 cycles
 SCF Done:  E(RB3LYP) =  -1001.75763922     A.U. after    6 cycles
 SCF Done:  E(RB3LYP) =  -1001.75763925     A.U. after    5 cycles
 Optimization completed.
    -- Stationary point found.
 Normal termination of Gaussian 16 at Mon May 22 18:37:07 2023.

 ----------------------------------------------------------------------
 #N Geom=AllCheck Guess=TCheck SCRF=Check GenChk RB3LYP/6-31G(2df,p) Fr
 eq
 ----------------------------------------------------------------------

 Structure from the checkpoint file:  "CCCCCCqOrCCqCCrSCCN.chk"
 -------------------
 Title Card Required
 -------------------
 Charge =  0 Multiplicity = 1

                         Standard orientation:
 ---------------------------------------------------------------------
 Center     Atomic      Atomic             Coordinates (Angstroms)
 Number     Number       Type             X           Y           Z
 ---------------------------------------------------------------------
      1          6           0       -7.372809   -1.102769   -0.262133
      2          6           0       -6.156117   -0.214628   -0.535724
      3          6           0       -4.844423   -0.806833   -0.008794
      4          6           0       -3.625347    0.081827   -0.275111
      5          6           0       -2.313961   -0.513697    0.246596
      6          6           0       -1.096831    0.399920    0.033542
      7          8           0       -1.317909    1.686281    0.615006
      8          6           0        0.194954   -0.259155    0.545028
      9          6           0        1.530811    0.315733    0.032726
     10          6           0        1.825982    1.786941    0.401860
     11          6           0        1.353772    2.809582   -0.640161
     12         16           0        2.829732   -0.835970    0.679572
     13          6           0        4.244166   -0.410283   -0.397423
     14          6           0        5.463959   -1.251673   -0.018447
     15          7           0        6.591803   -0.894847   -0.886265
     16          1           0       -8.292428   -0.653543   -0.650182
     17          1           0       -7.510304   -1.266102    0.812720
     18          1           0       -7.259055   -2.086224   -0.731976
     19          1           0       -6.313099    0.773393   -0.083050
     20          1           0       -6.065011   -0.039858   -1.616024
     21          1           0       -4.685361   -1.795429   -0.462648
     22          1           0       -4.936614   -0.985049    1.072187
     23          1           0       -3.774373    1.067245    0.180554
     24          1           0       -3.533692    0.260135   -1.355820
     25          1           0       -2.122548   -1.477685   -0.242193
     26          1           0       -2.406125   -0.732274    1.321899
     27          1           0       -0.998140    0.604475   -1.040670
     28          1           0       -1.378715    1.567584    1.569590
     29          1           0        0.164112   -1.319861    0.272986
     30          1           0        0.185270   -0.228951    1.644913
     31          1           0        1.556866    0.206558   -1.059000
     32          1           0        2.905225    1.906731    0.535955
     33          1           0        1.375522    2.008059    1.375565
     34          1           0        1.790511    2.597396   -1.623040
     35          1           0        1.670551    3.817529   -0.352170
     36          1           0        0.266772    2.817934   -0.731874
     37          1           0        4.495740    0.649208   -0.302570
     38          1           0        3.963477   -0.602122   -1.439843
     39          1           0        5.192367   -2.319801   -0.047132
     40          1           0        5.747908   -1.024734    1.014929
     41          1           0        6.426740   -1.247569   -1.825091
     42          1           0        7.434406   -1.357639   -0.559106
 ---------------------------------------------------------------------

 SCF Done:  E(RB3LYP) =  -1001.75763925     A.U. after    1 cycles

 The electronic state is 1-A.
 Alpha  occ. eigenvalues --  -88.85341 -19.13803 -14.30992 -10.23244 -10.21203
 Alpha  occ. eigenvalues --  -10.20910 -10.20278 -10.18469 -10.17944 -10.17577
 Alpha  occ. eigenvalues --  -10.17536 -10.17471 -10.17361 -10.16992 -10.16228
 Alpha  occ. eigenvalues --   -7.91680  -5.88154  -5.87827  -5.87205  -1.01912
 Alpha  occ. eigenvalues --   -0.88077  -0.81881  -0.80120  -0.76995  -0.75707
 Alpha  occ. eigenvalues --   -0.73386  -0.69986  -0.66594  -0.62863  -0.61062
 Alpha  occ. eigenvalues --   -0.59101  -0.58747  -0.57274  -0.55701  -0.48876
 Alpha  occ. eigenvalues --   -0.48454  -0.47577  -0.46401  -0.45790  -0.44823
 Alpha  occ. eigenvalues --   -0.43750  -0.42978  -0.42553  -0.41139  -0.40517
 Alpha  occ. eigenvalues --   -0.40037  -0.39866  -0.38358  -0.37031  -0.36228
 Alpha  occ. eigenvalues --   -0.35776  -0.35445  -0.35152  -0.34150  -0.33284
 Alpha  occ. eigenvalues --   -0.32946  -0.32670  -0.32201  -0.31804  -0.31203
 Alpha  occ. eigenvalues --   -0.30737  -0.29141  -0.26349  -0.23935  -0.21138
 Alpha virt. eigenvalues --    0.04204   0.06082   0.07269   0.09146   0.09412
 Alpha virt. eigenvalues --    0.10315   0.10759   0.11690   0.12525   0.12578
 Alpha virt. eigenvalues --    0.13085   0.13387   0.14157   0.14430   0.15354

 Mulliken charges:
               1
     1  C   -0.379565
     2  C   -0.162556
     3  C   -0.161650
     4  C   -0.178322
     5  C   -0.199048
     6  C    0.082784
     7  O   -0.416384
     8  C   -0.214932
     9  C    0.001462
    10  C   -0.163151
    11  C   -0.398247
    12  S   -0.196703
    13  C   -0.167775
    14  C   -0.156155
    15  N   -0.514514
    16  H    0.110301
    17  H    0.112174
    18  H    0.112365
    19  H    0.094510
    20  H    0.093713
    21  H    0.089026
    22  H    0.088264
    23  H    0.105174
    24  H    0.090251
    25  H    0.096697
    26  H    0.084034
    27  H    0.087295
    28  H    0.277523
    29  H    0.117530
    30  H    0.098543
    31  H    0.094985
    32  H    0.104582
    33  H    0.092064
    34  H    0.103520
    35  H    0.108710
    36  H    0.148082
    37  H    0.133745
    38  H    0.110421
    39  H    0.097589
    40  H    0.120201
    41  H    0.224350
    42  H    0.229109
 Sum of Mulliken charges =  -0.00000

 Dipole moment (field-independent basis, Debye):
    X=             -0.1183    Y=             -1.1880    Z=             -0.4797  Tot=              1.2867
 Quadrupole moment (field-independent basis, Debye-Ang):
   XX=            -98.9584   YY=           -107.3383   ZZ=           -100.2245
   XY=             -5.9232   XZ=             -5.7330   YZ=              4.3591

  Exact polarizability: 218.526  -5.974 148.161  -3.922  -3.016 136.329
 Approx polarizability: 241.390  -7.281 219.885  -5.185  -2.795 223.383

                      1                      2                      3
                      A                      A                      A
 Frequencies --     21.0012                30.1496                34.2327
 Red. masses --      4.1906                 2.6537                 2.5519
 Frc consts  --      0.0011                 0.0014                 0.0018
 IR Inten    --      0.1616                 0.3205                 0.4779

                      4                      5                      6
                      A                      A                      A
 Frequencies --     44.2177                48.1476                58.6279
 Red. masses --      2.5721                 2.8973                 2.1930
 Frc consts  --      0.0030                 0.0040                 0.0044
 IR Inten    --      2.1211                 0.6187                 0.2279

                      7                      8                      9
                      A                      A                      A
 Frequencies --     84.5257                92.4808               119.8577
 Red. masses --      3.5304                 2.4523                 2.7986
 Frc consts  --      0.0149                 0.0124                 0.0237
 IR Inten    --      1.1727                 0.4747                 1.4705

                     10                     11                     12
                      A                      A                      A
 Frequencies --    133.7237               140.2344               154.1876
 Red. masses --      2.4831                 1.9497                 3.1772
 Frc consts  --      0.0262                 0.0226                 0.0445
 IR Inten    --      1.5400                 0.3379                 2.2731

                     13                     14                     15
                      A                      A                      A
 Frequencies --    165.8072               171.6139               209.2900
 Red. masses --      2.5146                 4.3327                 1.9336
 Frc consts  --      0.0407                 0.0752                 0.0499
 IR Inten    --      0.9765                 0.2737                 0.1649

                     16                     17                     18
                      A                      A                      A
 Frequencies --    236.4342               246.1891               247.7106
 Red. masses --      1.6668                 1.2927                 1.1445
 Frc consts  --      0.0549                 0.0462                 0.0414
 IR Inten    --      4.4378                53.9205                 2.5266

                     19                     20                     21
                      A                      A                      A
 Frequencies --    259.0293               278.4695               287.9402
 Red. masses --      2.0785                 3.8009                 1.3027
 Frc consts  --      0.0822                 0.1737                 0.0636
 IR Inten    --      0.4409                 2.5097                95.2600

                     22                     23                     24
                      A                      A                      A
 Frequencies --    306.1929               376.0393               379.2441
 Red. masses --      2.1279                 4.1653                 2.9430
 Frc consts  --      0.1175                 0.3470                 0.2494
 IR Inten    --     24.1495                12.4108                 0.6062

                     25                     26                     27
                      A                      A                      A
 Frequencies --    393.9349               422.3409               454.1546
 Red. masses --      4.1431                 3.6629                 1.9067
 Frc consts  --      0.3788                 0.3850                 0.2317
 IR Inten    --     15.6144                 0.3538                 2.1447

                     28                     29                     30
                      A                      A                      A
 Frequencies --    517.8407               549.8718               733.2568
 Red. masses --      2.6480                 3.0532                 1.0719
 Frc consts  --      0.4184                 0.5439                 0.3396
 IR Inten    --      2.6474                15.5908                 3.3653

                     31                     32                     33
                      A                      A                      A
 Frequencies --    741.4917               759.3318               769.0035
 Red. masses --      2.0750                 1.1650                 2.9749
 Frc consts  --      0.6722                 0.3958                 1.0365
 IR Inten    --      2.4672                 0.9329                37.3964

                     34                     35                     36
                      A                      A                      A
 Frequencies --    778.1902               790.3710               816.5684
 Red. masses --      2.1806                 1.1486                 2.2335
 Frc consts  --      0.7780                 0.4227                 0.8775
 IR Inten    --      1.4613                 6.4483                 2.8593

                     37                     38                     39
                      A                      A                      A
 Frequencies --    835.8239               866.2064               896.0607
 Red. masses --      1.3755                 1.3198                 1.9628
 Frc consts  --      0.5661                 0.5835                 0.9285
 IR Inten    --      0.1953               107.6796                 2.0834

                     40                     41                     42
                      A                      A                      A
 Frequencies --    910.7993               933.4439               967.4514
 Red. masses --      2.1930                 1.5334                 2.1133
 Frc consts  --      1.0718                 0.7872                 1.1654
 IR Inten    --      3.6020                10.0994                 1.1581

                     43                     44                     45
                      A                      A                      A
 Frequencies --    983.0956               988.2524              1013.7902
 Red. masses --      2.3636                 1.4581                 3.0371
 Frc consts  --      1.3459                 0.8390                 1.8391
 IR Inten    --      5.1801                 6.8745                 1.1581

                     46                     47                     48
                      A                      A                      A
 Frequencies --   1024.8225              1036.3374              1054.6299
 Red. masses --      1.8231                 2.3859                 1.8627
 Frc consts  --      1.1281                 1.5098                 1.2206
 IR Inten    --     11.8782                 8.6881                 2.1393

                     49                     50                     51
                      A                      A                      A
 Frequencies --   1065.1246              1069.1086              1083.2813
 Red. masses --      2.5696                 2.1398                 2.1719
 Frc consts  --      1.7176                 1.4410                 1.5017
 IR Inten    --      3.6415                 2.3136                 5.1338

                     52                     53                     54
                      A                      A                      A
 Frequencies --   1085.6762              1107.2092              1123.3382
 Red. masses --      2.1942                 1.5626                 1.4745
 Frc consts  --      1.5238                 1.1287                 1.0963
 IR Inten    --     19.5948                17.5939                30.1946

                     55                     56                     57
                      A                      A                      A
 Frequencies --   1133.1177              1136.3426              1148.1954
 Red. masses --      1.9032                 1.4778                 2.5540
 Frc consts  --      1.4398                 1.1243                 1.9838
 IR Inten    --     11.0426                16.2026                 5.8760

                     58                     59                     60
                      A                      A                      A
 Frequencies --   1186.1781              1224.0589              1233.7286
 Red. masses --      1.3876                 1.6020                 1.3256
 Frc consts  --      1.1503                 1.4142                 1.1888
 IR Inten    --     14.4800                 4.9177                 9.2768

                     61                     62                     63
                      A                      A                      A
 Frequencies --   1246.2660              1252.9108              1282.6878
 Red. masses --      1.2683                 1.2888                 1.3216
 Frc consts  --      1.1607                 1.1920                 1.2811
 IR Inten    --      5.2341                 1.4346                 1.3444

                     64                     65                     66
                      A                      A                      A
 Frequencies --   1295.7115              1298.2323              1306.0141
 Red. masses --      1.2773                 1.2281                 1.1955
 Frc consts  --      1.2635                 1.2195                 1.2014
 IR Inten    --      6.1620                 1.9313                 5.4611

                     67                     68                     69
                      A                      A                      A
 Frequencies --   1321.3094              1330.6388              1333.9611
 Red. masses --      1.1598                 1.0773                 1.2163
 Frc consts  --      1.1930                 1.1238                 1.2752
 IR Inten    --      2.4034                 2.0371                 1.9428

                     70                     71                     72
                      A                      A                      A
 Frequencies --   1338.6528              1351.2912              1362.8412
 Red. masses --      1.1871                 1.2864                 1.3492
 Frc consts  --      1.2533                 1.3839                 1.4764
 IR Inten    --      1.0180                 1.2160                 2.9129

                     73                     74                     75
                      A                      A                      A
 Frequencies --   1378.4807              1386.7733              1393.8995
 Red. masses --      1.3416                 1.4450                 1.5506
 Frc consts  --      1.5020                 1.6373                 1.7750
 IR Inten    --      2.8532                11.9297                 1.4768

                     76                     77                     78
                      A                      A                      A
 Frequencies --   1400.1981              1408.2862              1413.1096
 Red. masses --      1.6086                 1.2215                 1.2461
 Frc consts  --      1.8581                 1.4273                 1.4661
 IR Inten    --      1.5676                 6.0327                 0.4515

                     79                     80                     81
                      A                      A                      A
 Frequencies --   1419.2641              1422.6182              1469.6456
 Red. masses --      1.2033                 1.3945                 1.0885
 Frc consts  --      1.4281                 1.6628                 1.3852
 IR Inten    --     38.8614                12.0963                 0.5677

                     82                     83                     84
                      A                      A                      A
 Frequencies --   1480.6434              1482.3282              1484.0355
 Red. masses --      1.0804                 1.0886                 1.0684
 Frc consts  --      1.3955                 1.4093                 1.3863
 IR Inten    --      2.7127                 5.4516                 0.3895

                     85                     86                     87
                      A                      A                      A
 Frequencies --   1485.2612              1491.1551              1496.3318
 Red. masses --      1.0694                 1.0714                 1.0587
 Frc consts  --      1.3900                 1.4036                 1.3966
 IR Inten    --      4.8926                 0.6367                 1.1934

                     88                     89                     90
                      A                      A                      A
 Frequencies --   1499.8571              1504.5579              1514.6044
 Red. masses --      1.0403                 1.0782                 1.0931
 Frc consts  --      1.3788                 1.4380                 1.4775
 IR Inten    --      4.9761                 0.4748                 3.0324

                     91                     92                     93
                      A                      A                      A
 Frequencies --   1515.7890              1517.6911              1659.3051
 Red. masses --      1.0870                 1.0493                 1.0882
 Frc consts  --      1.4715                 1.4241                 1.7652
 IR Inten    --      0.8674                 4.3404                19.1386

                     94                     95                     96
                      A                      A                      A
 Frequencies --   2963.9414              2989.6735              2998.3203
 Red. masses --      1.0715                 1.0652                 1.0589
 Frc consts  --      5.5458                 5.6097                 5.6089
 IR Inten    --     49.8394                 5.2834                 6.9992

                     97                     98                     99
                      A                      A                      A
 Frequencies --   3000.1824              3010.0899              3016.6055
 Red. masses --      1.0682                 1.0657                 1.0669
 Frc consts  --      5.6649                 5.6891                 5.7200
 IR Inten    --     10.2795                 1.6703                52.3297

                    100                    101                    102
                      A                      A                      A
 Frequencies --   3018.1723              3024.6448              3027.7216
 Red. masses --      1.0816                 1.0927                 1.0365
 Frc consts  --      5.8052                 5.8896                 5.5983
 IR Inten    --      3.9704                 8.0243                35.5575

                    103                    104                    105
                      A                      A                      A
 Frequencies --   3027.8615              3029.2673              3032.5339
 Red. masses --      1.0621                 1.0782                 1.0434
 Frc consts  --      5.7371                 5.8294                 5.6532
 IR Inten    --     21.1498                27.1617                47.0749

                    106                    107                    108
                      A                      A                      A
 Frequencies --   3042.8770              3045.4899              3049.1825
 Red. masses --      1.0915                 1.0613                 1.1023
 Frc consts  --      5.9543                 5.7996                 6.0384
 IR Inten    --     23.6940                23.2916                11.8212

                    109                    110                    111
                      A                      A                      A
 Frequencies --   3064.2244              3068.8461              3076.3296
 Red. masses --      1.0871                 1.0954                 1.0989
 Frc consts  --      6.0142                 6.0781                 6.1272
 IR Inten    --     18.3802                 5.4615                59.8555

                    112                    113                    114
                      A                      A                      A
 Frequencies --   3079.3663              3092.5665              3093.7935
 Red. masses --      1.0996                 1.1006                 1.1020
 Frc consts  --      6.1433                 6.2020                 6.2147
 IR Inten    --     27.1790                45.8640                69.0525

                    115                    116                    117
                      A                      A                      A
 Frequencies --   3096.8107              3099.6318              3144.8972
 Red. masses --      1.1030                 1.1009                 1.0974
 Frc consts  --      6.2322                 6.2318                 6.3946
 IR Inten    --     19.6384                39.6744                12.2706

                    118                    119                    120
                      A                      A                      A
 Frequencies --   3486.9800              3565.2611              3795.9904
 Red. masses --      1.0497                 1.0918                 1.0658
 Frc consts  --      7.5197                 8.1766                 9.0487
 IR Inten    --      0.6693                 0.1575                13.7815

 - Thermochemistry -
 -------------------
 Temperature   298.150 Kelvin.  Pressure   1.00000 Atm.
 Atom     1 has atomic number  6 and mass  12.00000

 Molecular mass:   233.18134 amu.
 Principal axes and moments of inertia in atomic units:
                           1         2         3
     Eigenvalues --  1464.07038********************
           X            0.99998   0.00593  -0.00175
           Y           -0.00594   0.99998  -0.00130
           Z            0.00174   0.00131   1.00000
 This molecule is an asymmetric top.
 Rotational symmetry number  1.
 Warning -- assumption of classical behavior for rotation
           may cause significant error
 Rotational temperatures (Kelvin)      0.05916     0.00635     0.00596
 Rotational constants (GHZ):           1.23269     0.13240     0.12422
 Zero-point vibrational energy    1001533.9 (Joules/Mol)
                                  239.37234 (Kcal/Mol)
 Warning -- explicit consideration of  29 degrees of freedom as
           vibrations may cause significant error
 Vibrational temperatures:     30.22    43.38    49.25    63.62    69.27
          (Kelvin)             84.35   121.61   133.06   172.45   192.40
                              201.77   221.84   238.56   246.91   301.12
                              340.18   354.21   356.40   372.69   400.66
                              414.28   440.54   541.04   545.65   566.78
                              607.65   653.43   745.06   791.14  1054.99
                             1066.84  1092.51  1106.42  1119.64  1137.17
                             1174.86  1202.56  1246.28  1289.23  1310.44
                             1343.02  1391.95  1414.46  1421.87  1458.62
                             1474.49  1491.06  1517.38  1532.48  1538.21
                             1558.60  1562.05  1593.03  1616.23  1630.30
                             1634.94  1652.00  1706.65  1761.15  1775.06
                             1793.10  1802.66  1845.50  1864.24  1867.87
                             1879.06  1901.07  1914.49  1919.27  1926.02
                             1944.21  1960.82  1983.33  1995.26  2005.51
                             2014.57  2026.21  2033.15  2042.00  2046.83
                             2114.49  2130.32  2132.74  2135.20  2136.96
                             2145.44  2152.89  2157.96  2164.72  2179.18
                             2180.88  2183.62  2387.37  4264.45  4301.47
                             4313.91  4316.59  4330.85  4340.22  4342.48
                             4351.79  4356.22  4356.42  4358.44  4363.14
                             4378.02  4381.78  4387.09  4408.74  4415.39
                             4426.15  4430.52  4449.51  4451.28  4455.62
                             4459.68  4524.81  5016.99  5129.62  5461.58

 Zero-point correction=                           0.381464 (Hartree/Particle)
 Thermal correction to Energy=                    0.402246
 Thermal correction to Enthalpy=                  0.403191
 Thermal correction to Gibbs Free Energy=         0.329060
 Sum of electronic and zero-point Energies=          -1001.376175
 Sum of electronic and thermal Energies=             -1001.355393
 Sum of electronic and thermal Enthalpies=           -1001.354449
 Sum of electronic and thermal Free Energies=        -1001.428579

                     E (Thermal)             CV                S
                      KCal/Mol        Cal/Mol-Kelvin    Cal/Mol-Kelvin
 Total                  252.413             73.479            156.020
 Electronic               0.000              0.000              0.000
 Translational            0.889              2.981             42.242
 Rotational               0.889              2.981             34.027
 Vibrational            250.636             67.517             79.751
 Vibration     1          0.593              1.986              6.537
 Vibration     2          0.594              1.984              5.820
 Vibration     3          0.594              1.983              5.568
 Vibration     4          0.595              1.980              5.061
 Vibration     5          0.595              1.978              4.892
 Vibration     6          0.596              1.974              4.503
 Vibration     7          0.601              1.960              3.783
 Vibration     8          0.602              1.955              3.607
 Vibration     9          0.609              1.933              3.103
 Vibration    10          0.613              1.920              2.892
 Vibration    11          0.615              1.913              2.801
 Vibration    12          0.620              1.898              2.620
 Vibration    13          0.624              1.884              2.482
 Vibration    14          0.626              1.877              2.418
 Vibration    15          0.642              1.827              2.050
 Vibration    16          0.655              1.785              1.830
 Vibration    17          0.661              1.769              1.758
 Vibration    18          0.661              1.767              1.747
 Vibration    19          0.668              1.747              1.668
 Vibration    20          0.679              1.713              1.543
 Vibration    21          0.685              1.696              1.486
 Vibration    22          0.697              1.662              1.383
 Vibration    23          0.747              1.521              1.055
 Vibration    24          0.749              1.514              1.042
 Vibration    25          0.761              1.483              0.985
 Vibration    26          0.785              1.422              0.884
 Vibration    27          0.813              1.352              0.783
 Vibration    28          0.873              1.210              0.615
 Vibration    29          0.905              1.140              0.544

 Optimization completed.
    -- Stationary point found.
 Normal termination of Gaussian 16 at Mon May 22 21:27:36 2023.
