 Gaussian 16, Revision A.03,
 Gaussian 16:  ES64L-G16RevA.03 25-Dec-2016

 -----------------------------
 # opt freq b3lyp/6-31g(2df,p)
 -----------------------------

 -------------------
 Title Card Required
 -------------------
 Symbolic Z-matrix:
 Charge =  0 Multiplicity = 1

 SCF Done:  E(RB3LYP) =  -700.811909826     A.U. after   12 cycles
 SCF Done:  E(RB3LYP) =  -700.829291744     A.U. after   11 cycles
 SCF Done:  E(RB3LYP) =  -700.833920507     A.U. after   10 cycles
 SCF Done:  E(RB3LYP) =  -700.836885361     A.U. after   10 cycles
 SCF Done:  E(RB3LYP) =  -700.837453063     A.U. after   10 cycles
 SCF Done:  E(RB3LYP) =  -700.837771574     A.U. after   10 cycles
 SCF Done:  E(RB3LYP) =  -700.837941770     A.U. after    9 cycles
 SCF Done:  E(RB3LYP) =  -700.838093467     A.U. after    9 cycles
 SCF Done:  E(RB3LYP) =  -700.838145254     A.U. after    9 cycles
 SCF Done:  E(RB3LYP) =  -700.838150735     A.U. after    8 cycles
 SCF Done:  E(RB3LYP) =  -700.838844676     A.U. after    9 cycles
 SCF Done:  E(RB3LYP) =  -700.838920853     A.U. after   10 cycles
 SCF Done:  E(RB3LYP) =  -700.838926580     A.U. after    8 cycles
 SCF Done:  E(RB3LYP) =  -700.838921343     A.U. after    8 cycles
 SCF Done:  E(RB3LYP) =  -700.838930826     A.U. after    8 cycles
 SCF Done:  E(RB3LYP) =  -700.838930832     A.U. after    7 cycles
 SCF Done:  E(RB3LYP) =  -700.838931281     A.U. after    6 cycles
 SCF Done:  E(RB3LYP) =  -700.838931358     A.U. after    7 cycles
 SCF Done:  E(RB3LYP) =  -700.838931402     A.U. after    6 cycles
 Optimization completed.
    -- Stationary point found.
 Normal termination of Gaussian 16 at Tue May 23 00:05:26 2023.

 ----------------------------------------------------------------------
 #N Geom=AllCheck Guess=TCheck SCRF=Check GenChk RB3LYP/6-31G(2df,p) Fr
 eq
 ----------------------------------------------------------------------

 Structure from the checkpoint file:  "CCCCqCCOCrCCOC1CCCC1.chk"
 -------------------
 Title Card Required
 -------------------
 Charge =  0 Multiplicity = 1

                         Standard orientation:
 ---------------------------------------------------------------------
 Center     Atomic      Atomic             Coordinates (Angstroms)
 Number     Number       Type             X           Y           Z
 ---------------------------------------------------------------------
      1          6           0        4.390828   -3.167003   -0.296177
      2          6           0        3.507072   -2.120115    0.387948
      3          6           0        2.323732   -1.678081   -0.484753
      4          6           0        1.394002   -0.614594    0.155109
      5          6           0        1.766875    0.827881   -0.241871
      6          6           0        3.181219    1.268968    0.115983
      7          8           0        3.294864    2.645318   -0.182637
      8          6           0        4.573657    3.161148    0.090741
      9          6           0       -0.074536   -0.921782   -0.199982
     10          6           0       -1.111126   -0.028939    0.475540
     11          8           0       -2.385933   -0.588421    0.236004
     12          6           0       -3.469519    0.137318    0.807570
     13          6           0       -3.862108    1.375339   -0.048900
     14          6           0       -5.111066    0.954501   -0.873849
     15          6           0       -5.231397   -0.569457   -0.677261
     16          6           0       -4.698529   -0.778308    0.747566
     17          1           0        5.214371   -3.481592    0.352561
     18          1           0        4.827358   -2.773677   -1.221169
     19          1           0        3.813864   -4.060609   -0.559527
     20          1           0        4.119976   -1.255641    0.668176
     21          1           0        3.117739   -2.529292    1.329672
     22          1           0        1.733088   -2.571923   -0.722656
     23          1           0        2.695446   -1.306975   -1.450037
     24          1           0        1.489659   -0.699250    1.248591
     25          1           0        1.087067    1.536116    0.243649
     26          1           0        1.625408    0.955424   -1.323246
     27          1           0        3.936107    0.699016   -0.450174
     28          1           0        3.381821    1.093600    1.188141
     29          1           0        4.563270    4.222411   -0.170371
     30          1           0        5.355175    2.658003   -0.501573
     31          1           0        4.838061    3.060860    1.156049
     32          1           0       -0.300737   -1.954343    0.090047
     33          1           0       -0.213164   -0.869353   -1.287813
     34          1           0       -1.058419    1.000769    0.091492
     35          1           0       -0.920238    0.024180    1.562959
     36          1           0       -3.206199    0.417258    1.838337
     37          1           0       -3.025295    1.652437   -0.695538
     38          1           0       -4.074584    2.242623    0.583267
     39          1           0       -5.033264    1.239217   -1.926515
     40          1           0       -6.004686    1.449635   -0.477587
     41          1           0       -4.583341   -1.096820   -1.385178
     42          1           0       -6.250903   -0.938754   -0.818824
     43          1           0       -4.433814   -1.811680    0.983189
     44          1           0       -5.439834   -0.438080    1.481150
 ---------------------------------------------------------------------

 SCF Done:  E(RB3LYP) =  -700.838931402     A.U. after    1 cycles

 The electronic state is 1-A.
 Alpha  occ. eigenvalues --  -19.13505 -19.12802 -10.22237 -10.22109 -10.22093
 Alpha  occ. eigenvalues --  -10.21844 -10.18599 -10.17808 -10.17494 -10.17470
 Alpha  occ. eigenvalues --  -10.17318 -10.17233 -10.17156 -10.17103 -10.16967
 Alpha  occ. eigenvalues --  -10.16933  -1.02847  -1.02173  -0.82490  -0.81474
 Alpha  occ. eigenvalues --   -0.76870  -0.74788  -0.71150  -0.70136  -0.67967
 Alpha  occ. eigenvalues --   -0.66705  -0.62948  -0.60192  -0.58032  -0.56394
 Alpha  occ. eigenvalues --   -0.56022  -0.55101  -0.49566  -0.49046  -0.47939
 Alpha  occ. eigenvalues --   -0.47426  -0.46738  -0.45327  -0.44697  -0.44021
 Alpha  occ. eigenvalues --   -0.43451  -0.41911  -0.41018  -0.40176  -0.39467
 Alpha  occ. eigenvalues --   -0.39042  -0.37492  -0.36188  -0.35903  -0.35458
 Alpha  occ. eigenvalues --   -0.34063  -0.33862  -0.33346  -0.33095  -0.32817
 Alpha  occ. eigenvalues --   -0.32675  -0.31537  -0.31437  -0.31212  -0.31106
 Alpha  occ. eigenvalues --   -0.30312  -0.29291  -0.25146  -0.24175
 Alpha virt. eigenvalues --    0.08376   0.08495   0.09018   0.10062   0.10601
 Alpha virt. eigenvalues --    0.11233   0.11898   0.12466   0.13296   0.14061
 Alpha virt. eigenvalues --    0.14751   0.15179   0.15386   0.15858   0.16284

 Mulliken charges:
               1
     1  C   -0.379991
     2  C   -0.171966
     3  C   -0.181998
     4  C   -0.002688
     5  C   -0.198055
     6  C   -0.063786
     7  O   -0.231507
     8  C   -0.226716
     9  C   -0.209646
    10  C   -0.079263
    11  O   -0.266476
    12  C    0.146435
    13  C   -0.221114
    14  C   -0.195216
    15  C   -0.192155
    16  C   -0.219513
    17  H    0.110329
    18  H    0.113372
    19  H    0.114628
    20  H    0.099460
    21  H    0.094824
    22  H    0.091560
    23  H    0.091214
    24  H    0.066532
    25  H    0.109409
    26  H    0.101040
    27  H    0.086633
    28  H    0.081420
    29  H    0.125044
    30  H    0.100895
    31  H    0.100716
    32  H    0.102267
    33  H    0.099967
    34  H    0.091167
    35  H    0.079920
    36  H    0.052656
    37  H    0.106239
    38  H    0.094379
    39  H    0.094765
    40  H    0.095400
    41  H    0.110539
    42  H    0.087571
    43  H    0.101106
    44  H    0.090602
 Sum of Mulliken charges =  -0.00000

 Dipole moment (field-independent basis, Debye):
    X=              0.8375    Y=              0.1289    Z=              0.7654  Tot=              1.1419
 Quadrupole moment (field-independent basis, Debye-Ang):
   XX=            -95.0274   YY=           -104.5504   ZZ=           -101.6829
   XY=             -1.1273   XZ=             -0.3680   YZ=              0.9396

  Exact polarizability: 192.344  -0.650 159.869   1.357   0.063 134.734
 Approx polarizability: 222.503   0.553 217.318  -0.161   0.342 212.011

                      1                      2                      3
                      A                      A                      A
 Frequencies --     19.3634                25.5739                32.8688
 Red. masses --      3.0676                 2.8589                 2.9168
 Frc consts  --      0.0007                 0.0011                 0.0019
 IR Inten    --      0.1390                 0.0625                 0.3563

                      4                      5                      6
                      A                      A                      A
 Frequencies --     45.9514                62.7435                67.5031
 Red. masses --      3.0843                 2.4181                 2.1848
 Frc consts  --      0.0038                 0.0056                 0.0059
 IR Inten    --      0.3045                 0.1046                 0.2719

                      7                      8                      9
                      A                      A                      A
 Frequencies --     85.2164                93.5670               117.4645
 Red. masses --      2.7044                 2.6760                 1.9664
 Frc consts  --      0.0116                 0.0138                 0.0160
 IR Inten    --      1.5633                 0.5743                 1.0267

                     10                     11                     12
                      A                      A                      A
 Frequencies --    133.6819               137.9351               155.9480
 Red. masses --      2.1389                 2.2470                 2.2690
 Frc consts  --      0.0225                 0.0252                 0.0325
 IR Inten    --      0.0298                 1.5221                 0.2907

                     13                     14                     15
                      A                      A                      A
 Frequencies --    169.2607               204.8886               236.2270
 Red. masses --      2.9253                 2.9097                 1.8872
 Frc consts  --      0.0494                 0.0720                 0.0620
 IR Inten    --      1.3590                 0.5464                 0.6452

                     16                     17                     18
                      A                      A                      A
 Frequencies --    240.1957               245.1358               261.6238
 Red. masses --      1.2227                 1.5724                 2.6933
 Frc consts  --      0.0416                 0.0557                 0.1086
 IR Inten    --      1.5509                 0.9174                 1.0428

                     19                     20                     21
                      A                      A                      A
 Frequencies --    283.3277               343.0925               389.3436
 Red. masses --      2.9362                 3.1193                 2.7415
 Frc consts  --      0.1389                 0.2163                 0.2449
 IR Inten    --      1.4302                 0.5196                 0.2483

                     22                     23                     24
                      A                      A                      A
 Frequencies --    422.2862               438.6848               485.1425
 Red. masses --      2.9423                 2.5068                 2.4741
 Frc consts  --      0.3091                 0.2842                 0.3431
 IR Inten    --      3.7869                 1.6211                 2.3023

                     25                     26                     27
                      A                      A                      A
 Frequencies --    504.0266               552.2371               583.2767
 Red. masses --      2.8427                 2.3365                 2.1396
 Frc consts  --      0.4255                 0.4198                 0.4289
 IR Inten    --      0.5517                 0.8145                 0.4403

                     28                     29                     30
                      A                      A                      A
 Frequencies --    706.8276               736.0911               793.3769
 Red. masses --      2.2286                 1.1064                 1.4784
 Frc consts  --      0.6560                 0.3532                 0.5483
 IR Inten    --      0.0259                 3.7918                 0.6135

                     31                     32                     33
                      A                      A                      A
 Frequencies --    795.2874               798.8983               846.6753
 Red. masses --      1.5190                 1.2789                 2.1151
 Frc consts  --      0.5660                 0.4809                 0.8933
 IR Inten    --      0.6467                 0.9837                 4.0393

                     34                     35                     36
                      A                      A                      A
 Frequencies --    861.3387               865.4278               892.1011
 Red. masses --      1.5832                 2.0099                 1.6804
 Frc consts  --      0.6921                 0.8869                 0.7879
 IR Inten    --      0.8180                 1.1146                 0.9389

                     37                     38                     39
                      A                      A                      A
 Frequencies --    897.8883               907.9479               917.5181
 Red. masses --      2.2393                 2.6555                 2.2922
 Frc consts  --      1.0637                 1.2898                 1.1369
 IR Inten    --      4.8818                 0.5334                 2.3343

                     40                     41                     42
                      A                      A                      A
 Frequencies --    940.8234               983.4691               986.4942
 Red. masses --      2.1052                 1.9692                 3.0350
 Frc consts  --      1.0979                 1.1222                 1.7402
 IR Inten    --      1.7649                 3.7536                31.3424

                     43                     44                     45
                      A                      A                      A
 Frequencies --   1000.2425              1016.1568              1037.6216
 Red. masses --      1.4789                 1.6259                 2.1775
 Frc consts  --      0.8717                 0.9892                 1.3813
 IR Inten    --      0.1298                 2.9515                 1.4833

                     46                     47                     48
                      A                      A                      A
 Frequencies --   1044.7232              1047.3676              1059.9866
 Red. masses --      2.1921                 2.2129                 1.7354
 Frc consts  --      1.4096                 1.4303                 1.1488
 IR Inten    --      0.9538                 3.6960                 0.4793

                     49                     50                     51
                      A                      A                      A
 Frequencies --   1065.6091              1081.1156              1094.3127
 Red. masses --      2.6444                 2.2286                 1.7547
 Frc consts  --      1.7692                 1.5347                 1.2380
 IR Inten    --      1.1731                18.9954                 5.3249

                     52                     53                     54
                      A                      A                      A
 Frequencies --   1116.8700              1135.2435              1153.6675
 Red. masses --      3.1999                 2.7930                 2.4721
 Frc consts  --      2.3517                 2.1208                 1.9385
 IR Inten    --    144.5982                74.4533                23.7018

                     55                     56                     57
                      A                      A                      A
 Frequencies --   1162.5811              1175.9909              1190.4758
 Red. masses --      5.7069                 1.4387                 1.5954
 Frc consts  --      4.5446                 1.1723                 1.3321
 IR Inten    --    161.3743                 2.1796                17.5325

                     58                     59                     60
                      A                      A                      A
 Frequencies --   1192.4591              1203.0815              1222.6871
 Red. masses --      1.6744                 1.7208                 1.4035
 Frc consts  --      1.4028                 1.4675                 1.2362
 IR Inten    --      4.2109                31.8727                 5.8844

                     61                     62                     63
                      A                      A                      A
 Frequencies --   1226.2930              1235.7904              1245.8388
 Red. masses --      1.5152                 1.3912                 1.3256
 Frc consts  --      1.3424                 1.2518                 1.2122
 IR Inten    --     36.0543                 2.4800                 7.9310

                     64                     65                     66
                      A                      A                      A
 Frequencies --   1251.9451              1278.5325              1284.7405
 Red. masses --      1.3983                 1.2236                 1.2243
 Frc consts  --      1.2913                 1.1785                 1.1906
 IR Inten    --      8.9505                 1.0424                 0.2372

                     67                     68                     69
                      A                      A                      A
 Frequencies --   1294.5590              1306.4454              1312.4560
 Red. masses --      1.2299                 1.2452                 1.3286
 Frc consts  --      1.2144                 1.2522                 1.3484
 IR Inten    --      6.4159                 1.7002                 0.2134

                     70                     71                     72
                      A                      A                      A
 Frequencies --   1316.6885              1321.9238              1333.4761
 Red. masses --      1.1436                 1.1370                 1.1734
 Frc consts  --      1.1681                 1.1706                 1.2293
 IR Inten    --      1.2562                 0.5928                 0.5782

                     73                     74                     75
                      A                      A                      A
 Frequencies --   1338.9676              1341.0206              1348.2218
 Red. masses --      1.2000                 1.2757                 1.4010
 Frc consts  --      1.2676                 1.3517                 1.5004
 IR Inten    --      0.9100                 0.5489                 7.0639

                     76                     77                     78
                      A                      A                      A
 Frequencies --   1355.5799              1368.3425              1381.5282
 Red. masses --      1.4881                 1.3322                 1.4366
 Frc consts  --      1.6112                 1.4697                 1.6155
 IR Inten    --      1.3214                19.7820                 1.5719

                     79                     80                     81
                      A                      A                      A
 Frequencies --   1386.0022              1397.3534              1412.6937
 Red. masses --      1.3427                 1.4738                 1.2351
 Frc consts  --      1.5197                 1.6956                 1.4523
 IR Inten    --     36.9478                 1.5327                 0.6365

                     82                     83                     84
                      A                      A                      A
 Frequencies --   1427.5501              1441.2625              1474.3077
 Red. masses --      1.4003                 1.4320                 1.0869
 Frc consts  --      1.6813                 1.7526                 1.3919
 IR Inten    --     31.7941                 3.7369                 3.9206

                     85                     86                     87
                      A                      A                      A
 Frequencies --   1477.5103              1481.1805              1483.8346
 Red. masses --      1.0935                 1.1589                 1.0791
 Frc consts  --      1.4065                 1.4980                 1.3999
 IR Inten    --      1.1676                 1.3012                 0.6705

                     88                     89                     90
                      A                      A                      A
 Frequencies --   1485.2701              1489.4030              1490.1833
 Red. masses --      1.0482                 1.0708                 1.0884
 Frc consts  --      1.3624                 1.3995                 1.4240
 IR Inten    --      4.8378                 1.2293                 3.1139

                     91                     92                     93
                      A                      A                      A
 Frequencies --   1491.9652              1496.9308              1499.3309
 Red. masses --      1.0866                 1.0696                 1.0405
 Frc consts  --      1.4251                 1.4121                 1.3782
 IR Inten    --      0.7882                 0.5238                 5.0294

                     94                     95                     96
                      A                      A                      A
 Frequencies --   1505.5878              1509.7017              1511.3956
 Red. masses --      1.0629                 1.1049                 1.0842
 Frc consts  --      1.4196                 1.4837                 1.4592
 IR Inten    --     10.1877                 2.3223                 3.1354

                     97                     98                     99
                      A                      A                      A
 Frequencies --   1528.3245              1533.7936              2939.1163
 Red. masses --      1.0867                 1.0923                 1.0670
 Frc consts  --      1.4955                 1.5140                 5.4306
 IR Inten    --      1.9405                 0.8846                39.6677

                    100                    101                    102
                      A                      A                      A
 Frequencies --   2940.8298              2964.8295              2979.3732
 Red. masses --      1.0578                 1.0420                 1.0945
 Frc consts  --      5.3901                 5.3966                 5.7243
 IR Inten    --     41.7952                70.4988                52.4215

                    103                    104                    105
                      A                      A                      A
 Frequencies --   2982.2941              2985.2769              2997.1480
 Red. masses --      1.0807                 1.0845                 1.0891
 Frc consts  --      5.6632                 5.6944                 5.7643
 IR Inten    --      8.0936                54.4003                25.2061

                    106                    107                    108
                      A                      A                      A
 Frequencies --   3005.4110              3006.9387              3020.8463
 Red. masses --      1.1029                 1.0602                 1.0662
 Frc consts  --      5.8693                 5.6481                 5.7324
 IR Inten    --     56.1678                 5.9811                 8.6349

                    109                    110                    111
                      A                      A                      A
 Frequencies --   3023.3534              3027.5459              3029.5692
 Red. masses --      1.0621                 1.0423                 1.0559
 Frc consts  --      5.7200                 5.6290                 5.7101
 IR Inten    --     17.4836                33.4336                70.9204

                    112                    113                    114
                      A                      A                      A
 Frequencies --   3035.7114              3038.1867              3038.6172
 Red. masses --      1.0678                 1.0658                 1.0947
 Frc consts  --      5.7977                 5.7963                 5.9553
 IR Inten    --     32.6890                30.7669                10.7071

                    115                    116                    117
                      A                      A                      A
 Frequencies --   3049.1765              3058.2402              3063.7769
 Red. masses --      1.0601                 1.0633                 1.0991
 Frc consts  --      5.8072                 5.8592                 6.0784
 IR Inten    --     28.9586                32.4018                16.9150

                    118                    119                    120
                      A                      A                      A
 Frequencies --   3070.0259              3077.4597              3082.2352
 Red. masses --      1.1020                 1.0993                 1.0969
 Frc consts  --      6.1193                 6.1343                 6.1398
 IR Inten    --     49.0281                40.7478                22.5226

                    121                    122                    123
                      A                      A                      A
 Frequencies --   3095.5482              3095.6925              3100.3001
 Red. masses --      1.1021                 1.1024                 1.1008
 Frc consts  --      6.2224                 6.2242                 6.2340
 IR Inten    --     61.0248                14.5478                38.8616

                    124                    125                    126
                      A                      A                      A
 Frequencies --   3104.3120              3109.3180              3109.8748
 Red. masses --      1.1010                 1.1022                 1.0954
 Frc consts  --      6.2511                 6.2783                 6.2415
 IR Inten    --     38.0217                53.9334                34.7797

 - Thermochemistry -
 -------------------
 Temperature   298.150 Kelvin.  Pressure   1.00000 Atm.
 Atom     1 has atomic number  6 and mass  12.00000

 Molecular mass:   228.20893 amu.
 Principal axes and moments of inertia in atomic units:
                           1         2         3
     Eigenvalues --  2574.15694********************
           X            0.99995  -0.00948   0.00142
           Y            0.00947   0.99994   0.00592
           Z           -0.00148  -0.00591   0.99998
 This molecule is an asymmetric top.
 Rotational symmetry number  1.
 Warning -- assumption of classical behavior for rotation
           may cause significant error
 Rotational temperatures (Kelvin)      0.03365     0.00842     0.00702
 Rotational constants (GHZ):           0.70110     0.17553     0.14626
 Zero-point vibrational energy    1060871.5 (Joules/Mol)
                                  253.55437 (Kcal/Mol)
 Warning -- explicit consideration of  27 degrees of freedom as
           vibrations may cause significant error
 Vibrational temperatures:     27.86    36.80    47.29    66.11    90.27
          (Kelvin)             97.12   122.61   134.62   169.01   192.34
                              198.46   224.37   243.53   294.79   339.88
                              345.59   352.70   376.42   407.65   493.63
                              560.18   607.58   631.17   698.01   725.18
                              794.55   839.21  1016.97  1059.07  1141.49
                             1144.24  1149.44  1218.18  1239.27  1245.16
                             1283.53  1291.86  1306.33  1320.10  1353.64
                             1414.99  1419.35  1439.13  1462.02  1492.91
                             1503.12  1506.93  1525.08  1533.17  1555.48
                             1574.47  1606.93  1633.36  1659.87  1672.69
                             1691.99  1712.83  1715.68  1730.97  1759.17
                             1764.36  1778.03  1792.48  1801.27  1839.52
                             1848.46  1862.58  1879.68  1888.33  1894.42
                             1901.95  1918.57  1926.48  1929.43  1939.79
                             1950.38  1968.74  1987.71  1994.15  2010.48
                             2032.55  2053.93  2073.66  2121.20  2125.81
                             2131.09  2134.91  2136.97  2142.92  2144.04
                             2146.61  2153.75  2157.20  2166.21  2172.12
                             2174.56  2198.92  2206.79  4228.73  4231.20
                             4265.73  4286.65  4290.86  4295.15  4312.23
                             4324.12  4326.31  4346.32  4349.93  4355.96
                             4358.87  4367.71  4371.27  4371.89  4387.08
                             4400.13  4408.09  4417.08  4427.78  4434.65
                             4453.80  4454.01  4460.64  4466.41  4473.62
                             4474.42

 Zero-point correction=                           0.404065 (Hartree/Particle)
 Thermal correction to Energy=                    0.423557
 Thermal correction to Enthalpy=                  0.424501
 Thermal correction to Gibbs Free Energy=         0.352754
 Sum of electronic and zero-point Energies=           -700.434867
 Sum of electronic and thermal Energies=              -700.415375
 Sum of electronic and thermal Enthalpies=            -700.414430
 Sum of electronic and thermal Free Energies=         -700.486177

                     E (Thermal)             CV                S
                      KCal/Mol        Cal/Mol-Kelvin    Cal/Mol-Kelvin
 Total                  265.786             70.206            151.004
 Electronic               0.000              0.000              0.000
 Translational            0.889              2.981             42.177
 Rotational               0.889              2.981             34.145
 Vibrational            264.008             64.244             74.682
 Vibration     1          0.593              1.986              6.698
 Vibration     2          0.593              1.985              6.146
 Vibration     3          0.594              1.983              5.648
 Vibration     4          0.595              1.979              4.984
 Vibration     5          0.597              1.972              4.369
 Vibration     6          0.598              1.970              4.225
 Vibration     7          0.601              1.959              3.767
 Vibration     8          0.603              1.954              3.584
 Vibration     9          0.608              1.935              3.142
 Vibration    10          0.613              1.920              2.892
 Vibration    11          0.614              1.915              2.832
 Vibration    12          0.620              1.896              2.598
 Vibration    13          0.625              1.880              2.444
 Vibration    14          0.640              1.833              2.089
 Vibration    15          0.655              1.785              1.831
 Vibration    16          0.657              1.779              1.801
 Vibration    17          0.660              1.771              1.765
 Vibration    18          0.669              1.743              1.651
 Vibration    19          0.682              1.705              1.513
 Vibration    20          0.722              1.589              1.198
 Vibration    21          0.757              1.493              1.003
 Vibration    22          0.785              1.422              0.884
 Vibration    23          0.799              1.386              0.831
 Vibration    24          0.841              1.283              0.696
 Vibration    25          0.859              1.241              0.648
 Vibration    26          0.908              1.135              0.540
 Vibration    27          0.940              1.068              0.479

 Optimization completed.
    -- Stationary point found.
 Normal termination of Gaussian 16 at Tue May 23 04:01:30 2023.
