 Gaussian 16, Revision A.03,
 Gaussian 16:  ES64L-G16RevA.03 25-Dec-2016

 -----------------------------
 # opt freq b3lyp/6-31g(2df,p)
 -----------------------------

 -------------------
 Title Card Required
 -------------------
 Symbolic Z-matrix:
 Charge =  0 Multiplicity = 1

 SCF Done:  E(RB3LYP) =  -352.376907807     A.U. after   13 cycles
 SCF Done:  E(RB3LYP) =  -352.428361026     A.U. after   11 cycles
 SCF Done:  E(RB3LYP) =  -352.495270669     A.U. after   12 cycles
 SCF Done:  E(RB3LYP) =  -352.525455633     A.U. after   11 cycles
 SCF Done:  E(RB3LYP) =  -352.544997457     A.U. after   10 cycles
 SCF Done:  E(RB3LYP) =  -352.547172533     A.U. after   10 cycles
 SCF Done:  E(RB3LYP) =  -352.548099551     A.U. after   10 cycles
 SCF Done:  E(RB3LYP) =  -352.548739641     A.U. after    9 cycles
 SCF Done:  E(RB3LYP) =  -352.549432840     A.U. after   10 cycles
 SCF Done:  E(RB3LYP) =  -352.549600662     A.U. after    9 cycles
 SCF Done:  E(RB3LYP) =  -352.549631243     A.U. after    8 cycles
 SCF Done:  E(RB3LYP) =  -352.549634789     A.U. after    7 cycles
 SCF Done:  E(RB3LYP) =  -352.549636104     A.U. after    7 cycles
 SCF Done:  E(RB3LYP) =  -352.549636851     A.U. after    7 cycles
 SCF Done:  E(RB3LYP) =  -352.549637008     A.U. after    6 cycles
 SCF Done:  E(RB3LYP) =  -352.549637048     A.U. after    5 cycles
 Optimization completed.
    -- Stationary point found.
 Normal termination of Gaussian 16 at Sun May 28 14:00:11 2023.

 ----------------------------------------------------------------------
 #N Geom=AllCheck Guess=TCheck SCRF=Check GenChk RB3LYP/6-31G(2df,p) Fr
 eq
 ----------------------------------------------------------------------

 Structure from the checkpoint file:  "CCCCC12CCqC1rC2.chk"
 -------------------
 Title Card Required
 -------------------
 Charge =  0 Multiplicity = 1

                         Standard orientation:
 ---------------------------------------------------------------------
 Center     Atomic      Atomic             Coordinates (Angstroms)
 Number     Number       Type             X           Y           Z
 ---------------------------------------------------------------------
      1          6           0        3.717372    0.281670   -0.173087
      2          6           0        2.410630   -0.325596    0.343941
      3          6           0        1.168021    0.481699   -0.059485
      4          6           0       -0.120562   -0.100841    0.507599
      5          6           0       -0.804716   -1.372687   -0.092611
      6          6           0       -2.086459   -0.940940    0.672364
      7          6           0       -1.538401    0.364619    0.014810
      8          6           0       -2.126035    1.749019    0.101253
      9          6           0       -1.314359   -0.496476   -1.270760
     10          1           0        4.584048   -0.314100    0.130498
     11          1           0        3.860751    1.297926    0.211166
     12          1           0        3.721337    0.340750   -1.267350
     13          1           0        2.450716   -0.404567    1.438475
     14          1           0        2.310095   -1.353010   -0.028979
     15          1           0        1.131640    0.556928   -1.152166
     16          1           0        1.278328    1.511894    0.308838
     17          1           0       -0.045578   -0.136221    1.603270
     18          1           0       -0.389985   -2.379877   -0.154276
     19          1           0       -2.051016   -0.991781    1.765108
     20          1           0       -3.037065   -1.318315    0.283887
     21          1           0       -3.138111    1.774993   -0.317893
     22          1           0       -2.186105    2.087683    1.141785
     23          1           0       -1.517779    2.473600   -0.451770
     24          1           0       -0.583918   -0.141754   -1.999879
     25          1           0       -2.220309   -0.846946   -1.774848
 ---------------------------------------------------------------------

 SCF Done:  E(RB3LYP) =  -352.549637048     A.U. after    1 cycles

 The electronic state is 1-A.
 Alpha  occ. eigenvalues --  -10.19746 -10.19093 -10.18146 -10.17684 -10.17603
 Alpha  occ. eigenvalues --  -10.17521 -10.17145 -10.17109 -10.16923  -0.90325
 Alpha  occ. eigenvalues --   -0.78178  -0.72031  -0.70339  -0.65817  -0.62170
 Alpha  occ. eigenvalues --   -0.58638  -0.57272  -0.51592  -0.46688  -0.45452
 Alpha  occ. eigenvalues --   -0.44288  -0.43463  -0.40986  -0.40584  -0.39675
 Alpha  occ. eigenvalues --   -0.37284  -0.36612  -0.33739  -0.33538  -0.32442
 Alpha  occ. eigenvalues --   -0.30637  -0.30148  -0.29407  -0.29086  -0.27991
 Alpha virt. eigenvalues --    0.09331   0.09996   0.12048   0.12277   0.13959
 Alpha virt. eigenvalues --    0.14426   0.15242   0.15356   0.15612   0.16016
 Alpha virt. eigenvalues --    0.16680   0.17124   0.17871   0.18378   0.18541

 Mulliken charges:
               1
     1  C   -0.380734
     2  C   -0.154424
     3  C   -0.237416
     4  C    0.032587
     5  C   -0.055240
     6  C   -0.255882
     7  C    0.320416
     8  C   -0.515677
     9  C   -0.262971
    10  H    0.109580
    11  H    0.112164
    12  H    0.112533
    13  H    0.093075
    14  H    0.097314
    15  H    0.092861
    16  H    0.090641
    17  H    0.051658
    18  H    0.064060
    19  H    0.081999
    20  H    0.082243
    21  H    0.116819
    22  H    0.115738
    23  H    0.117472
    24  H    0.088136
    25  H    0.083047
 Sum of Mulliken charges =   0.00000

 Dipole moment (field-independent basis, Debye):
    X=              0.0271    Y=              0.1966    Z=              0.0304  Tot=              0.2008
 Quadrupole moment (field-independent basis, Debye-Ang):
   XX=            -58.4495   YY=            -58.3970   ZZ=            -57.8583
   XY=             -0.3435   XZ=              0.2316   YZ=              0.2240

  Exact polarizability: 109.150   1.174  88.684   0.167  -0.038  85.252
 Approx polarizability: 134.965   1.683 129.974   0.929   0.398 132.684

                      1                      2                      3
                      A                      A                      A
 Frequencies --     61.8795                80.8712               113.0390
 Red. masses --      1.9744                 2.1573                 2.7846
 Frc consts  --      0.0045                 0.0083                 0.0210
 IR Inten    --      0.0037                 0.0114                 0.0184

                      4                      5                      6
                      A                      A                      A
 Frequencies --    198.8101               227.5448               243.9873
 Red. masses --      1.0334                 2.7590                 1.1213
 Frc consts  --      0.0241                 0.0842                 0.0393
 IR Inten    --      0.0089                 0.0163                 0.0019

                      7                      8                      9
                      A                      A                      A
 Frequencies --    286.8123               309.8136               357.8239
 Red. masses --      2.3176                 2.6581                 2.4532
 Frc consts  --      0.1123                 0.1503                 0.1851
 IR Inten    --      0.0202                 0.0354                 0.1563

                     10                     11                     12
                      A                      A                      A
 Frequencies --    418.7458               567.3739               590.9053
 Red. masses --      2.6984                 1.8278                 2.4955
 Frc consts  --      0.2788                 0.3467                 0.5134
 IR Inten    --      0.1038                 0.6568                 1.5443

                     13                     14                     15
                      A                      A                      A
 Frequencies --    628.6877               734.5015               763.0797
 Red. masses --      3.0173                 1.3609                 2.0607
 Frc consts  --      0.7027                 0.4326                 0.7070
 IR Inten    --      0.0386                 1.9361                 0.5767

                     16                     17                     18
                      A                      A                      A
 Frequencies --    787.4869               837.6255               889.2997
 Red. masses --      2.3383                 2.0457                 3.0215
 Frc consts  --      0.8544                 0.8457                 1.4079
 IR Inten    --      0.0240                 0.2624                 0.5633

                     19                     20                     21
                      A                      A                      A
 Frequencies --    905.0020               907.2027               911.4164
 Red. masses --      1.8594                 1.8985                 1.4272
 Frc consts  --      0.8973                 0.9206                 0.6985
 IR Inten    --      0.9461                 1.0426                 0.0821

                     22                     23                     24
                      A                      A                      A
 Frequencies --    953.7973              1004.8675              1015.4063
 Red. masses --      2.1634                 1.0835                 1.3050
 Frc consts  --      1.1596                 0.6446                 0.7928
 IR Inten    --      0.1724                 0.7505                 0.5167

                     25                     26                     27
                      A                      A                      A
 Frequencies --   1024.7884              1044.9812              1055.0406
 Red. masses --      1.1605                 2.4405                 1.4538
 Frc consts  --      0.7180                 1.5702                 0.9534
 IR Inten    --      1.8336                 0.3268                 0.7974

                     28                     29                     30
                      A                      A                      A
 Frequencies --   1082.8640              1123.0689              1134.2210
 Red. masses --      1.6107                 1.8552                 1.5800
 Frc consts  --      1.1128                 1.3787                 1.1976
 IR Inten    --      2.1972                 1.3318                 0.2158

                     31                     32                     33
                      A                      A                      A
 Frequencies --   1150.6061              1157.6893              1179.5298
 Red. masses --      1.5467                 2.2494                 1.6505
 Frc consts  --      1.2064                 1.7762                 1.3529
 IR Inten    --      0.9458                 2.1214                 0.1561

                     34                     35                     36
                      A                      A                      A
 Frequencies --   1203.4576              1227.5928              1229.4071
 Red. masses --      1.6513                 1.7147                 1.9038
 Frc consts  --      1.4091                 1.5225                 1.6954
 IR Inten    --      0.9950                 2.5691                 2.4471

                     37                     38                     39
                      A                      A                      A
 Frequencies --   1249.0889              1267.1707              1303.9083
 Red. masses --      1.8508                 1.4122                 1.5138
 Frc consts  --      1.7014                 1.3360                 1.5164
 IR Inten    --      0.0878                 0.2438                 3.9510

                     40                     41                     42
                      A                      A                      A
 Frequencies --   1323.5233              1330.5912              1384.7710
 Red. masses --      2.2175                 1.1612                 1.4792
 Frc consts  --      2.2886                 1.2112                 1.6712
 IR Inten    --     22.6789                 4.6964                 0.9105

                     43                     44                     45
                      A                      A                      A
 Frequencies --   1408.0869              1411.3292              1431.2397
 Red. masses --      1.3395                 1.2461                 1.3889
 Frc consts  --      1.5648                 1.4624                 1.6763
 IR Inten    --      2.7854                 1.4395                 5.8388

                     46                     47                     48
                      A                      A                      A
 Frequencies --   1480.6407              1489.5555              1490.5929
 Red. masses --      1.0819                 1.0488                 1.0481
 Frc consts  --      1.3975                 1.3711                 1.3720
 IR Inten    --      1.0869                 3.8934                 3.6594

                     49                     50                     51
                      A                      A                      A
 Frequencies --   1492.3860              1499.4710              1503.3086
 Red. masses --      1.0625                 1.0411                 1.0914
 Frc consts  --      1.3943                 1.3791                 1.4532
 IR Inten    --      0.7421                 5.4340                 0.1124

                     52                     53                     54
                      A                      A                      A
 Frequencies --   1510.9859              1544.9504              3000.8351
 Red. masses --      1.0887                 1.1759                 1.0777
 Frc consts  --      1.4645                 1.6536                 5.7180
 IR Inten    --      3.3005                 1.8310                19.2941

                     55                     56                     57
                      A                      A                      A
 Frequencies --   3006.6489              3016.5359              3022.4460
 Red. masses --      1.0698                 1.0620                 1.0354
 Frc consts  --      5.6978                 5.6936                 5.5729
 IR Inten    --     24.8335                30.2146                33.7220

                     58                     59                     60
                      A                      A                      A
 Frequencies --   3027.1031              3038.0584              3040.9467
 Red. masses --      1.0361                 1.0547                 1.0916
 Frc consts  --      5.5935                 5.7355                 5.9475
 IR Inten    --     38.5761                54.3452                10.7774

                     61                     62                     63
                      A                      A                      A
 Frequencies --   3052.4296              3065.3983              3089.1496
 Red. masses --      1.0621                 1.0965                 1.1007
 Frc consts  --      5.8304                 6.0707                 6.1889
 IR Inten    --     23.8661                43.3692                19.6900

                     64                     65                     66
                      A                      A                      A
 Frequencies --   3089.8866              3093.6528              3098.2951
 Red. masses --      1.1009                 1.1020                 1.0954
 Frc consts  --      6.1927                 6.2139                 6.1951
 IR Inten    --     16.4430                48.9610                20.2723

                     67                     68                     69
                      A                      A                      A
 Frequencies --   3099.2877              3102.6744              3118.5028
 Red. masses --      1.0979                 1.1096                 1.1042
 Frc consts  --      6.2133                 6.2936                 6.3270
 IR Inten    --     86.0508                61.2980                49.5563

 - Thermochemistry -
 -------------------
 Temperature   298.150 Kelvin.  Pressure   1.00000 Atm.
 Atom     1 has atomic number  6 and mass  12.00000

 Molecular mass:   124.12520 amu.
 Principal axes and moments of inertia in atomic units:
                           1         2         3
     Eigenvalues --   567.367632020.337902232.00284
           X            0.99999  -0.00391  -0.00202
           Y            0.00389   0.99997  -0.00678
           Z            0.00205   0.00677   0.99997
 This molecule is an asymmetric top.
 Rotational symmetry number  1.
 Warning -- assumption of classical behavior for rotation
           may cause significant error
 Rotational temperatures (Kelvin)      0.15266     0.04287     0.03881
 Rotational constants (GHZ):           3.18090     0.89329     0.80857
 Zero-point vibrational energy     601079.7 (Joules/Mol)
                                  143.66150 (Kcal/Mol)
 Warning -- explicit consideration of  12 degrees of freedom as
           vibrations may cause significant error
 Vibrational temperatures:     89.03   116.36   162.64   286.04   327.39
          (Kelvin)            351.04   412.66   445.75   514.83   602.48
                              816.32   850.18   904.54  1056.78  1097.90
                             1133.02  1205.16  1279.50  1302.10  1305.26
                             1311.32  1372.30  1445.78  1460.94  1474.44
                             1503.49  1517.97  1558.00  1615.85  1631.89
                             1655.47  1665.66  1697.08  1731.51  1766.23
                             1768.84  1797.16  1823.18  1876.03  1904.25
                             1914.42  1992.38  2025.92  2030.59  2059.23
                             2130.31  2143.14  2144.63  2147.21  2157.40
                             2162.93  2173.97  2222.84  4317.53  4325.90
                             4340.12  4348.63  4355.33  4371.09  4375.24
                             4391.77  4410.42  4444.60  4445.66  4451.08
                             4457.76  4459.18  4464.06  4486.83

 Zero-point correction=                           0.228939 (Hartree/Particle)
 Thermal correction to Energy=                    0.238682
 Thermal correction to Enthalpy=                  0.239626
 Thermal correction to Gibbs Free Energy=         0.194025
 Sum of electronic and zero-point Energies=           -352.320698
 Sum of electronic and thermal Energies=              -352.310955
 Sum of electronic and thermal Enthalpies=            -352.310011
 Sum of electronic and thermal Free Energies=         -352.355612

                     E (Thermal)             CV                S
                      KCal/Mol        Cal/Mol-Kelvin    Cal/Mol-Kelvin
 Total                  149.775             37.448             95.975
 Electronic               0.000              0.000              0.000
 Translational            0.889              2.981             40.362
 Rotational               0.889              2.981             29.327
 Vibrational            147.998             31.486             26.286
 Vibration     1          0.597              1.973              4.396
 Vibration     2          0.600              1.962              3.870
 Vibration     3          0.607              1.939              3.216
 Vibration     4          0.637              1.842              2.144
 Vibration     5          0.651              1.799              1.898
 Vibration     6          0.659              1.773              1.774
 Vibration     7          0.684              1.698              1.493
 Vibration     8          0.699              1.655              1.363
 Vibration     9          0.733              1.559              1.132
 Vibration    10          0.782              1.430              0.896
 Vibration    11          0.923              1.102              0.509
 Vibration    12          0.948              1.051              0.466

 Optimization completed.
    -- Stationary point found.
 Normal termination of Gaussian 16 at Sun May 28 14:38:58 2023.
