 Gaussian 16, Revision A.03,
 Gaussian 16:  ES64L-G16RevA.03 25-Dec-2016

 -----------------------------
 # opt freq b3lyp/6-31g(2df,p)
 -----------------------------

 -------------------
 Title Card Required
 -------------------
 Symbolic Z-matrix:
 Charge =  0 Multiplicity = 1

 SCF Done:  E(RB3LYP) =  -894.005329032     A.U. after   12 cycles
 SCF Done:  E(RB3LYP) =  -894.013128624     A.U. after   11 cycles
 SCF Done:  E(RB3LYP) =  -894.014282243     A.U. after    9 cycles
 SCF Done:  E(RB3LYP) =  -894.014410653     A.U. after    9 cycles
 SCF Done:  E(RB3LYP) =  -894.014434255     A.U. after    8 cycles
 SCF Done:  E(RB3LYP) =  -894.014440391     A.U. after    8 cycles
 SCF Done:  E(RB3LYP) =  -894.014443052     A.U. after    7 cycles
 SCF Done:  E(RB3LYP) =  -894.014443462     A.U. after    6 cycles
 SCF Done:  E(RB3LYP) =  -894.014443533     A.U. after    6 cycles
 SCF Done:  E(RB3LYP) =  -894.014443551     A.U. after    6 cycles
 SCF Done:  E(RB3LYP) =  -894.014443561     A.U. after    6 cycles
 Optimization completed.
    -- Stationary point found.
 Normal termination of Gaussian 16 at Tue May 23 03:06:42 2023.

 ----------------------------------------------------------------------
 #N Geom=AllCheck Guess=TCheck SCRF=Check GenChk RB3LYP/6-31G(2df,p) Fr
 eq
 ----------------------------------------------------------------------

 Structure from the checkpoint file:  "CCCCCCCCOCCCCOC1CCCOC1.chk"
 -------------------
 Title Card Required
 -------------------
 Charge =  0 Multiplicity = 1

                         Standard orientation:
 ---------------------------------------------------------------------
 Center     Atomic      Atomic             Coordinates (Angstroms)
 Number     Number       Type             X           Y           Z
 ---------------------------------------------------------------------
      1          6           0       11.035685    1.109826    0.062573
      2          6           0        9.884951    0.101582    0.121181
      3          6           0        8.502492    0.755977    0.025565
      4          6           0        7.344823   -0.246166    0.082522
      5          6           0        5.962976    0.409159   -0.012644
      6          6           0        4.806144   -0.594662    0.041923
      7          6           0        3.427518    0.066379   -0.052431
      8          6           0        2.284925   -0.938782   -0.001870
      9          8           0        1.060411   -0.242388   -0.092886
     10          6           0       -0.068867   -1.086535   -0.060946
     11          6           0       -1.323010   -0.228499   -0.162691
     12          6           0       -2.607163   -1.061633   -0.141440
     13          6           0       -3.862795   -0.203762   -0.242833
     14          8           0       -4.978398   -1.078909   -0.253149
     15          6           0       -6.278073   -0.512570   -0.168471
     16          6           0       -6.577699    0.595265   -1.186185
     17          6           0       -8.022049    1.085930   -0.994569
     18          6           0       -8.260725    1.463886    0.468632
     19          8           0       -7.964603    0.387196    1.343017
     20          6           0       -6.610704   -0.023314    1.252235
     21          1           0       12.008445    0.612943    0.133283
     22          1           0       10.970885    1.832702    0.883606
     23          1           0       11.018657    1.675888   -0.875575
     24          1           0        9.948706   -0.473666    1.054507
     25          1           0        9.995895   -0.629002   -0.691237
     26          1           0        8.438612    1.332816   -0.907943
     27          1           0        8.390947    1.487350    0.838532
     28          1           0        7.409577   -0.823014    1.015877
     29          1           0        7.456913   -0.976815   -0.730934
     30          1           0        5.897581    0.986767   -0.945165
     31          1           0        5.849000    1.138084    0.801713
     32          1           0        4.872694   -1.172890    0.974158
     33          1           0        4.920516   -1.322625   -0.773474
     34          1           0        3.346881    0.639172   -0.984470
     35          1           0        3.296726    0.784550    0.766346
     36          1           0        2.325935   -1.520244    0.936306
     37          1           0        2.375141   -1.664467   -0.829629
     38          1           0       -0.082753   -1.676065    0.872838
     39          1           0       -0.031823   -1.810780   -0.893907
     40          1           0       -1.265870    0.360643   -1.086184
     41          1           0       -1.319670    0.489823    0.666395
     42          1           0       -2.664030   -1.654027    0.779815
     43          1           0       -2.611782   -1.777326   -0.972629
     44          1           0       -3.827640    0.400424   -1.162319
     45          1           0       -3.905619    0.496968    0.604749
     46          1           0       -6.947465   -1.356499   -0.375689
     47          1           0       -6.413758    0.226889   -2.204542
     48          1           0       -5.892012    1.438450   -1.032222
     49          1           0       -8.726573    0.293354   -1.274120
     50          1           0       -8.228021    1.947351   -1.640171
     51          1           0       -9.308845    1.720557    0.647644
     52          1           0       -7.647169    2.343799    0.732402
     53          1           0       -6.476487   -0.836728    1.970185
     54          1           0       -5.943449    0.805936    1.542691
 ---------------------------------------------------------------------

 SCF Done:  E(RB3LYP) =  -894.014443561     A.U. after    1 cycles

 The electronic state is 1-A.
 Alpha  occ. eigenvalues --  -19.13665 -19.13487 -19.13233 -10.22701 -10.22578
 Alpha  occ. eigenvalues --  -10.22485 -10.22267 -10.22092 -10.22043 -10.18458
 Alpha  occ. eigenvalues --  -10.18299 -10.17966 -10.17932 -10.17751 -10.17536
 Alpha  occ. eigenvalues --  -10.17490 -10.17442 -10.17386 -10.17322 -10.16946
 Alpha  occ. eigenvalues --   -1.03378  -1.02721  -1.02208  -0.80890  -0.80260
 Alpha  occ. eigenvalues --   -0.79060  -0.78110  -0.75776  -0.74393  -0.71384
 Alpha  occ. eigenvalues --   -0.68553  -0.64708  -0.64309  -0.62363  -0.60463
 Alpha  occ. eigenvalues --   -0.59135  -0.58371  -0.57346  -0.56954  -0.55845
 Alpha  occ. eigenvalues --   -0.50257  -0.49451  -0.48703  -0.48256  -0.47635
 Alpha  occ. eigenvalues --   -0.47433  -0.46587  -0.45108  -0.44721  -0.43940
 Alpha  occ. eigenvalues --   -0.43302  -0.42555  -0.42367  -0.41126  -0.40442
 Alpha  occ. eigenvalues --   -0.40005  -0.38982  -0.38185  -0.38026  -0.37531
 Alpha  occ. eigenvalues --   -0.36370  -0.36154  -0.35506  -0.35478  -0.35175
 Alpha  occ. eigenvalues --   -0.33855  -0.33473  -0.33289  -0.33114  -0.32649
 Alpha  occ. eigenvalues --   -0.32034  -0.31964  -0.31704  -0.31058  -0.30204
 Alpha  occ. eigenvalues --   -0.29845  -0.29578  -0.26988  -0.24941  -0.23216
 Alpha virt. eigenvalues --    0.08543   0.08767   0.09167   0.09529   0.09935
 Alpha virt. eigenvalues --    0.10469   0.10587   0.11335   0.11826   0.11979
 Alpha virt. eigenvalues --    0.12561   0.12967   0.13727   0.14146   0.14827

 Mulliken charges:
               1
     1  C   -0.379052
     2  C   -0.162947
     3  C   -0.158110
     4  C   -0.179036
     5  C   -0.180283
     6  C   -0.182592
     7  C   -0.198509
     8  C   -0.052085
     9  O   -0.249279
    10  C   -0.050921
    11  C   -0.203170
    12  C   -0.194067
    13  C   -0.075637
    14  O   -0.271190
    15  C    0.131788
    16  C   -0.233514
    17  C   -0.214805
    18  C   -0.061894
    19  O   -0.242868
    20  C   -0.103708
    21  H    0.109666
    22  H    0.112536
    23  H    0.112504
    24  H    0.092849
    25  H    0.092812
    26  H    0.090067
    27  H    0.090115
    28  H    0.090411
    29  H    0.090357
    30  H    0.092554
    31  H    0.092626
    32  H    0.092862
    33  H    0.092761
    34  H    0.102693
    35  H    0.102841
    36  H    0.081037
    37  H    0.080951
    38  H    0.082689
    39  H    0.082746
    40  H    0.105228
    41  H    0.104780
    42  H    0.104350
    43  H    0.106512
    44  H    0.091099
    45  H    0.089138
    46  H    0.089196
    47  H    0.101763
    48  H    0.098281
    49  H    0.107361
    50  H    0.096265
    51  H    0.106360
    52  H    0.082086
    53  H    0.111885
    54  H    0.082497
 Sum of Mulliken charges =  -0.00000

 Dipole moment (field-independent basis, Debye):
    X=              0.7942    Y=              0.5961    Z=             -0.8550  Tot=              1.3104
 Quadrupole moment (field-independent basis, Debye-Ang):
   XX=           -130.7612   YY=           -127.1928   ZZ=           -127.0541
   XY=            -10.3627   XZ=              9.0506   YZ=             -0.6091

  Exact polarizability: 267.526  -3.236 171.987   2.010  -1.936 167.291
 Approx polarizability: 276.344  -0.681 264.053   0.939  -1.734 258.912

                      1                      2                      3
                      A                      A                      A
 Frequencies --     11.5491                16.2115                17.5010
 Red. masses --      3.6986                 2.1252                 4.3392
 Frc consts  --      0.0003                 0.0003                 0.0008
 IR Inten    --      0.0358                 0.4108                 0.0766

                      4                      5                      6
                      A                      A                      A
 Frequencies --     30.6250                42.2792                48.8646
 Red. masses --      3.1192                 2.4088                 3.5318
 Frc consts  --      0.0017                 0.0025                 0.0050
 IR Inten    --      0.1806                 0.0370                 0.2540

                      7                      8                      9
                      A                      A                      A
 Frequencies --     59.4291                77.2017                89.0851
 Red. masses --      2.5599                 2.0598                 3.6227
 Frc consts  --      0.0053                 0.0072                 0.0169
 IR Inten    --      0.2769                 0.2276                 0.3496

                     10                     11                     12
                      A                      A                      A
 Frequencies --     92.3635               109.8437               126.8748
 Red. masses --      2.3136                 2.1835                 2.7309
 Frc consts  --      0.0116                 0.0155                 0.0259
 IR Inten    --      0.2974                 0.0504                 3.6306

                     13                     14                     15
                      A                      A                      A
 Frequencies --    130.1451               136.3102               140.1060
 Red. masses --      4.3663                 2.6343                 2.0673
 Frc consts  --      0.0436                 0.0288                 0.0239
 IR Inten    --      0.5646                 0.0756                 0.0624

                     16                     17                     18
                      A                      A                      A
 Frequencies --    153.7006               164.2895               175.1449
 Red. masses --      2.3931                 2.0273                 2.6727
 Frc consts  --      0.0333                 0.0322                 0.0483
 IR Inten    --      0.3711                 0.0418                 1.6358

                     19                     20                     21
                      A                      A                      A
 Frequencies --    189.1069               235.6466               242.1563
 Red. masses --      3.3912                 2.1199                 3.8333
 Frc consts  --      0.0715                 0.0694                 0.1324
 IR Inten    --      0.0673                 2.1167                 0.4104

                     22                     23                     24
                      A                      A                      A
 Frequencies --    247.4702               271.2536               322.9664
 Red. masses --      1.1205                 3.9410                 4.0138
 Frc consts  --      0.0404                 0.1708                 0.2467
 IR Inten    --      0.0001                 0.2087                 4.5314

                     25                     26                     27
                      A                      A                      A
 Frequencies --    336.6023               364.4141               369.2511
 Red. masses --      3.2829                 3.6908                 2.5878
 Frc consts  --      0.2192                 0.2888                 0.2079
 IR Inten    --      6.1989                 0.5859                 3.6873

                     28                     29                     30
                      A                      A                      A
 Frequencies --    423.3015               440.8501               452.7584
 Red. masses --      2.6405                 3.8049                 3.4618
 Frc consts  --      0.2788                 0.4357                 0.4181
 IR Inten    --      1.1058                 0.2534                 2.7181

                     31                     32                     33
                      A                      A                      A
 Frequencies --    460.0347               521.5938               522.4444
 Red. masses --      2.9729                 2.5620                 3.1582
 Frc consts  --      0.3707                 0.4107                 0.5079
 IR Inten    --      0.5798                 1.0842                 2.5721

                     34                     35                     36
                      A                      A                      A
 Frequencies --    544.1147               645.2793               731.5697
 Red. masses --      2.4562                 3.7846                 1.0604
 Frc consts  --      0.4284                 0.9285                 0.3344
 IR Inten    --      7.6364                 3.9939                 4.7408

                     37                     38                     39
                      A                      A                      A
 Frequencies --    737.2533               754.8087               760.1863
 Red. masses --      1.0783                 1.0724                 1.1117
 Frc consts  --      0.3453                 0.3600                 0.3785
 IR Inten    --      0.0913                 1.2677                 0.8897

                     40                     41                     42
                      A                      A                      A
 Frequencies --    806.3924               812.6205               818.4167
 Red. masses --      1.1588                 2.0885                 1.1625
 Frc consts  --      0.4440                 0.8126                 0.4588
 IR Inten    --      0.1795                 0.6572                 0.1816

                     43                     44                     45
                      A                      A                      A
 Frequencies --    868.4812               872.7629               875.5951
 Red. masses --      1.5050                 2.4334                 1.1964
 Frc consts  --      0.6688                 1.0921                 0.5404
 IR Inten    --      2.7298                 5.1701                 0.0383

                     46                     47                     48
                      A                      A                      A
 Frequencies --    897.7506               929.5274               946.3637
 Red. masses --      1.9544                 2.5408                 1.1741
 Frc consts  --      0.9281                 1.2934                 0.6196
 IR Inten    --      0.7822                20.5719                 0.5449

                     49                     50                     51
                      A                      A                      A
 Frequencies --    957.4141               962.4620               980.4682
 Red. masses --      1.1824                 3.0019                 1.7470
 Frc consts  --      0.6386                 1.6384                 0.9895
 IR Inten    --      0.7738                 6.6904                 7.6687

                     52                     53                     54
                      A                      A                      A
 Frequencies --    991.5210              1004.3960              1010.3821
 Red. masses --      5.0105                 3.7787                 2.4342
 Frc consts  --      2.9023                 2.2460                 1.4641
 IR Inten    --      8.3321                 7.9858                19.2782

                     55                     56                     57
                      A                      A                      A
 Frequencies --   1023.8430              1031.8181              1036.4180
 Red. masses --      3.7902                 1.1026                 1.8595
 Frc consts  --      2.3409                 0.6916                 1.1769
 IR Inten    --      0.9750                 0.0067                14.0931

                     58                     59                     60
                      A                      A                      A
 Frequencies --   1047.9416              1053.5838              1062.5344
 Red. masses --      3.1364                 2.9561                 2.4093
 Frc consts  --      2.0294                 1.9333                 1.6026
 IR Inten    --      0.4485                 3.1449                 2.4259

                     61                     62                     63
                      A                      A                      A
 Frequencies --   1069.3674              1071.7305              1083.8074
 Red. masses --      2.2401                 2.3061                 2.6711
 Frc consts  --      1.5093                 1.5606                 1.8486
 IR Inten    --      0.4717                 0.0111                 0.9710

                     64                     65                     66
                      A                      A                      A
 Frequencies --   1113.2399              1122.7905              1132.2488
 Red. masses --      3.2811                 3.0196                 3.8366
 Frc consts  --      2.3958                 2.2428                 2.8979
 IR Inten    --     47.9688                 0.5175                31.9785

                     67                     68                     69
                      A                      A                      A
 Frequencies --   1146.6907              1149.5139              1161.9835
 Red. masses --      5.5971                 3.4996                 7.6519
 Frc consts  --      4.3362                 2.7246                 6.0872
 IR Inten    --    426.6613                 6.6036               186.7599

                     70                     71                     72
                      A                      A                      A
 Frequencies --   1179.8151              1184.8054              1198.1951
 Red. masses --      1.7636                 2.1733                 1.4513
 Frc consts  --      1.4464                 1.7975                 1.2276
 IR Inten    --      0.5628                19.9367                17.2544

                     73                     74                     75
                      A                      A                      A
 Frequencies --   1200.4190              1219.6996              1229.8139
 Red. masses --      1.6190                 1.4796                 1.4061
 Frc consts  --      1.3745                 1.2969                 1.2530
 IR Inten    --      0.8926                 2.0524                 8.2567

                     76                     77                     78
                      A                      A                      A
 Frequencies --   1239.8526              1241.0875              1261.4071
 Red. masses --      1.3724                 1.4136                 1.3515
 Frc consts  --      1.2430                 1.2828                 1.2670
 IR Inten    --     10.1955                 1.0893                 1.2731

                     79                     80                     81
                      A                      A                      A
 Frequencies --   1267.9250              1285.8033              1290.1612
 Red. masses --      1.3180                 1.2038                 1.3230
 Frc consts  --      1.2484                 1.1726                 1.2975
 IR Inten    --      3.6830                 0.5906                 1.3026

                     82                     83                     84
                      A                      A                      A
 Frequencies --   1293.5407              1298.3353              1311.1836
 Red. masses --      1.2133                 1.2285                 1.0670
 Frc consts  --      1.1961                 1.2201                 1.0807
 IR Inten    --      9.7984                 0.5356                 0.1644

                     85                     86                     87
                      A                      A                      A
 Frequencies --   1313.5492              1315.7263              1324.6764
 Red. masses --      1.0920                 1.1632                 1.2107
 Frc consts  --      1.1101                 1.1864                 1.2517
 IR Inten    --      0.1080                 0.9098                 4.0185

                     88                     89                     90
                      A                      A                      A
 Frequencies --   1325.6266              1333.4827              1337.6408
 Red. masses --      1.0669                 1.1130                 1.2697
 Frc consts  --      1.1046                 1.1660                 1.3386
 IR Inten    --      0.0951                 0.0341                 1.9342

                     91                     92                     93
                      A                      A                      A
 Frequencies --   1337.9037              1337.9364              1356.6381
 Red. masses --      1.0933                 1.3421                 1.2512
 Frc consts  --      1.1531                 1.4155                 1.3568
 IR Inten    --      0.2212                 5.6997                 0.8468

                     94                     95                     96
                      A                      A                      A
 Frequencies --   1365.6772              1372.8724              1379.7773
 Red. masses --      1.3860                 1.3682                 1.4421
 Frc consts  --      1.5231                 1.5194                 1.6176
 IR Inten    --      4.5655                 5.4442                 0.8797

                     97                     98                     99
                      A                      A                      A
 Frequencies --   1386.5941              1400.2800              1402.2727
 Red. masses --      1.3203                 1.5434                 1.5956
 Frc consts  --      1.4956                 1.7831                 1.8486
 IR Inten    --      6.8232                15.7327                 3.3012

                    100                    101                    102
                      A                      A                      A
 Frequencies --   1405.2468              1407.7002              1413.5478
 Red. masses --      1.3409                 1.4892                 1.2612
 Frc consts  --      1.5601                 1.7387                 1.4848
 IR Inten    --      5.7811                51.1480                 1.2061

                    103                    104                    105
                      A                      A                      A
 Frequencies --   1419.1171              1428.3549              1455.4949
 Red. masses --      1.3563                 1.4191                 1.5175
 Frc consts  --      1.6093                 1.7059                 1.8941
 IR Inten    --      3.8207                17.7985                 2.1687

                    106                    107                    108
                      A                      A                      A
 Frequencies --   1480.0964              1482.3744              1482.8440
 Red. masses --      1.0906                 1.0726                 1.0729
 Frc consts  --      1.4076                 1.3887                 1.3900
 IR Inten    --      3.9211                 0.1683                 0.0050

                    109                    110                    111
                      A                      A                      A
 Frequencies --   1486.8445              1490.7465              1492.1798
 Red. masses --      1.0706                 1.0784                 1.0831
 Frc consts  --      1.3944                 1.4120                 1.4209
 IR Inten    --      0.1859                 0.0863                 0.3374

                    112                    113                    114
                      A                      A                      A
 Frequencies --   1492.4274              1492.8106              1499.4017
 Red. masses --      1.0974                 1.0828                 1.0844
 Frc consts  --      1.4401                 1.4217                 1.4365
 IR Inten    --      0.9077                 0.1710                 1.2634

                    115                    116                    117
                      A                      A                      A
 Frequencies --   1499.8368              1501.4374              1506.9967
 Red. masses --      1.0404                 1.0860                 1.1013
 Frc consts  --      1.3789                 1.4424                 1.4735
 IR Inten    --      4.8982                 1.2145                 4.7896

                    118                    119                    120
                      A                      A                      A
 Frequencies --   1508.4991              1514.8146              1518.9972
 Red. masses --      1.0878                 1.0930                 1.0915
 Frc consts  --      1.4585                 1.4777                 1.4839
 IR Inten    --      0.1482                 4.6300                 3.6165

                    121                    122                    123
                      A                      A                      A
 Frequencies --   1528.4194              1538.2406              2934.3285
 Red. masses --      1.0889                 1.0965                 1.0535
 Frc consts  --      1.4988                 1.5287                 5.3444
 IR Inten    --      6.4356                 0.7983                16.9422

                    124                    125                    126
                      A                      A                      A
 Frequencies --   2947.5878              2948.6068              2959.9127
 Red. masses --      1.0543                 1.0712                 1.0677
 Frc consts  --      5.3967                 5.4874                 5.5114
 IR Inten    --     76.6259                45.5625                32.5267

                    127                    128                    129
                      A                      A                      A
 Frequencies --   2963.3402              2965.6967              2977.2223
 Red. masses --      1.1038                 1.1056                 1.0568
 Frc consts  --      5.7107                 5.7293                 5.5193
 IR Inten    --     83.6000                13.3175                38.5313

                    130                    131                    132
                      A                      A                      A
 Frequencies --   2997.9780              3000.0689              3002.1907
 Red. masses --      1.0574                 1.0575                 1.0583
 Frc consts  --      5.5996                 5.6080                 5.6200
 IR Inten    --      1.2349                 1.7014                 0.4951

                    133                    134                    135
                      A                      A                      A
 Frequencies --   3006.7184              3010.0844              3016.2533
 Red. masses --      1.1022                 1.0593                 1.0596
 Frc consts  --      5.8707                 5.6551                 5.6795
 IR Inten    --     31.8155                12.3799                99.6698

                    136                    137                    138
                      A                      A                      A
 Frequencies --   3018.7566              3023.6515              3023.9232
 Red. masses --      1.0979                 1.0996                 1.0656
 Frc consts  --      5.8947                 5.9232                 5.7410
 IR Inten    --      0.0838                 0.8726                13.7822

                    139                    140                    141
                      A                      A                      A
 Frequencies --   3025.0205              3027.8202              3029.8188
 Red. masses --      1.0583                 1.0358                 1.0585
 Frc consts  --      5.7056                 5.5948                 5.7251
 IR Inten    --      0.1902                36.2497                51.6868

                    142                    143                    144
                      A                      A                      A
 Frequencies --   3030.1782              3033.4766              3033.8930
 Red. masses --      1.0608                 1.1025                 1.0589
 Frc consts  --      5.7386                 5.9775                 5.7425
 IR Inten    --     19.2807                 0.5985                55.3824

                    145                    146                    147
                      A                      A                      A
 Frequencies --   3036.3177              3048.1549              3057.4667
 Red. masses --      1.0802                 1.1046                 1.1027
 Frc consts  --      5.8673                 6.0470                 6.0735
 IR Inten    --     53.7725                 0.0992                 0.0319

                    148                    149                    150
                      A                      A                      A
 Frequencies --   3060.5646              3070.0636              3074.9850
 Red. masses --      1.1052                 1.0994                 1.1050
 Frc consts  --      6.0995                 6.1050                 6.1558
 IR Inten    --     65.0002                27.2035                88.9678

                    151                    152                    153
                      A                      A                      A
 Frequencies --   3079.0208              3082.3167              3085.2182
 Red. masses --      1.1010                 1.1055                 1.0939
 Frc consts  --      6.1496                 6.1884                 6.1349
 IR Inten    --     48.9525                72.0645                48.7420

                    154                    155                    156
                      A                      A                      A
 Frequencies --   3093.9207              3094.3105              3099.3445
 Red. masses --      1.1020                 1.0938                 1.1010
 Frc consts  --      6.2152                 6.1704                 6.2310
 IR Inten    --     60.9357                31.7844                40.0769

 - Thermochemistry -
 -------------------
 Temperature   298.150 Kelvin.  Pressure   1.00000 Atm.
 Atom     1 has atomic number  6 and mass  12.00000

 Molecular mass:   286.25080 amu.
 Principal axes and moments of inertia in atomic units:
                           1         2         3
     Eigenvalues --  1112.26231********************
           X            1.00000  -0.00033   0.00201
           Y            0.00040   0.99947  -0.03246
           Z           -0.00200   0.03246   0.99947
 This molecule is an asymmetric top.
 Rotational symmetry number  1.
 Warning -- assumption of classical behavior for rotation
           may cause significant error
 Rotational temperatures (Kelvin)      0.07787     0.00210     0.00209
 Rotational constants (GHZ):           1.62259     0.04385     0.04357
 Zero-point vibrational energy    1298749.7 (Joules/Mol)
                                  310.40862 (Kcal/Mol)
 Warning -- explicit consideration of  34 degrees of freedom as
           vibrations may cause significant error
 Vibrational temperatures:     16.62    23.32    25.18    44.06    60.83
          (Kelvin)             70.31    85.51   111.08   128.17   132.89
                              158.04   182.54   187.25   196.12   201.58
                              221.14   236.38   251.99   272.08   339.04
                              348.41   356.05   390.27   464.68   484.30
                              524.31   531.27   609.04   634.28   651.42
                              661.89   750.46   751.68   782.86   928.41
                             1052.57  1060.74  1086.00  1093.74  1160.22
                             1169.18  1177.52  1249.55  1255.71  1259.79
                             1291.66  1337.38  1361.61  1377.51  1384.77
                             1410.68  1426.58  1445.10  1453.71  1473.08
                             1484.56  1491.17  1507.75  1515.87  1528.75
                             1538.58  1541.98  1559.36  1601.70  1615.45
                             1629.05  1649.83  1653.89  1671.84  1697.49
                             1704.67  1723.94  1727.14  1754.88  1769.43
                             1783.87  1785.65  1814.88  1824.26  1849.98
                             1856.25  1861.12  1868.01  1886.50  1889.90
                             1893.04  1905.91  1907.28  1918.58  1924.57
                             1924.95  1924.99  1951.90  1964.90  1975.26
                             1985.19  1995.00  2014.69  2017.56  2021.84
                             2025.37  2033.78  2041.79  2055.08  2094.13
                             2129.53  2132.81  2133.48  2139.24  2144.85
                             2146.91  2147.27  2147.82  2157.30  2157.93
                             2160.23  2168.23  2170.39  2179.48  2185.50
                             2199.05  2213.19  4221.84  4240.92  4242.39
                             4258.65  4263.59  4266.98  4283.56  4313.42
                             4316.43  4319.48  4326.00  4330.84  4339.72
                             4343.32  4350.36  4350.75  4352.33  4356.36
                             4359.23  4359.75  4364.50  4365.10  4368.58
                             4385.62  4399.01  4403.47  4417.14  4424.22
                             4430.02  4434.77  4438.94  4451.46  4452.02
                             4459.27

 Zero-point correction=                           0.494668 (Hartree/Particle)
 Thermal correction to Energy=                    0.519007
 Thermal correction to Enthalpy=                  0.519952
 Thermal correction to Gibbs Free Energy=         0.434977
 Sum of electronic and zero-point Energies=           -893.519776
 Sum of electronic and thermal Energies=              -893.495436
 Sum of electronic and thermal Enthalpies=            -893.494492
 Sum of electronic and thermal Free Energies=         -893.579466

                     E (Thermal)             CV                S
                      KCal/Mol        Cal/Mol-Kelvin    Cal/Mol-Kelvin
 Total                  325.682             87.265            178.844
 Electronic               0.000              0.000              0.000
 Translational            0.889              2.981             42.853
 Rotational               0.889              2.981             35.893
 Vibrational            323.905             81.304            100.098
 Vibration     1          0.593              1.987              7.725
 Vibration     2          0.593              1.986              7.051
 Vibration     3          0.593              1.986              6.899
 Vibration     4          0.594              1.984              5.789
 Vibration     5          0.595              1.980              5.149
 Vibration     6          0.595              1.978              4.863
 Vibration     7          0.597              1.974              4.476
 Vibration     8          0.599              1.964              3.961
 Vibration     9          0.602              1.957              3.680
 Vibration    10          0.602              1.955              3.609
 Vibration    11          0.606              1.941              3.272
 Vibration    12          0.611              1.926              2.993
 Vibration    13          0.612              1.923              2.944
 Vibration    14          0.614              1.917              2.855
 Vibration    15          0.615              1.913              2.802
 Vibration    16          0.619              1.899              2.626
 Vibration    17          0.623              1.886              2.500
 Vibration    18          0.627              1.873              2.380
 Vibration    19          0.633              1.855              2.237
 Vibration    20          0.655              1.786              1.836
 Vibration    21          0.658              1.776              1.787
 Vibration    22          0.661              1.767              1.749
 Vibration    23          0.675              1.726              1.588
 Vibration    24          0.708              1.629              1.295
 Vibration    25          0.717              1.602              1.228
 Vibration    26          0.738              1.546              1.103
 Vibration    27          0.742              1.535              1.083
 Vibration    28          0.785              1.420              0.881
 Vibration    29          0.801              1.381              0.824
 Vibration    30          0.811              1.355              0.787
 Vibration    31          0.818              1.339              0.766
 Vibration    32          0.877              1.202              0.606
 Vibration    33          0.877              1.200              0.604
 Vibration    34          0.899              1.153              0.557

                           ! Non-Optimized Parameters !
 Normal termination of Gaussian 16 at Tue May 23 08:56:15 2023.
