 Gaussian 16, Revision A.03,
 Gaussian 16:  ES64L-G16RevA.03 25-Dec-2016

 -----------------------------
 # opt freq b3lyp/6-31g(2df,p)
 -----------------------------

 -------------------
 Title Card Required
 -------------------
 Symbolic Z-matrix:
 Charge =  0 Multiplicity = 1

 SCF Done:  E(RB3LYP) =  -394.367170615     A.U. after   11 cycles
 SCF Done:  E(RB3LYP) =  -394.371017759     A.U. after   10 cycles
 SCF Done:  E(RB3LYP) =  -394.371585342     A.U. after    8 cycles
 SCF Done:  E(RB3LYP) =  -394.371630923     A.U. after    8 cycles
 SCF Done:  E(RB3LYP) =  -394.371638476     A.U. after    8 cycles
 SCF Done:  E(RB3LYP) =  -394.371640798     A.U. after    6 cycles
 SCF Done:  E(RB3LYP) =  -394.371640910     A.U. after    6 cycles
 SCF Done:  E(RB3LYP) =  -394.371640929     A.U. after    5 cycles
 Optimization completed.
    -- Stationary point found.
 Normal termination of Gaussian 16 at Sun May 28 09:55:53 2023.

 ----------------------------------------------------------------------
 #N Geom=AllCheck Guess=TCheck SCRF=Check GenChk RB3LYP/6-31G(2df,p) Fr
 eq
 ----------------------------------------------------------------------

 Structure from the checkpoint file:  "CCCCCCCqCrCC.chk"
 -------------------
 Title Card Required
 -------------------
 Charge =  0 Multiplicity = 1

                         Standard orientation:
 ---------------------------------------------------------------------
 Center     Atomic      Atomic             Coordinates (Angstroms)
 Number     Number       Type             X           Y           Z
 ---------------------------------------------------------------------
      1          6           0       -5.393379    0.227602   -0.255785
      2          6           0       -4.120542   -0.480058    0.216822
      3          6           0       -2.835446    0.235397   -0.213667
      4          6           0       -1.556656   -0.466174    0.255591
      5          6           0       -0.271214    0.249366   -0.176245
      6          6           0        1.001091   -0.461144    0.301790
      7          6           0        2.327225    0.151217   -0.189491
      8          6           0        2.538343    1.572899    0.352264
      9          6           0        3.502415   -0.779200    0.170140
     10          6           0        4.851548   -0.389614   -0.442952
     11          1           0       -6.292838   -0.306509    0.066580
     12          1           0       -5.423382    0.300198   -1.348813
     13          1           0       -5.450930    1.246787    0.142750
     14          1           0       -4.108163   -1.508320   -0.168670
     15          1           0       -4.135338   -0.568842    1.311347
     16          1           0       -2.848027    1.264964    0.171293
     17          1           0       -2.820398    0.324832   -1.309184
     18          1           0       -1.545789   -1.496114   -0.128051
     19          1           0       -1.572249   -0.554012    1.351134
     20          1           0       -0.295224    1.279098    0.201716
     21          1           0       -0.251947    0.328642   -1.272577
     22          1           0        0.958631   -1.508193   -0.028478
     23          1           0        1.007680   -0.493770    1.401328
     24          1           0        2.278255    0.211013   -1.288019
     25          1           0        2.588955    1.566233    1.448345
     26          1           0        1.724318    2.242784    0.061585
     27          1           0        3.467075    2.014256   -0.020249
     28          1           0        3.249786   -1.796886   -0.154390
     29          1           0        3.597176   -0.827121    1.264204
     30          1           0        4.783799   -0.320266   -1.534788
     31          1           0        5.617237   -1.135323   -0.206226
     32          1           0        5.211063    0.574801   -0.071627
 ---------------------------------------------------------------------

 SCF Done:  E(RB3LYP) =  -394.371640929     A.U. after    1 cycles

 The electronic state is 1-A.
 Alpha  occ. eigenvalues --  -10.17885 -10.17414 -10.17254 -10.17185 -10.17162
 Alpha  occ. eigenvalues --  -10.17134 -10.17003 -10.16853 -10.16829 -10.16593
 Alpha  occ. eigenvalues --   -0.81253  -0.79240  -0.75636  -0.72110  -0.69051
 Alpha  occ. eigenvalues --   -0.64959  -0.61323  -0.57488  -0.56952  -0.54849
 Alpha  occ. eigenvalues --   -0.47497  -0.45791  -0.44498  -0.43313  -0.42499
 Alpha  occ. eigenvalues --   -0.41032  -0.39817  -0.39587  -0.38084  -0.37432
 Alpha  occ. eigenvalues --   -0.36129  -0.35555  -0.34207  -0.33739  -0.33081
 Alpha  occ. eigenvalues --   -0.32107  -0.32063  -0.31498  -0.31203  -0.30619
 Alpha  occ. eigenvalues --   -0.28938
 Alpha virt. eigenvalues --    0.08542   0.09451   0.11184   0.11275   0.11873
 Alpha virt. eigenvalues --    0.13083   0.13473   0.14460   0.15404   0.15773
 Alpha virt. eigenvalues --    0.16405   0.17229   0.17612   0.17938   0.18217

 Mulliken charges:
               1
     1  C   -0.378955
     2  C   -0.162572
     3  C   -0.159208
     4  C   -0.175442
     5  C   -0.194928
     6  C   -0.178381
     7  C    0.044739
     8  C   -0.389416
     9  C   -0.164546
    10  C   -0.391540
    11  H    0.109296
    12  H    0.112194
    13  H    0.112206
    14  H    0.092652
    15  H    0.092662
    16  H    0.089399
    17  H    0.089351
    18  H    0.089794
    19  H    0.090251
    20  H    0.094990
    21  H    0.089169
    22  H    0.085719
    23  H    0.087140
    24  H    0.064242
    25  H    0.108059
    26  H    0.113857
    27  H    0.112065
    28  H    0.088901
    29  H    0.089711
    30  H    0.111411
    31  H    0.110087
    32  H    0.117094
 Sum of Mulliken charges =  -0.00000

 Dipole moment (field-independent basis, Debye):
    X=             -0.0052    Y=             -0.0602    Z=             -0.0127  Tot=              0.0618
 Quadrupole moment (field-independent basis, Debye-Ang):
   XX=            -69.4627   YY=            -68.1118   ZZ=            -67.2889
   XY=              0.0439   XZ=             -0.0807   YZ=              0.5146

  Exact polarizability: 141.423  -1.025 100.926  -0.483  -0.268  95.780
 Approx polarizability: 151.766  -0.076 149.181  -0.052   0.667 149.943

                      1                      2                      3
                      A                      A                      A
 Frequencies --     37.7222                44.2927                63.4120
 Red. masses --      2.7931                 1.7532                 3.0872
 Frc consts  --      0.0023                 0.0020                 0.0073
 IR Inten    --      0.0034                 0.0016                 0.0023

                      4                      5                      6
                      A                      A                      A
 Frequencies --     83.2315                98.6486               129.2122
 Red. masses --      2.2549                 1.7648                 1.8691
 Frc consts  --      0.0092                 0.0101                 0.0184
 IR Inten    --      0.0003                 0.0076                 0.0055

                      7                      8                      9
                      A                      A                      A
 Frequencies --    154.2177               171.5101               209.0679
 Red. masses --      1.9518                 2.9913                 1.1394
 Frc consts  --      0.0273                 0.0518                 0.0293
 IR Inten    --      0.0028                 0.0058                 0.0419

                     10                     11                     12
                      A                      A                      A
 Frequencies --    232.6900               247.2573               257.0214
 Red. masses --      2.8868                 1.1171                 1.2910
 Frc consts  --      0.0921                 0.0402                 0.0502
 IR Inten    --      0.0183                 0.0010                 0.0027

                     13                     14                     15
                      A                      A                      A
 Frequencies --    282.0122               340.0079               412.0311
 Red. masses --      2.4333                 2.5245                 2.0667
 Frc consts  --      0.1140                 0.1719                 0.2067
 IR Inten    --      0.0131                 0.0520                 0.0827

                     16                     17                     18
                      A                      A                      A
 Frequencies --    420.4308               468.6005               514.7034
 Red. masses --      2.5876                 2.8999                 2.4711
 Frc consts  --      0.2695                 0.3752                 0.3857
 IR Inten    --      0.0390                 0.3734                 0.2203

                     19                     20                     21
                      A                      A                      A
 Frequencies --    731.5405               741.8545               772.8865
 Red. masses --      1.0644                 1.1071                 1.2915
 Frc consts  --      0.3356                 0.3590                 0.4545
 IR Inten    --      3.7831                 0.1293                 1.9344

                     22                     23                     24
                      A                      A                      A
 Frequencies --    787.9258               827.9603               881.2856
 Red. masses --      1.2942                 1.7040                 1.2443
 Frc consts  --      0.4734                 0.6882                 0.5694
 IR Inten    --      1.0624                 0.2715                 0.4032

                     25                     26                     27
                      A                      A                      A
 Frequencies --    894.2978               915.9001               963.1205
 Red. masses --      2.0525                 1.9887                 1.2064
 Frc consts  --      0.9672                 0.9829                 0.6593
 IR Inten    --      1.8078                 0.1356                 0.1602

                     28                     29                     30
                      A                      A                      A
 Frequencies --    977.6506              1002.5465              1018.9006
 Red. masses --      1.3390                 2.2206                 2.1065
 Frc consts  --      0.7540                 1.3150                 1.2884
 IR Inten    --      4.1682                 0.4563                 1.7367

                     31                     32                     33
                      A                      A                      A
 Frequencies --   1024.0180              1048.2645              1057.2497
 Red. masses --      2.2374                 2.9636                 1.3174
 Frc consts  --      1.3823                 1.9187                 0.8676
 IR Inten    --      0.8697                 0.0316                 0.0490

                     34                     35                     36
                      A                      A                      A
 Frequencies --   1068.5347              1072.9670              1116.3928
 Red. masses --      2.2896                 2.2779                 1.9624
 Frc consts  --      1.5402                 1.5451                 1.4410
 IR Inten    --      0.2988                 0.0372                 1.1935

                     37                     38                     39
                      A                      A                      A
 Frequencies --   1162.2305              1176.7754              1202.5410
 Red. masses --      2.6401                 1.8288                 2.0026
 Frc consts  --      2.1011                 1.4921                 1.7062
 IR Inten    --      0.3821                 7.8299                 0.0611

                     40                     41                     42
                      A                      A                      A
 Frequencies --   1229.5784              1249.1189              1278.0549
 Red. masses --      1.5921                 1.3000                 1.3291
 Frc consts  --      1.4182                 1.1951                 1.2791
 IR Inten    --      1.3172                 5.0908                 0.3339

                     43                     44                     45
                      A                      A                      A
 Frequencies --   1294.9244              1306.2906              1321.9263
 Red. masses --      1.2821                 1.1906                 1.1659
 Frc consts  --      1.2667                 1.1970                 1.2004
 IR Inten    --      0.6297                 0.4593                 0.6765

                     46                     47                     48
                      A                      A                      A
 Frequencies --   1328.9324              1334.2815              1337.5354
 Red. masses --      1.0979                 1.2079                 1.1332
 Frc consts  --      1.1424                 1.2670                 1.1945
 IR Inten    --      1.4099                 2.1984                 0.4778

                     49                     50                     51
                      A                      A                      A
 Frequencies --   1371.0893              1380.5176              1384.1215
 Red. masses --      1.3855                 1.3157                 1.5040
 Frc consts  --      1.5345                 1.4774                 1.6976
 IR Inten    --      0.3796                 2.0939                 0.4589

                     52                     53                     54
                      A                      A                      A
 Frequencies --   1397.7967              1400.3806              1411.8607
 Red. masses --      1.4914                 1.6150                 1.3028
 Frc consts  --      1.7168                 1.8660                 1.5301
 IR Inten    --      0.2512                 0.9718                 2.9228

                     55                     56                     57
                      A                      A                      A
 Frequencies --   1413.1158              1414.4001              1475.6059
 Red. masses --      1.2462                 1.2430                 1.0766
 Frc consts  --      1.4663                 1.4652                 1.3811
 IR Inten    --      1.0960                 3.4790                 0.2423

                     58                     59                     60
                      A                      A                      A
 Frequencies --   1482.9504              1484.2221              1487.5540
 Red. masses --      1.0716                 1.0712                 1.0689
 Frc consts  --      1.3884                 1.3903                 1.3935
 IR Inten    --      0.0957                 0.1624                 0.1881

                     61                     62                     63
                      A                      A                      A
 Frequencies --   1495.1349              1497.3797              1498.7480
 Red. masses --      1.0656                 1.0486                 1.0618
 Frc consts  --      1.4035                 1.3853                 1.4052
 IR Inten    --      1.5140                 3.8856                 0.9862

                     64                     65                     66
                      A                      A                      A
 Frequencies --   1499.8033              1505.9411              1508.6027
 Red. masses --      1.0403                 1.0767                 1.0743
 Frc consts  --      1.3787                 1.4386                 1.4405
 IR Inten    --      4.8313                 2.0843                 3.0441

                     67                     68                     69
                      A                      A                      A
 Frequencies --   1513.8325              1515.3883              2980.0169
 Red. masses --      1.0541                 1.0843                 1.0804
 Frc consts  --      1.4233                 1.4670                 5.6527
 IR Inten    --      1.6439                 6.4726                 8.2767

                     70                     71                     72
                      A                      A                      A
 Frequencies --   2994.6613              2998.7320              3000.6039
 Red. masses --      1.0590                 1.0579                 1.0591
 Frc consts  --      5.5957                 5.6049                 5.6182
 IR Inten    --      3.7672                 0.0097                 2.2476

                     73                     74                     75
                      A                      A                      A
 Frequencies --   3007.4111              3010.7674              3015.9648
 Red. masses --      1.0611                 1.0625                 1.0625
 Frc consts  --      5.6543                 5.6747                 5.6941
 IR Inten    --      5.3848                32.7494               112.6502

                     76                     77                     78
                      A                      A                      A
 Frequencies --   3019.7725              3026.0371              3027.5743
 Red. masses --      1.0956                 1.0912                 1.0361
 Frc consts  --      5.8865                 5.8872                 5.5958
 IR Inten    --      7.4541                14.9415                42.2000

                     79                     80                     81
                      A                      A                      A
 Frequencies --   3028.2218              3031.1175              3033.7398
 Red. masses --      1.0443                 1.0433                 1.0963
 Frc consts  --      5.6421                 5.6475                 5.9446
 IR Inten    --     12.8842                23.6524                 3.5668

                     82                     83                     84
                      A                      A                      A
 Frequencies --   3042.8547              3051.6057              3064.9838
 Red. masses --      1.0994                 1.1035                 1.1039
 Frc consts  --      5.9974                 6.0547                 6.1099
 IR Inten    --     24.9688                 1.8987               128.2092

                     85                     86                     87
                      A                      A                      A
 Frequencies --   3093.6558              3094.9883              3095.8838
 Red. masses --      1.1020                 1.1004                 1.0963
 Frc consts  --      6.2141                 6.2106                 6.1910
 IR Inten    --     58.8890                35.3776                37.8887

                     88                     89                     90
                      A                      A                      A
 Frequencies --   3098.9270              3104.1324              3112.1451
 Red. masses --      1.1009                 1.1001                 1.1000
 Frc consts  --      6.2293                 6.2452                 6.2772
 IR Inten    --     40.3175                53.4290                32.3987

 - Thermochemistry -
 -------------------
 Temperature   298.150 Kelvin.  Pressure   1.00000 Atm.
 Atom     1 has atomic number  6 and mass  12.00000

 Molecular mass:   142.17215 amu.
 Principal axes and moments of inertia in atomic units:
                           1         2         3
     Eigenvalues --   381.499755644.725275829.81392
           X            1.00000  -0.00002   0.00022
           Y            0.00002   0.99998  -0.00582
           Z           -0.00022   0.00582   0.99998
 This molecule is an asymmetric top.
 Rotational symmetry number  1.
 Rotational temperatures (Kelvin)      0.22704     0.01534     0.01486
 Rotational constants (GHZ):           4.73065     0.31972     0.30957
 Zero-point vibrational energy     791711.3 (Joules/Mol)
                                  189.22355 (Kcal/Mol)
 Warning -- explicit consideration of  18 degrees of freedom as
           vibrations may cause significant error
 Vibrational temperatures:     54.27    63.73    91.24   119.75   141.93
          (Kelvin)            185.91   221.88   246.76   300.80   334.79
                              355.75   369.80   405.75   489.20   592.82
                              604.91   674.21   740.54  1052.52  1067.36
                             1112.01  1133.65  1191.25  1267.97  1286.70
                             1317.78  1385.72  1406.62  1442.44  1465.97
                             1473.33  1508.22  1521.15  1537.38  1543.76
                             1606.24  1672.19  1693.12  1730.19  1769.09
                             1797.20  1838.84  1863.11  1879.46  1901.96
                             1912.04  1919.73  1924.42  1972.69  1986.26
                             1991.44  2011.12  2014.84  2031.35  2033.16
                             2035.01  2123.07  2133.63  2135.46  2140.26
                             2151.17  2154.40  2156.36  2157.88  2166.71
                             2170.54  2178.07  2180.31  4287.58  4308.65
                             4314.51  4317.20  4326.99  4331.82  4339.30
                             4344.78  4353.79  4356.00  4356.94  4361.10
                             4364.87  4377.99  4390.58  4409.83  4451.08
                             4453.00  4454.29  4458.66  4466.15  4477.68

 Zero-point correction=                           0.301547 (Hartree/Particle)
 Thermal correction to Energy=                    0.315416
 Thermal correction to Enthalpy=                  0.316361
 Thermal correction to Gibbs Free Energy=         0.260255
 Sum of electronic and zero-point Energies=           -394.070094
 Sum of electronic and thermal Energies=              -394.056224
 Sum of electronic and thermal Enthalpies=            -394.055280
 Sum of electronic and thermal Free Energies=         -394.111385

                     E (Thermal)             CV                S
                      KCal/Mol        Cal/Mol-Kelvin    Cal/Mol-Kelvin
 Total                  197.927             49.562            118.083
 Electronic               0.000              0.000              0.000
 Translational            0.889              2.981             40.767
 Rotational               0.889              2.981             30.907
 Vibrational            196.149             43.601             46.409
 Vibration     1          0.594              1.982              5.375
 Vibration     2          0.595              1.980              5.057
 Vibration     3          0.597              1.972              4.348
 Vibration     4          0.600              1.961              3.813
 Vibration     5          0.604              1.950              3.481
 Vibration     6          0.612              1.924              2.958
 Vibration     7          0.620              1.898              2.620
 Vibration     8          0.626              1.878              2.419
 Vibration     9          0.642              1.827              2.052
 Vibration    10          0.653              1.791              1.858
 Vibration    11          0.661              1.767              1.750
 Vibration    12          0.667              1.751              1.682
 Vibration    13          0.681              1.707              1.521
 Vibration    14          0.720              1.596              1.212
 Vibration    15          0.776              1.444              0.919
 Vibration    16          0.783              1.426              0.891
 Vibration    17          0.826              1.320              0.741
 Vibration    18          0.870              1.217              0.622

                           ! Non-Optimized Parameters !
 Normal termination of Gaussian 16 at Sun May 28 10:46:13 2023.
