 Gaussian 16, Revision A.03,
 Gaussian 16:  ES64L-G16RevA.03 25-Dec-2016

 -----------------------------
 # opt freq b3lyp/6-31g(2df,p)
 -----------------------------

 -------------------
 Title Card Required
 -------------------
 Symbolic Z-matrix:
 Charge =  0 Multiplicity = 1

 SCF Done:  E(RB3LYP) =  -777.244140453     A.U. after   12 cycles
 SCF Done:  E(RB3LYP) =  -777.263054117     A.U. after   11 cycles
 SCF Done:  E(RB3LYP) =  -777.268071732     A.U. after   10 cycles
 SCF Done:  E(RB3LYP) =  -777.270174190     A.U. after   11 cycles
 SCF Done:  E(RB3LYP) =  -777.270944252     A.U. after   10 cycles
 SCF Done:  E(RB3LYP) =  -777.271267275     A.U. after    9 cycles
 SCF Done:  E(RB3LYP) =  -777.271611934     A.U. after   10 cycles
 SCF Done:  E(RB3LYP) =  -777.271322989     A.U. after   11 cycles
 SCF Done:  E(RB3LYP) =  -777.272026862     A.U. after   10 cycles
 SCF Done:  E(RB3LYP) =  -777.272319445     A.U. after   10 cycles
 SCF Done:  E(RB3LYP) =  -777.272331350     A.U. after   10 cycles
 SCF Done:  E(RB3LYP) =  -777.272413340     A.U. after    9 cycles
 SCF Done:  E(RB3LYP) =  -777.272429896     A.U. after    8 cycles
 SCF Done:  E(RB3LYP) =  -777.272435326     A.U. after    8 cycles
 SCF Done:  E(RB3LYP) =  -777.272436984     A.U. after    7 cycles
 SCF Done:  E(RB3LYP) =  -777.272437862     A.U. after    7 cycles
 SCF Done:  E(RB3LYP) =  -777.272437916     A.U. after    7 cycles
 Optimization completed.
    -- Stationary point found.
 Normal termination of Gaussian 16 at Tue May 23 05:47:36 2023.

 ----------------------------------------------------------------------
 #N Geom=AllCheck Guess=TCheck SCRF=Check GenChk RB3LYP/6-31G(2df,p) Fr
 eq
 ----------------------------------------------------------------------

 Structure from the checkpoint file:  "CCCCOCCOCqCrCCqCrCCCO.chk"
 -------------------
 Title Card Required
 -------------------
 Charge =  0 Multiplicity = 1

                         Standard orientation:
 ---------------------------------------------------------------------
 Center     Atomic      Atomic             Coordinates (Angstroms)
 Number     Number       Type             X           Y           Z
 ---------------------------------------------------------------------
      1          6           0       -8.506019   -1.001423   -0.634862
      2          6           0       -7.203001   -1.308434    0.108164
      3          6           0       -6.036852   -0.423448   -0.343109
      4          6           0       -4.742055   -0.728955    0.396794
      5          8           0       -3.728844    0.129608   -0.083119
      6          6           0       -2.483549   -0.070802    0.542973
      7          6           0       -1.494207    0.913945   -0.063592
      8          8           0       -0.263515    0.732988    0.599451
      9          6           0        0.856617    1.389789    0.006195
     10          6           0        0.765373    2.909063    0.181640
     11          6           0        2.110727    0.778805    0.661369
     12          6           0        3.268916    0.436974   -0.296551
     13          6           0        3.825616    1.672242   -1.019424
     14          6           0        4.367959   -0.320724    0.474631
     15          6           0        5.478057   -0.925606   -0.392983
     16          6           0        6.461205   -1.772241    0.417362
     17          8           0        7.531310   -2.282109   -0.363042
     18          1           0       -9.321582   -1.646753   -0.294053
     19          1           0       -8.390458   -1.151377   -1.713960
     20          1           0       -8.814995    0.037897   -0.477968
     21          1           0       -6.938569   -2.364028   -0.038942
     22          1           0       -7.359909   -1.183296    1.187763
     23          1           0       -6.285764    0.634002   -0.190318
     24          1           0       -5.863006   -0.549618   -1.418937
     25          1           0       -4.452029   -1.783588    0.245246
     26          1           0       -4.877573   -0.588687    1.483621
     27          1           0       -2.121744   -1.101143    0.393634
     28          1           0       -2.550861    0.098375    1.630155
     29          1           0       -1.886511    1.934628    0.054480
     30          1           0       -1.394651    0.720877   -1.144084
     31          1           0        0.859629    1.151686   -1.072002
     32          1           0        0.674597    3.152427    1.245410
     33          1           0       -0.097297    3.329959   -0.342806
     34          1           0        1.661962    3.399684   -0.206486
     35          1           0        1.783078   -0.142124    1.153922
     36          1           0        2.477167    1.443808    1.455046
     37          1           0        2.869543   -0.248235   -1.059915
     38          1           0        4.219868    2.401392   -0.300862
     39          1           0        3.056965    2.172771   -1.615482
     40          1           0        4.637489    1.406924   -1.702322
     41          1           0        3.893229   -1.126838    1.050336
     42          1           0        4.815185    0.355874    1.217184
     43          1           0        6.048413   -0.145281   -0.908318
     44          1           0        5.028071   -1.554349   -1.176210
     45          1           0        5.921165   -2.583241    0.933670
     46          1           0        6.931355   -1.158529    1.194159
     47          1           0        7.152908   -2.852216   -1.039928
 ---------------------------------------------------------------------

 SCF Done:  E(RB3LYP) =  -777.272437916     A.U. after    1 cycles

 The electronic state is 1-A.
 Alpha  occ. eigenvalues --  -19.13556 -19.13362 -19.12945 -10.23006 -10.22297
 Alpha  occ. eigenvalues --  -10.22199 -10.22160 -10.22103 -10.18809 -10.18128
 Alpha  occ. eigenvalues --  -10.17966 -10.17818 -10.17592 -10.17314 -10.17285
 Alpha  occ. eigenvalues --  -10.17281 -10.17191  -1.03360  -1.02365  -1.01031
 Alpha  occ. eigenvalues --   -0.81902  -0.79617  -0.77810  -0.74960  -0.73209
 Alpha  occ. eigenvalues --   -0.69888  -0.68424  -0.66585  -0.62700  -0.60744
 Alpha  occ. eigenvalues --   -0.59714  -0.57895  -0.57331  -0.55963  -0.50486
 Alpha  occ. eigenvalues --   -0.49978  -0.49220  -0.47010  -0.46929  -0.46062
 Alpha  occ. eigenvalues --   -0.45684  -0.44919  -0.43849  -0.43178  -0.42456
 Alpha  occ. eigenvalues --   -0.41581  -0.40712  -0.39937  -0.39236  -0.38719
 Alpha  occ. eigenvalues --   -0.38303  -0.37793  -0.37323  -0.35862  -0.35231
 Alpha  occ. eigenvalues --   -0.34458  -0.33957  -0.33743  -0.33490  -0.32529
 Alpha  occ. eigenvalues --   -0.32383  -0.31971  -0.31821  -0.31204  -0.30801
 Alpha  occ. eigenvalues --   -0.30019  -0.26131  -0.25394  -0.24704
 Alpha virt. eigenvalues --    0.07863   0.08188   0.08896   0.09060   0.10015
 Alpha virt. eigenvalues --    0.10788   0.11781   0.12054   0.12699   0.12833
 Alpha virt. eigenvalues --    0.13229   0.13572   0.14179   0.14492   0.14916

 Mulliken charges:
               1
     1  C   -0.379087
     2  C   -0.165121
     3  C   -0.178822
     4  C   -0.046792
     5  O   -0.251730
     6  C   -0.066414
     7  C   -0.083506
     8  O   -0.269097
     9  C    0.151131
    10  C   -0.411375
    11  C   -0.217058
    12  C    0.020257
    13  C   -0.391466
    14  C   -0.182984
    15  C   -0.214372
    16  C   -0.055204
    17  O   -0.419501
    18  H    0.111279
    19  H    0.115120
    20  H    0.115310
    21  H    0.096022
    22  H    0.096305
    23  H    0.102911
    24  H    0.102556
    25  H    0.082547
    26  H    0.083156
    27  H    0.090071
    28  H    0.093562
    29  H    0.098466
    30  H    0.090879
    31  H    0.061290
    32  H    0.122503
    33  H    0.116965
    34  H    0.120210
    35  H    0.107282
    36  H    0.089388
    37  H    0.070019
    38  H    0.111797
    39  H    0.116856
    40  H    0.115367
    41  H    0.091993
    42  H    0.094437
    43  H    0.109771
    44  H    0.082123
    45  H    0.083956
    46  H    0.110179
    47  H    0.278822
 Sum of Mulliken charges =  -0.00000

 Dipole moment (field-independent basis, Debye):
    X=             -1.4884    Y=             -0.3699    Z=             -0.4808  Tot=              1.6073
 Quadrupole moment (field-independent basis, Debye-Ang):
   XX=           -125.9211   YY=           -105.0376   ZZ=           -107.8453
   XY=              5.3373   XZ=             -4.2683   YZ=              2.3569

  Exact polarizability: 215.248  -1.677 155.892   0.210  -0.685 142.863
 Approx polarizability: 233.266   1.054 221.955  -0.013   1.395 222.686

                      1                      2                      3
                      A                      A                      A
 Frequencies --     12.2739                25.4064                30.2785
 Red. masses --      4.4695                 2.0467                 2.6724
 Frc consts  --      0.0004                 0.0008                 0.0014
 IR Inten    --      0.0345                 0.1201                 0.5647

                      4                      5                      6
                      A                      A                      A
 Frequencies --     37.9001                52.1096                58.2420
 Red. masses --      2.8324                 3.6217                 2.0401
 Frc consts  --      0.0024                 0.0058                 0.0041
 IR Inten    --      1.2208                 0.2343                 2.3249

                      7                      8                      9
                      A                      A                      A
 Frequencies --     75.5315                79.3734                86.2814
 Red. masses --      3.6829                 1.9840                 2.6162
 Frc consts  --      0.0124                 0.0074                 0.0115
 IR Inten    --      0.5091                 0.0378                 0.2026

                     10                     11                     12
                      A                      A                      A
 Frequencies --     92.2210               124.6675               135.2948
 Red. masses --      3.0156                 2.8068                 2.9740
 Frc consts  --      0.0151                 0.0257                 0.0321
 IR Inten    --      0.8196                 0.2525                 0.9896

                     13                     14                     15
                      A                      A                      A
 Frequencies --    138.2650               150.7135               164.9740
 Red. masses --      2.3040                 2.1363                 2.9536
 Frc consts  --      0.0260                 0.0286                 0.0474
 IR Inten    --      0.3582                 2.4168                 6.1201

                     16                     17                     18
                      A                      A                      A
 Frequencies --    175.5409               201.0095               235.9164
 Red. masses --      3.7463                 2.5134                 1.4657
 Frc consts  --      0.0680                 0.0598                 0.0481
 IR Inten    --      0.8793                 0.9457                 0.2048

                     19                     20                     21
                      A                      A                      A
 Frequencies --    246.7472               249.0729               261.0825
 Red. masses --      1.8656                 1.1221                 2.4603
 Frc consts  --      0.0669                 0.0410                 0.0988
 IR Inten    --      0.3571                 0.0574                 0.5703

                     22                     23                     24
                      A                      A                      A
 Frequencies --    269.2544               302.9310               317.3311
 Red. masses --      1.7161                 1.2669                 2.0056
 Frc consts  --      0.0733                 0.0685                 0.1190
 IR Inten    --      0.4411                81.6116                28.6577

                     25                     26                     27
                      A                      A                      A
 Frequencies --    354.8707               367.3142               409.7658
 Red. masses --      2.9632                 3.2298                 1.8251
 Frc consts  --      0.2199                 0.2567                 0.1806
 IR Inten    --      1.2953                 3.0440                 2.8741

                     28                     29                     30
                      A                      A                      A
 Frequencies --    440.7167               446.5112               486.6410
 Red. masses --      3.3230                 2.6512                 3.5048
 Frc consts  --      0.3803                 0.3114                 0.4890
 IR Inten    --      4.2509                 2.2809                 2.7177

                     31                     32                     33
                      A                      A                      A
 Frequencies --    500.3064               561.3723               573.2936
 Red. masses --      3.2670                 2.9241                 3.0226
 Frc consts  --      0.4818                 0.5429                 0.5853
 IR Inten    --      6.3661                 1.0959                 0.4281

                     34                     35                     36
                      A                      A                      A
 Frequencies --    744.3692               752.1756               813.8345
 Red. masses --      1.0723                 1.1150                 1.1281
 Frc consts  --      0.3501                 0.3717                 0.4402
 IR Inten    --      2.5469                 2.6413                 0.3237

                     37                     38                     39
                      A                      A                      A
 Frequencies --    829.8620               836.0562               847.0473
 Red. masses --      2.0467                 1.1172                 1.4924
 Frc consts  --      0.8305                 0.4601                 0.6309
 IR Inten    --      1.1919                 0.5115                 1.5253

                     40                     41                     42
                      A                      A                      A
 Frequencies --    863.2467               882.7987               906.9347
 Red. masses --      2.2861                 1.3860                 1.9023
 Frc consts  --      1.0037                 0.6364                 0.9219
 IR Inten    --      3.2009                 1.7245                 6.2138

                     43                     44                     45
                      A                      A                      A
 Frequencies --    925.3692               953.1916               965.5425
 Red. masses --      2.4060                 1.1387                 1.8412
 Frc consts  --      1.2139                 0.6096                 1.0113
 IR Inten    --      8.6580                 0.0016                 5.2750

                     46                     47                     48
                      A                      A                      A
 Frequencies --    990.6286              1015.3749              1021.3665
 Red. masses --      1.4170                 3.2887                 2.7110
 Frc consts  --      0.8193                 1.9977                 1.6663
 IR Inten    --     17.4840                10.9678                 6.6743

                     49                     50                     51
                      A                      A                      A
 Frequencies --   1036.2388              1042.5600              1049.2672
 Red. masses --      3.0358                 3.0331                 1.8174
 Frc consts  --      1.9206                 1.9424                 1.1789
 IR Inten    --     19.6003                 2.7750                 3.3440

                     52                     53                     54
                      A                      A                      A
 Frequencies --   1063.6390              1071.6902              1081.4318
 Red. masses --      2.4024                 2.2536                 4.0362
 Frc consts  --      1.6013                 1.5250                 2.7811
 IR Inten    --      5.7336                 1.2554               113.6645

                     55                     56                     57
                      A                      A                      A
 Frequencies --   1101.0769              1120.5989              1130.6339
 Red. masses --      2.8034                 2.5469                 1.5854
 Frc consts  --      2.0025                 1.8843                 1.1941
 IR Inten    --      3.4593                45.8544                13.8603

                     58                     59                     60
                      A                      A                      A
 Frequencies --   1145.4629              1150.8449              1160.2473
 Red. masses --      2.3293                 2.4402                 2.5540
 Frc consts  --      1.8007                 1.9042                 2.0257
 IR Inten    --     20.0846                81.8434                 1.1571

                     61                     62                     63
                      A                      A                      A
 Frequencies --   1168.9967              1170.3850              1176.5833
 Red. masses --      1.8759                 5.3415                 2.4518
 Frc consts  --      1.5104                 4.3110                 1.9998
 IR Inten    --     20.0368               257.5092               155.9506

                     64                     65                     66
                      A                      A                      A
 Frequencies --   1198.1766              1203.3770              1231.4153
 Red. masses --      1.6543                 1.7801                 1.1900
 Frc consts  --      1.3993                 1.5188                 1.0631
 IR Inten    --      2.4515                 8.8380                 6.3414

                     67                     68                     69
                      A                      A                      A
 Frequencies --   1254.1536              1254.4516              1271.8668
 Red. masses --      1.3185                 1.3017                 1.2480
 Frc consts  --      1.2219                 1.2069                 1.1895
 IR Inten    --      9.8118                 8.1074                19.1523

                     70                     71                     72
                      A                      A                      A
 Frequencies --   1292.5638              1293.2416              1294.6231
 Red. masses --      1.2062                 1.2170                 1.2457
 Frc consts  --      1.1873                 1.1992                 1.2302
 IR Inten    --      7.9559                 2.1681                 3.2865

                     73                     74                     75
                      A                      A                      A
 Frequencies --   1310.8619              1313.2750              1324.0379
 Red. masses --      1.1144                 1.2434                 1.0910
 Frc consts  --      1.1283                 1.2635                 1.1269
 IR Inten    --      0.0853                 0.7604                 0.0550

                     76                     77                     78
                      A                      A                      A
 Frequencies --   1325.4029              1344.7485              1355.2669
 Red. masses --      1.0859                 1.2152                 1.3231
 Frc consts  --      1.1239                 1.2948                 1.4318
 IR Inten    --      1.2465                54.5083                21.0109

                     79                     80                     81
                      A                      A                      A
 Frequencies --   1374.2759              1382.2715              1384.9950
 Red. masses --      1.3124                 1.3534                 1.3574
 Frc consts  --      1.4604                 1.5236                 1.5341
 IR Inten    --      3.2095                 1.9058                 3.6002

                     82                     83                     84
                      A                      A                      A
 Frequencies --   1390.3015              1392.6203              1401.1786
 Red. masses --      1.4055                 1.4813                 1.3707
 Frc consts  --      1.6007                 1.6927                 1.5856
 IR Inten    --      1.4938                 4.5775                 3.9667

                     85                     86                     87
                      A                      A                      A
 Frequencies --   1406.1804              1412.7037              1414.1045
 Red. masses --      1.2694                 1.2497                 1.2942
 Frc consts  --      1.4789                 1.4695                 1.5248
 IR Inten    --     17.4434                 1.4308                 7.6126

                     88                     89                     90
                      A                      A                      A
 Frequencies --   1423.8793              1426.4809              1461.5100
 Red. masses --      1.2761                 1.4301                 1.5572
 Frc consts  --      1.5244                 1.7145                 1.9597
 IR Inten    --     59.2877                18.8304                 1.8385

                     91                     92                     93
                      A                      A                      A
 Frequencies --   1475.7174              1485.9741              1487.7005
 Red. masses --      1.0781                 1.0735                 1.0648
 Frc consts  --      1.3833                 1.3966                 1.3886
 IR Inten    --      0.6240                 1.0828                 0.2489

                     94                     95                     96
                      A                      A                      A
 Frequencies --   1491.1125              1494.8538              1495.8242
 Red. masses --      1.0662                 1.0852                 1.0721
 Frc consts  --      1.3967                 1.4287                 1.4134
 IR Inten    --      2.3950                 1.4085                 0.1088

                     97                     98                     99
                      A                      A                      A
 Frequencies --   1496.5638              1499.9194              1501.5776
 Red. masses --      1.0607                 1.0401                 1.0558
 Frc consts  --      1.3998                 1.3786                 1.4026
 IR Inten    --      2.0824                 5.0919                 1.0485

                    100                    101                    102
                      A                      A                      A
 Frequencies --   1508.8741              1510.5779              1516.6991
 Red. masses --      1.0771                 1.0507                 1.0932
 Frc consts  --      1.4449                 1.4126                 1.4816
 IR Inten    --      5.0786                 7.9948                 0.8808

                    103                    104                    105
                      A                      A                      A
 Frequencies --   1517.2694              1529.6237              1539.1426
 Red. masses --      1.0850                 1.0901                 1.0911
 Frc consts  --      1.4717                 1.5027                 1.5229
 IR Inten    --      4.1654                 7.3005                 0.9303

                    106                    107                    108
                      A                      A                      A
 Frequencies --   2941.9840              2942.8548              2966.4757
 Red. masses --      1.0547                 1.0806                 1.0599
 Frc consts  --      5.3784                 5.5139                 5.4956
 IR Inten    --     39.2841                29.5494                10.1933

                    109                    110                    111
                      A                      A                      A
 Frequencies --   2966.5805              2967.8648              2973.5774
 Red. masses --      1.0656                 1.1046                 1.0609
 Frc consts  --      5.5256                 5.7323                 5.5271
 IR Inten    --     65.6443                48.6976                63.5894

                    112                    113                    114
                      A                      A                      A
 Frequencies --   2984.7481              2991.5218              2995.4062
 Red. masses --      1.0806                 1.0983                 1.0657
 Frc consts  --      5.6717                 5.7911                 5.6335
 IR Inten    --      7.2364                16.3710                 6.8450

                    115                    116                    117
                      A                      A                      A
 Frequencies --   3003.9749              3012.5858              3019.7851
 Red. masses --      1.0624                 1.0586                 1.0644
 Frc consts  --      5.6486                 5.6608                 5.7189
 IR Inten    --     37.9377                17.2274                35.8787

                    118                    119                    120
                      A                      A                      A
 Frequencies --   3021.6833              3027.4386              3029.1970
 Red. masses --      1.1047                 1.0494                 1.0410
 Frc consts  --      5.9428                 5.6667                 5.6281
 IR Inten    --     71.0394                18.3187                14.1846

                    121                    122                    123
                      A                      A                      A
 Frequencies --   3031.6376              3036.4084              3038.4913
 Red. masses --      1.0445                 1.0976                 1.1008
 Frc consts  --      5.6560                 5.9622                 5.9880
 IR Inten    --     53.0249                20.2985                 4.2015

                    124                    125                    126
                      A                      A                      A
 Frequencies --   3041.2645              3059.1733              3072.0581
 Red. masses --      1.0376                 1.0873                 1.1047
 Frc consts  --      5.6542                 5.9952                 6.1427
 IR Inten    --     30.1335                18.5003                32.9900

                    127                    128                    129
                      A                      A                      A
 Frequencies --   3077.3467              3080.3682              3097.0331
 Red. masses --      1.0979                 1.0979                 1.0970
 Frc consts  --      6.1256                 6.1379                 6.1991
 IR Inten    --      5.5242                82.7587                26.5197

                    130                    131                    132
                      A                      A                      A
 Frequencies --   3097.5373              3102.2008              3108.7726
 Red. masses --      1.1022                 1.1011                 1.1001
 Frc consts  --      6.2309                 6.2436                 6.2641
 IR Inten    --     59.4023                38.0050                57.2075

                    133                    134                    135
                      A                      A                      A
 Frequencies --   3111.4515              3121.1049              3814.2338
 Red. masses --      1.1016                 1.1000                 1.0661
 Frc consts  --      6.2833                 6.3132                 9.1380
 IR Inten    --     28.7645                17.0531                14.5469

 - Thermochemistry -
 -------------------
 Temperature   298.150 Kelvin.  Pressure   1.00000 Atm.
 Atom     1 has atomic number  6 and mass  12.00000

 Molecular mass:   246.21950 amu.
 Principal axes and moments of inertia in atomic units:
                           1         2         3
     Eigenvalues --  1893.84759********************
           X            0.99998   0.00691   0.00058
           Y           -0.00691   0.99993  -0.00992
           Z           -0.00065   0.00992   0.99995
 This molecule is an asymmetric top.
 Rotational symmetry number  1.
 Warning -- assumption of classical behavior for rotation
           may cause significant error
 Rotational temperatures (Kelvin)      0.04573     0.00421     0.00396
 Rotational constants (GHZ):           0.95295     0.08782     0.08251
 Zero-point vibrational energy    1125116.7 (Joules/Mol)
                                  268.90934 (Kcal/Mol)
 Warning -- explicit consideration of  33 degrees of freedom as
           vibrations may cause significant error
 Vibrational temperatures:     17.66    36.55    43.56    54.53    74.97
          (Kelvin)             83.80   108.67   114.20   124.14   132.69
                              179.37   194.66   198.93   216.84   237.36
                              252.56   289.21   339.43   355.01   358.36
                              375.64   387.40   435.85   456.57   510.58
                              528.48   589.56   634.09   642.43   700.17
                              719.83   807.69   824.84  1070.98  1082.21
                             1170.93  1193.99  1202.90  1218.71  1242.02
                             1270.15  1304.88  1331.40  1371.43  1389.20
                             1425.29  1460.90  1469.52  1490.92  1500.01
                             1509.66  1530.34  1541.92  1555.94  1584.20
                             1612.29  1626.73  1648.07  1655.81  1669.34
                             1681.93  1683.92  1692.84  1723.91  1731.39
                             1771.73  1804.45  1804.88  1829.93  1859.71
                             1860.69  1862.67  1886.04  1889.51  1905.00
                             1906.96  1934.79  1949.93  1977.28  1988.78
                             1992.70  2000.33  2003.67  2015.98  2023.18
                             2032.57  2034.58  2048.64  2052.39  2102.79
                             2123.23  2137.99  2140.47  2145.38  2150.76
                             2152.16  2153.22  2158.05  2160.44  2170.93
                             2173.38  2182.19  2183.01  2200.79  2214.48
                             4232.86  4234.11  4268.10  4268.25  4270.10
                             4278.31  4294.39  4304.13  4309.72  4322.05
                             4334.44  4344.80  4347.53  4355.81  4358.34
                             4361.85  4368.71  4371.71  4375.70  4401.47
                             4420.01  4427.62  4431.96  4455.94  4456.67
                             4463.37  4472.83  4476.68  4490.57  5487.83

 Zero-point correction=                           0.428534 (Hartree/Particle)
 Thermal correction to Energy=                    0.451240
 Thermal correction to Enthalpy=                  0.452184
 Thermal correction to Gibbs Free Energy=         0.372433
 Sum of electronic and zero-point Energies=           -776.843904
 Sum of electronic and thermal Energies=              -776.821198
 Sum of electronic and thermal Enthalpies=            -776.820254
 Sum of electronic and thermal Free Energies=         -776.900005

                     E (Thermal)             CV                S
                      KCal/Mol        Cal/Mol-Kelvin    Cal/Mol-Kelvin
 Total                  283.157             79.775            167.849
 Electronic               0.000              0.000              0.000
 Translational            0.889              2.981             42.404
 Rotational               0.889              2.981             35.097
 Vibrational            281.380             73.813             90.348
 Vibration     1          0.593              1.987              7.604
 Vibration     2          0.593              1.985              6.159
 Vibration     3          0.594              1.984              5.811
 Vibration     4          0.594              1.982              5.366
 Vibration     5          0.596              1.977              4.736
 Vibration     6          0.596              1.974              4.516
 Vibration     7          0.599              1.965              4.004
 Vibration     8          0.600              1.963              3.906
 Vibration     9          0.601              1.959              3.743
 Vibration    10          0.602              1.955              3.612
 Vibration    11          0.610              1.928              3.027
 Vibration    12          0.613              1.918              2.869
 Vibration    13          0.614              1.915              2.828
 Vibration    14          0.618              1.902              2.663
 Vibration    15          0.623              1.885              2.492
 Vibration    16          0.627              1.873              2.375
 Vibration    17          0.638              1.838              2.124
 Vibration    18          0.655              1.786              1.833
 Vibration    19          0.661              1.768              1.754
 Vibration    20          0.662              1.764              1.737
 Vibration    21          0.669              1.744              1.655
 Vibration    22          0.674              1.730              1.601
 Vibration    23          0.694              1.668              1.401
 Vibration    24          0.704              1.640              1.324
 Vibration    25          0.731              1.565              1.144
 Vibration    26          0.740              1.539              1.091
 Vibration    27          0.774              1.449              0.927
 Vibration    28          0.801              1.381              0.824
 Vibration    29          0.806              1.369              0.806
 Vibration    30          0.843              1.280              0.692
 Vibration    31          0.856              1.249              0.657
 Vibration    32          0.917              1.115              0.521
 Vibration    33          0.930              1.089              0.498

                           ! Non-Optimized Parameters !
 Normal termination of Gaussian 16 at Tue May 23 09:36:49 2023.
