 Gaussian 16, Revision A.03,
 Gaussian 16:  ES64L-G16RevA.03 25-Dec-2016

 -----------------------------
 # opt freq b3lyp/6-31g(2df,p)
 -----------------------------

 -------------------
 Title Card Required
 -------------------
 Symbolic Z-matrix:
 Charge =  0 Multiplicity = 1

 SCF Done:  E(RB3LYP) =  -1580.02638750     A.U. after   14 cycles
 SCF Done:  E(RB3LYP) =  -1580.04456313     A.U. after   13 cycles
 SCF Done:  E(RB3LYP) =  -1580.05312459     A.U. after   13 cycles
 SCF Done:  E(RB3LYP) =  -1580.05914537     A.U. after   13 cycles
 SCF Done:  E(RB3LYP) =  -1580.06192933     A.U. after   12 cycles
 SCF Done:  E(RB3LYP) =  -1580.06401004     A.U. after   14 cycles
 SCF Done:  E(RB3LYP) =  -1580.06593203     A.U. after   12 cycles
 SCF Done:  E(RB3LYP) =  -1580.06721903     A.U. after   12 cycles
 SCF Done:  E(RB3LYP) =  -1580.06808230     A.U. after   13 cycles
 SCF Done:  E(RB3LYP) =  -1580.06844981     A.U. after   12 cycles
 SCF Done:  E(RB3LYP) =  -1580.06860689     A.U. after   10 cycles
 SCF Done:  E(RB3LYP) =  -1580.06861719     A.U. after    9 cycles
 SCF Done:  E(RB3LYP) =  -1580.06862279     A.U. after    9 cycles
 SCF Done:  E(RB3LYP) =  -1580.06862497     A.U. after    9 cycles
 SCF Done:  E(RB3LYP) =  -1580.06862616     A.U. after    9 cycles
 SCF Done:  E(RB3LYP) =  -1580.06862691     A.U. after    8 cycles
 SCF Done:  E(RB3LYP) =  -1580.06862706     A.U. after    7 cycles
 SCF Done:  E(RB3LYP) =  -1580.06862714     A.U. after    7 cycles
 SCF Done:  E(RB3LYP) =  -1580.06862716     A.U. after    6 cycles
 Optimization completed.
    -- Stationary point found.
 Normal termination of Gaussian 16 at Sat May 27 19:00:48 2023.

 ----------------------------------------------------------------------
 #N Geom=AllCheck Guess=TCheck SCRF=Check GenChk RB3LYP/6-31G(2df,p) Fr
 eq
 ----------------------------------------------------------------------

 Structure from the checkpoint file:  "CCCCNPqCSSrCqdOrO.chk"
 -------------------
 Title Card Required
 -------------------
 Charge =  0 Multiplicity = 1

                         Standard orientation:
 ---------------------------------------------------------------------
 Center     Atomic      Atomic             Coordinates (Angstroms)
 Number     Number       Type             X           Y           Z
 ---------------------------------------------------------------------
      1          6           0       -5.413407    1.740500    0.342018
      2          6           0       -4.528172    0.691175   -0.335746
      3          6           0       -3.123272    0.612622    0.270639
      4          6           0       -2.243963   -0.444666   -0.399939
      5          7           0       -0.909366   -0.489643    0.207488
      6         15           0        0.427817   -1.003288   -0.674473
      7          6           0        1.827311   -0.079201    0.166082
      8         16           0        2.004392    1.558212   -0.639860
      9         16           0        3.514533    2.465972    0.453633
     10          6           0        0.822455   -2.625895    0.238623
     11          8           0        0.229691   -2.967589    1.224816
     12          8           0        1.814171   -3.391447   -0.274646
     13          1           0       -6.408494    1.775858   -0.111928
     14          1           0       -4.974001    2.740746    0.260933
     15          1           0       -5.541018    1.521594    1.407949
     16          1           0       -4.448050    0.916492   -1.407476
     17          1           0       -5.009793   -0.293287   -0.268399
     18          1           0       -3.200997    0.387076    1.343624
     19          1           0       -2.622303    1.585490    0.196171
     20          1           0       -2.120260   -0.205625   -1.461936
     21          1           0       -2.742800   -1.424832   -0.350804
     22          1           0       -0.924821   -0.828029    1.165480
     23          1           0        2.754846   -0.646051    0.048308
     24          1           0        1.612876    0.046493    1.230099
     25          1           0        2.763793    3.042531    1.419141
     26          1           0        2.109918   -3.023502   -1.118272
 ---------------------------------------------------------------------

 SCF Done:  E(RB3LYP) =  -1580.06862716     A.U. after    1 cycles

 The electronic state is 1-A.
 Alpha  occ. eigenvalues --  -88.90328 -88.89921 -77.11773 -19.20182 -19.14482
 Alpha  occ. eigenvalues --  -14.33466 -10.31613 -10.23032 -10.21979 -10.18511
 Alpha  occ. eigenvalues --  -10.18372 -10.17620  -7.96522  -7.96495  -6.58452
 Alpha  occ. eigenvalues --   -5.93077  -5.92959  -5.92652  -5.92591  -5.91989
 Alpha  occ. eigenvalues --   -5.91971  -4.74747  -4.74670  -4.74282  -1.11083
 Alpha  occ. eigenvalues --   -1.03314  -0.90791  -0.81830  -0.79386  -0.74589
 Alpha  occ. eigenvalues --   -0.71545  -0.65787  -0.63024  -0.62011  -0.59333
 Alpha  occ. eigenvalues --   -0.58505  -0.53021  -0.48257  -0.46914  -0.46440
 Alpha  occ. eigenvalues --   -0.45644  -0.45286  -0.44674  -0.43345  -0.41985
 Alpha  occ. eigenvalues --   -0.40175  -0.39823  -0.38629  -0.37918  -0.36080
 Alpha  occ. eigenvalues --   -0.34504  -0.33896  -0.33472  -0.33211  -0.32960
 Alpha  occ. eigenvalues --   -0.30481  -0.26514  -0.25485  -0.25047  -0.24525
 Alpha virt. eigenvalues --   -0.04097  -0.02277   0.00753   0.02925   0.04043
 Alpha virt. eigenvalues --    0.05759   0.06979   0.08718   0.10005   0.11285
 Alpha virt. eigenvalues --    0.12424   0.12580   0.13386   0.14363   0.15869

 Mulliken charges:
               1
     1  C   -0.380344
     2  C   -0.163859
     3  C   -0.169435
     4  C   -0.161771
     5  N   -0.252396
     6  P   -0.029787
     7  C   -0.226509
     8  S   -0.061226
     9  S   -0.207213
    10  C    0.323087
    11  O   -0.293646
    12  O   -0.364614
    13  H    0.113528
    14  H    0.116562
    15  H    0.115233
    16  H    0.098483
    17  H    0.097848
    18  H    0.093372
    19  H    0.107861
    20  H    0.123657
    21  H    0.104395
    22  H    0.238742
    23  H    0.142316
    24  H    0.147715
    25  H    0.170604
    26  H    0.317398
 Sum of Mulliken charges =  -0.00000

 Dipole moment (field-independent basis, Debye):
    X=             -0.9431    Y=              0.6614    Z=             -0.3076  Tot=              1.1923
 Quadrupole moment (field-independent basis, Debye-Ang):
   XX=            -91.4287   YY=           -103.5807   ZZ=            -94.2690
   XY=             -3.3726   XZ=              0.3029   YZ=             10.5736

  Exact polarizability: 167.810  11.980 154.663   1.991   3.818 113.923
 Approx polarizability: 222.207  20.478 226.776   1.658   1.731 201.376

                      1                      2                      3
                      A                      A                      A
 Frequencies --     14.8766                26.3527                37.0631
 Red. masses --      5.9082                 5.8313                 3.3982
 Frc consts  --      0.0008                 0.0024                 0.0028
 IR Inten    --      0.0468                 0.3270                 1.8716

                      4                      5                      6
                      A                      A                      A
 Frequencies --     43.4131                62.3738                71.6083
 Red. masses --      3.8304                 2.8995                 8.2910
 Frc consts  --      0.0043                 0.0066                 0.0250
 IR Inten    --      2.5362                 3.2024                 3.8087

                      7                      8                      9
                      A                      A                      A
 Frequencies --     96.6555               108.6926               135.4509
 Red. masses --      3.2282                 2.9137                 2.3846
 Frc consts  --      0.0178                 0.0203                 0.0258
 IR Inten    --      1.0961                 1.7614                 1.9174

                     10                     11                     12
                      A                      A                      A
 Frequencies --    177.0709               187.8696               196.3517
 Red. masses --      4.8110                 5.6557                 3.7665
 Frc consts  --      0.0889                 0.1176                 0.0856
 IR Inten    --      1.7843                 3.8296                 9.8319

                     13                     14                     15
                      A                      A                      A
 Frequencies --    217.0906               250.3379               284.0337
 Red. masses --      3.3647                 1.1459                 4.9481
 Frc consts  --      0.0934                 0.0423                 0.2352
 IR Inten    --      7.6898                 0.2180                 4.7139

                     16                     17                     18
                      A                      A                      A
 Frequencies --    322.9927               330.9580               397.9494
 Red. masses --      1.2869                 2.7221                 3.4077
 Frc consts  --      0.0791                 0.1757                 0.3180
 IR Inten    --      6.0934                15.0570                17.4481

                     19                     20                     21
                      A                      A                      A
 Frequencies --    436.8946               449.5497               499.9880
 Red. masses --      3.3494                 6.7016                 1.3207
 Frc consts  --      0.3767                 0.7980                 0.1945
 IR Inten    --      5.7851                 7.0148                72.7373

                     22                     23                     24
                      A                      A                      A
 Frequencies --    506.2904               599.7563               623.4162
 Red. masses --     20.2901                 1.8909                 3.7696
 Frc consts  --      3.0643                 0.4007                 0.8632
 IR Inten    --      0.7482                70.3278                 8.0334

                     25                     26                     27
                      A                      A                      A
 Frequencies --    687.8841               713.4208               741.1412
 Red. masses --      4.3994                 7.9578                 1.0729
 Frc consts  --      1.2265                 2.3864                 0.3472
 IR Inten    --     20.5050                15.2964                 4.5164

                     28                     29                     30
                      A                      A                      A
 Frequencies --    745.4759               792.1030               800.0231
 Red. masses --      7.4431                 1.5265                 1.3026
 Frc consts  --      2.4371                 0.5643                 0.4912
 IR Inten    --      6.5189                12.8788                 7.6968

                     31                     32                     33
                      A                      A                      A
 Frequencies --    859.9026               878.3903               915.3626
 Red. masses --      2.3048                 1.1053                 1.7257
 Frc consts  --      1.0041                 0.5025                 0.8519
 IR Inten    --     39.2650                 7.1831                13.2202

                     34                     35                     36
                      A                      A                      A
 Frequencies --    956.6860              1017.0787              1065.9719
 Red. masses --      1.2502                 3.7513                 2.3593
 Frc consts  --      0.6742                 2.2863                 1.5795
 IR Inten    --      3.0075                 3.9568                 0.0803

                     37                     38                     39
                      A                      A                      A
 Frequencies --   1082.4565              1108.7774              1133.1456
 Red. masses --      1.0842                 3.0182                 2.4743
 Frc consts  --      0.7485                 2.1862                 1.8719
 IR Inten    --      5.9581                91.7363                27.5919

                     40                     41                     42
                      A                      A                      A
 Frequencies --   1138.1269              1165.5689              1169.0370
 Red. masses --      3.1673                 1.5097                 1.2535
 Frc consts  --      2.4172                 1.2084                 1.0093
 IR Inten    --    101.3633                14.8157                 2.2720

                     43                     44                     45
                      A                      A                      A
 Frequencies --   1245.1628              1280.7067              1288.1010
 Red. masses --      1.3791                 1.6230                 1.2927
 Frc consts  --      1.2598                 1.5685                 1.2637
 IR Inten    --      4.2921               464.5254                 0.1935

                     46                     47                     48
                      A                      A                      A
 Frequencies --   1320.8014              1328.6284              1380.8920
 Red. masses --      1.1845                 1.0592                 1.3587
 Frc consts  --      1.2175                 1.1016                 1.5265
 IR Inten    --      5.4569                 2.2561                 0.5188

                     49                     50                     51
                      A                      A                      A
 Frequencies --   1406.3461              1415.2194              1426.3047
 Red. masses --      1.4548                 1.2504                 1.0955
 Frc consts  --      1.6953                 1.4755                 1.3130
 IR Inten    --     10.8815                 2.7764                17.9780

                     52                     53                     54
                      A                      A                      A
 Frequencies --   1446.3676              1485.4863              1491.8103
 Red. masses --      1.2628                 1.0674                 1.0675
 Frc consts  --      1.5564                 1.3878                 1.3998
 IR Inten    --     25.0163                 0.4814                 0.1917

                     55                     56                     57
                      A                      A                      A
 Frequencies --   1500.2317              1505.1962              1515.4199
 Red. masses --      1.0401                 1.0710                 1.0924
 Frc consts  --      1.3792                 1.4296                 1.4780
 IR Inten    --      5.4790                 3.6923                 2.9834

                     58                     59                     60
                      A                      A                      A
 Frequencies --   1831.9604              2617.2907              2982.2846
 Red. masses --     10.4208                 1.0395                 1.0693
 Frc consts  --     20.6055                 4.1954                 5.6031
 IR Inten    --    201.4366                 5.1474                48.1487

                     61                     62                     63
                      A                      A                      A
 Frequencies --   3008.2103              3016.7911              3030.5163
 Red. masses --      1.0619                 1.0621                 1.0363
 Frc consts  --      5.6617                 5.6950                 5.6077
 IR Inten    --      2.1925                44.7208                32.7444

                     64                     65                     66
                      A                      A                      A
 Frequencies --   3039.3783              3050.9487              3057.2944
 Red. masses --      1.0960                 1.0545                 1.0930
 Frc consts  --      5.9655                 5.7833                 6.0193
 IR Inten    --      7.6408                 6.6590                10.1216

                     67                     68                     69
                      A                      A                      A
 Frequencies --   3075.7609              3097.6668              3103.2973
 Red. masses --      1.1004                 1.1021                 1.1011
 Frc consts  --      6.1334                 6.2310                 6.2478
 IR Inten    --     32.3235                54.8505                37.3944

                     70                     71                     72
                      A                      A                      A
 Frequencies --   3119.2278              3514.2159              3770.7245
 Red. masses --      1.1097                 1.0732                 1.0659
 Frc consts  --      6.3614                 7.8088                 8.9295
 IR Inten    --      2.2690                16.4543                42.8662

 - Thermochemistry -
 -------------------
 Temperature   298.150 Kelvin.  Pressure   1.00000 Atm.
 Atom     1 has atomic number  6 and mass  12.00000

 Molecular mass:   227.02036 amu.
 Principal axes and moments of inertia in atomic units:
                           1         2         3
     Eigenvalues --  3144.059676038.893718608.38579
           X            0.99902  -0.04429   0.00034
           Y            0.04428   0.99894   0.01271
           Z           -0.00090  -0.01269   0.99992
 This molecule is an asymmetric top.
 Rotational symmetry number  1.
 Warning -- assumption of classical behavior for rotation
           may cause significant error
 Rotational temperatures (Kelvin)      0.02755     0.01434     0.01006
 Rotational constants (GHZ):           0.57402     0.29885     0.20965
 Zero-point vibrational energy     534729.7 (Joules/Mol)
                                  127.80347 (Kcal/Mol)
 Warning -- explicit consideration of  23 degrees of freedom as
           vibrations may cause significant error
 Vibrational temperatures:     21.40    37.92    53.33    62.46    89.74
          (Kelvin)            103.03   139.07   156.38   194.88   254.77
                              270.30   282.51   312.34   360.18   408.66
                              464.71   476.17   572.56   628.59   646.80
                              719.37   728.44   862.92   896.96   989.71
                             1026.45  1066.34  1072.57  1139.66  1151.05
                             1237.21  1263.81  1317.00  1376.46  1463.35
                             1533.70  1557.41  1595.28  1630.34  1637.51
                             1676.99  1681.98  1791.51  1842.65  1853.29
                             1900.34  1911.60  1986.80  2023.42  2036.19
                             2052.13  2081.00  2137.28  2146.38  2158.50
                             2165.64  2180.35  2635.78  3765.70  4290.84
                             4328.14  4340.49  4360.24  4372.99  4389.63
                             4398.76  4425.33  4456.85  4464.95  4487.87
                             5056.17  5425.23

 Zero-point correction=                           0.203668 (Hartree/Particle)
 Thermal correction to Energy=                    0.220424
 Thermal correction to Enthalpy=                  0.221369
 Thermal correction to Gibbs Free Energy=         0.154944
 Sum of electronic and zero-point Energies=          -1579.864959
 Sum of electronic and thermal Energies=             -1579.848203
 Sum of electronic and thermal Enthalpies=           -1579.847259
 Sum of electronic and thermal Free Energies=        -1579.913683

                     E (Thermal)             CV                S
                      KCal/Mol        Cal/Mol-Kelvin    Cal/Mol-Kelvin
 Total                  138.318             56.790            139.801
 Electronic               0.000              0.000              0.000
 Translational            0.889              2.981             42.162
 Rotational               0.889              2.981             33.457
 Vibrational            136.541             50.829             64.182
 Vibration     1          0.593              1.986              7.222
 Vibration     2          0.593              1.985              6.087
 Vibration     3          0.594              1.982              5.410
 Vibration     4          0.595              1.980              5.097
 Vibration     5          0.597              1.972              4.381
 Vibration     6          0.598              1.968              4.109
 Vibration     7          0.603              1.952              3.521
 Vibration     8          0.606              1.942              3.292
 Vibration     9          0.613              1.918              2.867
 Vibration    10          0.628              1.871              2.359
 Vibration    11          0.633              1.857              2.249
 Vibration    12          0.636              1.845              2.167
 Vibration    13          0.646              1.815              1.983
 Vibration    14          0.663              1.762              1.728
 Vibration    15          0.682              1.703              1.509
 Vibration    16          0.708              1.629              1.295
 Vibration    17          0.713              1.614              1.255
 Vibration    18          0.764              1.475              0.970
 Vibration    19          0.797              1.390              0.836
 Vibration    20          0.808              1.362              0.797
 Vibration    21          0.855              1.250              0.658
 Vibration    22          0.862              1.236              0.643
 Vibration    23          0.958              1.032              0.450

                           ! Non-Optimized Parameters !
 Normal termination of Gaussian 16 at Sat May 27 19:54:02 2023.
