 Gaussian 16, Revision A.03,
 Gaussian 16:  ES64L-G16RevA.03 25-Dec-2016

 -----------------------------
 # opt freq b3lyp/6-31g(2df,p)
 -----------------------------

 -------------------
 Title Card Required
 -------------------
 Symbolic Z-matrix:
 Charge =  0 Multiplicity = 1

 SCF Done:  E(RB3LYP) =  -845.013468278     A.U. after   13 cycles
 SCF Done:  E(RB3LYP) =  -845.037773183     A.U. after   12 cycles
 SCF Done:  E(RB3LYP) =  -845.046874624     A.U. after   13 cycles
 SCF Done:  E(RB3LYP) =  -845.054937244     A.U. after   12 cycles
 SCF Done:  E(RB3LYP) =  -845.058551740     A.U. after   13 cycles
 SCF Done:  E(RB3LYP) =  -845.064453956     A.U. after   12 cycles
 SCF Done:  E(RB3LYP) =  -845.070726678     A.U. after   13 cycles
 SCF Done:  E(RB3LYP) =  -845.075275997     A.U. after   13 cycles
 SCF Done:  E(RB3LYP) =  -845.075509001     A.U. after   13 cycles
 SCF Done:  E(RB3LYP) =  -845.080521988     A.U. after   12 cycles
 SCF Done:  E(RB3LYP) =  -845.094792743     A.U. after   11 cycles
 SCF Done:  E(RB3LYP) =  -845.094813668     A.U. after    9 cycles
 SCF Done:  E(RB3LYP) =  -845.094823075     A.U. after    9 cycles
 SCF Done:  E(RB3LYP) =  -845.094824965     A.U. after    8 cycles
 SCF Done:  E(RB3LYP) =  -845.094825460     A.U. after    7 cycles
 SCF Done:  E(RB3LYP) =  -845.094826246     A.U. after    8 cycles
 SCF Done:  E(RB3LYP) =  -845.094826391     A.U. after    7 cycles
 SCF Done:  E(RB3LYP) =  -845.094826422     A.U. after    6 cycles
 SCF Done:  E(RB3LYP) =  -845.094826417     A.U. after    6 cycles
 Optimization completed.
    -- Stationary point found.
 Normal termination of Gaussian 16 at Mon May 22 12:14:22 2023.

 ----------------------------------------------------------------------
 #N Geom=AllCheck Guess=TCheck SCRF=Check GenChk RB3LYP/6-31G(2df,p) Fr
 eq
 ----------------------------------------------------------------------

 Structure from the checkpoint file:  "CCCCqCOCrCqCCrNNqCCOrOO.chk"
 -------------------
 Title Card Required
 -------------------
 Charge =  0 Multiplicity = 1

                         Standard orientation:
 ---------------------------------------------------------------------
 Center     Atomic      Atomic             Coordinates (Angstroms)
 Number     Number       Type             X           Y           Z
 ---------------------------------------------------------------------
      1          6           0        4.978264    1.428678   -0.861466
      2          6           0        3.808077    0.442696   -0.917803
      3          6           0        2.562100    0.974938   -0.195175
      4          6           0        1.343199    0.036775   -0.247338
      5          6           0        1.635252   -1.305875    0.452193
      6          8           0        2.227516   -2.203723   -0.466955
      7          6           0        2.552739   -3.443140    0.116004
      8          6           0        0.032469    0.634519    0.331628
      9          6           0       -0.233444    2.128907    0.068917
     10          6           0        0.324799    3.078530    1.134563
     11          7           0       -1.073549   -0.140054   -0.278620
     12          7           0       -2.266910   -0.079599    0.440838
     13          6           0       -3.373335   -0.590178   -0.376784
     14          6           0       -3.727556    0.392783   -1.497026
     15          8           0       -4.852495   -0.057929   -2.233433
     16          8           0       -2.211682   -0.983581    1.580567
     17          8           0       -1.976482   -0.201324    2.762092
     18          1           0        5.854326    1.038110   -1.388809
     19          1           0        5.277441    1.632082    0.173226
     20          1           0        4.714187    2.388212   -1.320782
     21          1           0        4.109923   -0.518429   -0.490835
     22          1           0        3.552174    0.231865   -1.964094
     23          1           0        2.298158    1.939577   -0.642018
     24          1           0        2.816436    1.181984    0.853937
     25          1           0        1.144528   -0.193747   -1.303600
     26          1           0        0.713185   -1.751152    0.861672
     27          1           0        2.305892   -1.141595    1.313712
     28          1           0        2.986628   -4.070456   -0.666572
     29          1           0        1.662649   -3.947738    0.524849
     30          1           0        3.285323   -3.333546    0.931341
     31          1           0        0.034141    0.478731    1.419780
     32          1           0       -1.320572    2.249166    0.045687
     33          1           0        0.126072    2.403275   -0.930298
     34          1           0       -0.078273    2.823741    2.120953
     35          1           0        0.039530    4.112652    0.916145
     36          1           0        1.414861    3.045790    1.204490
     37          1           0       -0.806634   -1.116085   -0.415281
     38          1           0       -4.235999   -0.718344    0.279514
     39          1           0       -3.128676   -1.577256   -0.807718
     40          1           0       -2.852105    0.561008   -2.135497
     41          1           0       -4.010211    1.354644   -1.058496
     42          1           0       -4.574579   -0.805811   -2.771351
     43          1           0       -2.855425    0.171556    2.930076
 ---------------------------------------------------------------------

 SCF Done:  E(RB3LYP) =  -845.094826417     A.U. after    1 cycles

 The electronic state is 1-A.
 Alpha  occ. eigenvalues --  -19.21437 -19.19025 -19.14065 -19.13871 -14.40300
 Alpha  occ. eigenvalues --  -14.34839 -10.22813 -10.22451 -10.22412 -10.21462
 Alpha  occ. eigenvalues --  -10.20790 -10.18585 -10.17483 -10.17168 -10.17074
 Alpha  occ. eigenvalues --  -10.16751 -10.16744  -1.13240  -1.03269  -1.02010
 Alpha  occ. eigenvalues --   -0.99981  -0.88706  -0.82084  -0.78977  -0.76077
 Alpha  occ. eigenvalues --   -0.74828  -0.70153  -0.69000  -0.65601  -0.64190
 Alpha  occ. eigenvalues --   -0.61536  -0.59722  -0.57598  -0.56079  -0.54945
 Alpha  occ. eigenvalues --   -0.50772  -0.49932  -0.49338  -0.48425  -0.47509
 Alpha  occ. eigenvalues --   -0.46647  -0.46300  -0.44387  -0.43842  -0.43599
 Alpha  occ. eigenvalues --   -0.43308  -0.41797  -0.40964  -0.40205  -0.39881
 Alpha  occ. eigenvalues --   -0.38905  -0.38408  -0.37508  -0.36226  -0.34902
 Alpha  occ. eigenvalues --   -0.34298  -0.33575  -0.33214  -0.32978  -0.32646
 Alpha  occ. eigenvalues --   -0.31761  -0.30914  -0.30790  -0.30332  -0.29637
 Alpha  occ. eigenvalues --   -0.27212  -0.25645  -0.25345  -0.23599
 Alpha virt. eigenvalues --    0.03197   0.06977   0.07410   0.08050   0.09123
 Alpha virt. eigenvalues --    0.09784   0.11107   0.11667   0.11775   0.13021
 Alpha virt. eigenvalues --    0.13587   0.13702   0.14336   0.14442   0.14923

 Mulliken charges:
               1
     1  C   -0.384041
     2  C   -0.164791
     3  C   -0.205942
     4  C   -0.024418
     5  C   -0.084279
     6  O   -0.229776
     7  C   -0.231520
     8  C    0.050058
     9  C   -0.188412
    10  C   -0.392727
    11  N   -0.256296
    12  N    0.002318
    13  C   -0.127089
    14  C   -0.072145
    15  O   -0.412348
    16  O   -0.195437
    17  O   -0.297390
    18  H    0.109652
    19  H    0.110334
    20  H    0.110569
    21  H    0.107461
    22  H    0.095820
    23  H    0.098555
    24  H    0.093478
    25  H    0.086573
    26  H    0.096107
    27  H    0.086771
    28  H    0.125999
    29  H    0.104733
    30  H    0.104849
    31  H    0.095819
    32  H    0.105956
    33  H    0.093216
    34  H    0.119702
    35  H    0.109468
    36  H    0.117800
    37  H    0.220284
    38  H    0.119123
    39  H    0.082157
    40  H    0.111272
    41  H    0.119201
    42  H    0.285183
    43  H    0.304155
 Sum of Mulliken charges =  -0.00000

 Dipole moment (field-independent basis, Debye):
    X=              0.3154    Y=             -0.8963    Z=              0.1357  Tot=              0.9599
 Quadrupole moment (field-independent basis, Debye-Ang):
   XX=           -110.3340   YY=           -101.7994   ZZ=           -105.5256
   XY=              0.3562   XZ=             -1.8402   YZ=              4.0363

  Exact polarizability: 176.438   1.342 155.047  -2.135   3.947 143.157
 Approx polarizability: 214.775  -0.384 211.410  -0.800   5.534 223.621

                      1                      2                      3
                      A                      A                      A
 Frequencies --     21.4326                25.8131                42.2033
 Red. masses --      5.2056                 4.3197                 4.3560
 Frc consts  --      0.0014                 0.0017                 0.0046
 IR Inten    --      0.2098                 0.0839                 0.6305

                      4                      5                      6
                      A                      A                      A
 Frequencies --     56.0821                74.2258                76.9973
 Red. masses --      4.0002                 3.9649                 2.0083
 Frc consts  --      0.0074                 0.0129                 0.0070
 IR Inten    --      1.4395                 3.2375                 2.2888

                      7                      8                      9
                      A                      A                      A
 Frequencies --     80.0707                81.7275                94.8082
 Red. masses --      2.3442                 1.9871                 2.7022
 Frc consts  --      0.0089                 0.0078                 0.0143
 IR Inten    --      1.1390                 0.2971                 3.4523

                     10                     11                     12
                      A                      A                      A
 Frequencies --    113.2969               117.2469               125.5506
 Red. masses --      2.0908                 2.6795                 3.0410
 Frc consts  --      0.0158                 0.0217                 0.0282
 IR Inten    --      0.4746                 2.3408                 1.9163

                     13                     14                     15
                      A                      A                      A
 Frequencies --    157.8154               186.0659               198.7364
 Red. masses --      3.6387                 1.6847                 2.4383
 Frc consts  --      0.0534                 0.0344                 0.0567
 IR Inten    --      2.5555                10.6153                 7.6322

                     16                     17                     18
                      A                      A                      A
 Frequencies --    218.0353               232.9469               247.5987
 Red. masses --      2.7185                 1.2947                 1.3350
 Frc consts  --      0.0761                 0.0414                 0.0482
 IR Inten    --      2.5339                 2.5955                 9.4136

                     19                     20                     21
                      A                      A                      A
 Frequencies --    252.9521               261.5950               276.5109
 Red. masses --      1.2998                 1.4712                 3.2017
 Frc consts  --      0.0490                 0.0593                 0.1442
 IR Inten    --     26.6477                16.8967                 7.1569

                     22                     23                     24
                      A                      A                      A
 Frequencies --    286.7296               300.3929               322.9762
 Red. masses --      2.7536                 1.3283                 2.7638
 Frc consts  --      0.1334                 0.0706                 0.1699
 IR Inten    --     12.9634               119.1120                 2.0230

                     25                     26                     27
                      A                      A                      A
 Frequencies --    351.5698               368.1625               395.3924
 Red. masses --      3.3210                 3.5268                 3.6784
 Frc consts  --      0.2418                 0.2816                 0.3388
 IR Inten    --      3.2414                 5.3340                 2.4075

                     28                     29                     30
                      A                      A                      A
 Frequencies --    420.2705               444.8663               487.5348
 Red. masses --      4.3162                 3.1389                 2.9613
 Frc consts  --      0.4492                 0.3660                 0.4147
 IR Inten    --     10.3982                 4.8290                 2.3421

                     31                     32                     33
                      A                      A                      A
 Frequencies --    490.8939               528.6149               589.3017
 Red. masses --      2.9821                 2.8192                 2.5550
 Frc consts  --      0.4234                 0.4642                 0.5228
 IR Inten    --      4.2127                 7.1359                 2.5336

                     34                     35                     36
                      A                      A                      A
 Frequencies --    642.9487               729.7290               749.1278
 Red. masses --      4.0885                 7.2213                 1.1032
 Frc consts  --      0.9958                 2.2656                 0.3648
 IR Inten    --      3.1234                21.5133                 2.5831

                     37                     38                     39
                      A                      A                      A
 Frequencies --    772.5061               800.5867               815.4901
 Red. masses --      1.3736                 1.9610                 1.2332
 Frc consts  --      0.4830                 0.7405                 0.4832
 IR Inten    --     14.1818                28.3150                 7.1677

                     40                     41                     42
                      A                      A                      A
 Frequencies --    868.3818               876.3981               903.6445
 Red. masses --      1.3072                 2.0934                 1.8991
 Frc consts  --      0.5808                 0.9473                 0.9137
 IR Inten    --      1.3859                 1.3419                 2.0605

                     43                     44                     45
                      A                      A                      A
 Frequencies --    924.2045               938.5293               964.8909
 Red. masses --      9.2245                 2.4734                 1.9156
 Frc consts  --      4.6423                 1.2837                 1.0508
 IR Inten    --     22.7164                 6.6625                10.1844

                     46                     47                     48
                      A                      A                      A
 Frequencies --    984.3055              1021.3735              1030.5784
 Red. masses --      2.4357                 2.2550                 2.0189
 Frc consts  --      1.3904                 1.3860                 1.2634
 IR Inten    --     22.8965                52.1705                11.7604

                     49                     50                     51
                      A                      A                      A
 Frequencies --   1036.9400              1044.5758              1049.1868
 Red. masses --      2.7773                 2.3069                 2.5946
 Frc consts  --      1.7595                 1.4831                 1.6828
 IR Inten    --      1.5064                 3.7648                14.1737

                     52                     53                     54
                      A                      A                      A
 Frequencies --   1072.6470              1074.4187              1092.7831
 Red. masses --      2.1881                 3.2682                 2.3613
 Frc consts  --      1.4833                 2.2228                 1.6614
 IR Inten    --     19.9152                86.8558                13.6752

                     55                     56                     57
                      A                      A                      A
 Frequencies --   1110.4730              1124.6352              1149.2808
 Red. masses --      1.8739                 2.2771                 3.1372
 Frc consts  --      1.3615                 1.6969                 2.4415
 IR Inten    --      2.7959                 5.2488               103.8181

                     58                     59                     60
                      A                      A                      A
 Frequencies --   1160.3003              1167.5369              1173.2521
 Red. masses --      2.1362                 2.2114                 1.8850
 Frc consts  --      1.6944                 1.7761                 1.5288
 IR Inten    --     43.7679                25.2411                 3.4321

                     61                     62                     63
                      A                      A                      A
 Frequencies --   1191.5708              1197.7500              1226.6185
 Red. masses --      1.4977                 3.8678                 1.6912
 Frc consts  --      1.2529                 3.2692                 1.4992
 IR Inten    --      4.9235                 6.7170                22.7466

                     64                     65                     66
                      A                      A                      A
 Frequencies --   1233.3749              1253.4538              1261.0040
 Red. masses --      1.6121                 1.3479                 1.3899
 Frc consts  --      1.4449                 1.2477                 1.3022
 IR Inten    --      8.5435                 2.1440                 3.4572

                     67                     68                     69
                      A                      A                      A
 Frequencies --   1289.9119              1301.4525              1302.6768
 Red. masses --      1.1592                 1.1806                 1.1895
 Frc consts  --      1.1364                 1.1781                 1.1893
 IR Inten    --     14.2955                 2.3969                 3.0844

                     70                     71                     72
                      A                      A                      A
 Frequencies --   1319.0666              1330.1052              1334.0390
 Red. masses --      1.2994                 1.2359                 1.1796
 Frc consts  --      1.3321                 1.2883                 1.2369
 IR Inten    --      2.8171                 1.2096                 1.4063

                     73                     74                     75
                      A                      A                      A
 Frequencies --   1344.8264              1368.4815              1388.5068
 Red. masses --      1.1968                 1.2678                 1.3380
 Frc consts  --      1.2752                 1.3989                 1.5198
 IR Inten    --      2.2253                 1.5848                15.4710

                     76                     77                     78
                      A                      A                      A
 Frequencies --   1396.2923              1397.2108              1400.7767
 Red. masses --      1.2417                 1.4180                 1.1933
 Frc consts  --      1.4264                 1.6310                 1.3796
 IR Inten    --     13.8830                12.2913                50.8266

                     79                     80                     81
                      A                      A                      A
 Frequencies --   1405.4273              1412.1761              1412.5311
 Red. masses --      1.4006                 1.2393                 1.2414
 Frc consts  --      1.6300                 1.4562                 1.4594
 IR Inten    --     13.5525                 5.8268                 1.7114

                     82                     83                     84
                      A                      A                      A
 Frequencies --   1414.2234              1430.4382              1478.5440
 Red. masses --      1.3072                 1.3102                 1.0824
 Frc consts  --      1.5404                 1.5795                 1.3942
 IR Inten    --      2.6903                13.7470                 2.2600

                     85                     86                     87
                      A                      A                      A
 Frequencies --   1481.4871              1485.0500              1485.6835
 Red. masses --      1.1386                 1.0484                 1.0700
 Frc consts  --      1.4723                 1.3622                 1.3915
 IR Inten    --      1.6164                 4.9553                 2.5150

                     88                     89                     90
                      A                      A                      A
 Frequencies --   1490.1294              1493.3676              1499.8911
 Red. masses --      1.0904                 1.0655                 1.0407
 Frc consts  --      1.4265                 1.4001                 1.3795
 IR Inten    --      1.2730                 2.6635                 4.8835

                     91                     92                     93
                      A                      A                      A
 Frequencies --   1502.9125              1505.7169              1508.7234
 Red. masses --      1.0496                 1.0678                 1.0582
 Frc consts  --      1.3968                 1.4263                 1.4192
 IR Inten    --      2.7421                17.4950                 1.7917

                     94                     95                     96
                      A                      A                      A
 Frequencies --   1512.9432              1516.3954              1525.3368
 Red. masses --      1.0845                 1.0943                 1.1438
 Frc consts  --      1.4626                 1.4826                 1.5680
 IR Inten    --      1.2784                 2.0649                18.6735

                     97                     98                     99
                      A                      A                      A
 Frequencies --   1538.1906              2947.2197              2952.2588
 Red. masses --      1.1155                 1.0562                 1.0714
 Frc consts  --      1.5551                 5.4052                 5.5020
 IR Inten    --      2.9009                21.1742                56.0173

                    100                    101                    102
                      A                      A                      A
 Frequencies --   2969.3146              2975.9136              3001.6393
 Red. masses --      1.0414                 1.0977                 1.0790
 Frc consts  --      5.4099                 5.7274                 5.7278
 IR Inten    --     70.1969                69.9879                 1.6236

                    103                    104                    105
                      A                      A                      A
 Frequencies --   3005.3244              3011.7411              3017.8398
 Red. masses --      1.0706                 1.1030                 1.0783
 Frc consts  --      5.6971                 5.8945                 5.7861
 IR Inten    --      5.9052                52.3135                16.7665

                    106                    107                    108
                      A                      A                      A
 Frequencies --   3025.2340              3031.6422              3034.0062
 Red. masses --      1.0379                 1.0663                 1.0617
 Frc consts  --      5.5964                 5.7740                 5.7579
 IR Inten    --     25.1363                46.8242                21.6763

                    109                    110                    111
                      A                      A                      A
 Frequencies --   3035.2328              3037.8027              3060.8924
 Red. masses --      1.0615                 1.0417                 1.0913
 Frc consts  --      5.7616                 5.6637                 6.0240
 IR Inten    --     24.6982                40.7740                13.8146

                    112                    113                    114
                      A                      A                      A
 Frequencies --   3077.0499              3080.1229              3089.5019
 Red. masses --      1.0973                 1.0965                 1.0994
 Frc consts  --      6.1215                 6.1290                 6.1830
 IR Inten    --      3.0973                 8.4777                15.0191

                    115                    116                    117
                      A                      A                      A
 Frequencies --   3097.3113              3099.1413              3101.4541
 Red. masses --      1.1016                 1.1013                 1.0994
 Frc consts  --      6.2266                 6.2321                 6.2309
 IR Inten    --     41.1465                30.5664                68.8510

                    118                    119                    120
                      A                      A                      A
 Frequencies --   3112.2609              3116.6462              3121.6023
 Red. masses --      1.0959                 1.0936                 1.0989
 Frc consts  --      6.2543                 6.2586                 6.3091
 IR Inten    --     30.9649                25.6746                37.1555

                    121                    122                    123
                      A                      A                      A
 Frequencies --   3424.2485              3723.9071              3819.8564
 Red. masses --      1.0730                 1.0686                 1.0663
 Frc consts  --      7.4126                 8.7308                 9.1669
 IR Inten    --      3.2073                19.3778                20.8300

 - Thermochemistry -
 -------------------
 Temperature   298.150 Kelvin.  Pressure   1.00000 Atm.
 Atom     1 has atomic number  6 and mass  12.00000

 Molecular mass:   250.18926 amu.
 Principal axes and moments of inertia in atomic units:
                           1         2         3
     Eigenvalues --  3409.233598140.935408944.57414
           X            0.99999   0.00431   0.00018
           Y           -0.00431   0.99987   0.01579
           Z           -0.00011  -0.01579   0.99988
 This molecule is an asymmetric top.
 Rotational symmetry number  1.
 Warning -- assumption of classical behavior for rotation
           may cause significant error
 Rotational temperatures (Kelvin)      0.02541     0.01064     0.00968
 Rotational constants (GHZ):           0.52937     0.22169     0.20177
 Zero-point vibrational energy     997760.9 (Joules/Mol)
                                  238.47057 (Kcal/Mol)
 Warning -- explicit consideration of  33 degrees of freedom as
           vibrations may cause significant error
 Vibrational temperatures:     30.84    37.14    60.72    80.69   106.79
          (Kelvin)            110.78   115.20   117.59   136.41   163.01
                              168.69   180.64   227.06   267.71   285.94
                              313.70   335.16   356.24   363.94   376.38
                              397.84   412.54   432.20   464.69   505.83
                              529.70   568.88   604.68   640.06   701.45
                              706.29   760.56   847.87   925.06  1049.92
                             1077.83  1111.46  1151.87  1173.31  1249.41
                             1260.94  1300.14  1329.72  1350.33  1388.26
                             1416.20  1469.53  1482.77  1491.93  1502.91
                             1509.55  1543.30  1545.85  1572.27  1597.72
                             1618.10  1653.56  1669.41  1679.83  1688.05
                             1714.40  1723.30  1764.83  1774.55  1803.44
                             1814.30  1855.90  1872.50  1874.26  1897.84
                             1913.72  1919.38  1934.91  1968.94  1997.75
                             2008.95  2010.27  2015.41  2022.10  2031.81
                             2032.32  2034.75  2058.08  2127.30  2131.53
                             2136.66  2137.57  2143.96  2148.62  2158.01
                             2162.36  2166.39  2170.72  2176.79  2181.75
                             2194.62  2213.11  4240.39  4247.64  4272.18
                             4281.68  4318.69  4323.99  4333.22  4342.00
                             4352.64  4361.86  4365.26  4367.02  4370.72
                             4403.94  4427.19  4431.61  4445.10  4456.34
                             4458.97  4462.30  4477.85  4484.16  4491.29
                             4926.73  5357.87  5495.92

 Zero-point correction=                           0.380027 (Hartree/Particle)
 Thermal correction to Energy=                    0.402230
 Thermal correction to Enthalpy=                  0.403175
 Thermal correction to Gibbs Free Energy=         0.326911
 Sum of electronic and zero-point Energies=           -844.714799
 Sum of electronic and thermal Energies=              -844.692596
 Sum of electronic and thermal Enthalpies=            -844.691652
 Sum of electronic and thermal Free Energies=         -844.767915

                     E (Thermal)             CV                S
                      KCal/Mol        Cal/Mol-Kelvin    Cal/Mol-Kelvin
 Total                  252.403             78.835            160.509
 Electronic               0.000              0.000              0.000
 Translational            0.889              2.981             42.452
 Rotational               0.889              2.981             33.873
 Vibrational            250.626             72.873             84.185
 Vibration     1          0.593              1.985              6.497
 Vibration     2          0.593              1.985              6.128
 Vibration     3          0.595              1.980              5.153
 Vibration     4          0.596              1.975              4.591
 Vibration     5          0.599              1.966              4.038
 Vibration     6          0.599              1.964              3.966
 Vibration     7          0.600              1.963              3.889
 Vibration     8          0.600              1.962              3.849
 Vibration     9          0.603              1.953              3.558
 Vibration    10          0.607              1.938              3.212
 Vibration    11          0.608              1.935              3.145
 Vibration    12          0.610              1.928              3.013
 Vibration    13          0.621              1.894              2.576
 Vibration    14          0.632              1.859              2.267
 Vibration    15          0.637              1.842              2.145
 Vibration    16          0.646              1.814              1.975
 Vibration    17          0.654              1.791              1.856
 Vibration    18          0.661              1.767              1.748
 Vibration    19          0.664              1.758              1.710
 Vibration    20          0.669              1.743              1.651
 Vibration    21          0.678              1.717              1.555
 Vibration    22          0.684              1.698              1.493
 Vibration    23          0.693              1.673              1.415
 Vibration    24          0.708              1.629              1.295
 Vibration    25          0.728              1.572              1.159
 Vibration    26          0.741              1.538              1.087
 Vibration    27          0.762              1.480              0.980
 Vibration    28          0.783              1.426              0.891
 Vibration    29          0.804              1.372              0.811
 Vibration    30          0.843              1.278              0.690
 Vibration    31          0.847              1.270              0.681
 Vibration    32          0.884              1.187              0.590
 Vibration    33          0.947              1.055              0.468

 Optimization completed.
    -- Stationary point found.
 Normal termination of Gaussian 16 at Mon May 22 17:06:36 2023.
