 Gaussian 16, Revision A.03,
 Gaussian 16:  ES64L-G16RevA.03 25-Dec-2016

 -----------------------------
 # opt freq b3lyp/6-31g(2df,p)
 -----------------------------

 -------------------
 Title Card Required
 -------------------
 Symbolic Z-matrix:
 Charge =  0 Multiplicity = 1

 SCF Done:  E(RB3LYP) =  -197.788247239     A.U. after   11 cycles
 SCF Done:  E(RB3LYP) =  -197.789418410     A.U. after    9 cycles
 SCF Done:  E(RB3LYP) =  -197.789531716     A.U. after    8 cycles
 SCF Done:  E(RB3LYP) =  -197.789535507     A.U. after    6 cycles
 Optimization completed.
    -- Stationary point found.
 Normal termination of Gaussian 16 at Sat May 27 21:01:27 2023.

 ----------------------------------------------------------------------
 #N Geom=AllCheck Guess=TCheck SCRF=Check GenChk RB3LYP/6-31G(2df,p) Fr
 eq
 ----------------------------------------------------------------------

 Structure from the checkpoint file:  "CCCCC.chk"
 -------------------
 Title Card Required
 -------------------
 Charge =  0 Multiplicity = 1

                         Standard orientation:
 ---------------------------------------------------------------------
 Center     Atomic      Atomic             Coordinates (Angstroms)
 Number     Number       Type             X           Y           Z
 ---------------------------------------------------------------------
      1          6           0       -2.557880    0.323966    0.000000
      2          6           0       -1.282354   -0.523264    0.000000
      3          6           0       -0.000000    0.315743    0.000000
      4          6           0        1.282355   -0.523264    0.000000
      5          6           0        2.557880    0.323966    0.000000
      6          1           0       -3.455669   -0.302277   -0.000001
      7          1           0       -2.603276    0.970679   -0.883460
      8          1           0       -2.603277    0.970678    0.883460
      9          1           0       -1.281604   -1.184475   -0.876793
     10          1           0       -1.281604   -1.184475    0.876793
     11          1           0        0.000000    0.978425    0.877100
     12          1           0        0.000000    0.978425   -0.877100
     13          1           0        1.281604   -1.184475   -0.876793
     14          1           0        1.281604   -1.184475    0.876793
     15          1           0        2.603276    0.970679   -0.883460
     16          1           0        3.455670   -0.302277   -0.000001
     17          1           0        2.603277    0.970677    0.883461
 ---------------------------------------------------------------------

 SCF Done:  E(RB3LYP) =  -197.789535507     A.U. after    1 cycles

 The electronic state is 1-A.
 Alpha  occ. eigenvalues --  -10.17433 -10.17433 -10.17191 -10.16870 -10.16870
 Alpha  occ. eigenvalues --   -0.79495  -0.74459  -0.67033  -0.59398  -0.56940
 Alpha  occ. eigenvalues --   -0.46846  -0.43097  -0.42552  -0.39730  -0.38889
 Alpha  occ. eigenvalues --   -0.37138  -0.34788  -0.33005  -0.32103  -0.31603
 Alpha  occ. eigenvalues --   -0.31043
 Alpha virt. eigenvalues --    0.09252   0.10926   0.12739   0.13454   0.15229
 Alpha virt. eigenvalues --    0.17477   0.17495   0.17718   0.19655   0.19818
 Alpha virt. eigenvalues --    0.19885   0.20514   0.22405   0.24857   0.26799

 Mulliken charges:
               1
     1  C   -0.378900
     2  C   -0.160852
     3  C   -0.136857
     4  C   -0.160852
     5  C   -0.378900
     6  H    0.109441
     7  H    0.112321
     8  H    0.112321
     9  H    0.092599
    10  H    0.092599
    11  H    0.088899
    12  H    0.088899
    13  H    0.092599
    14  H    0.092599
    15  H    0.112321
    16  H    0.109441
    17  H    0.112321
 Sum of Mulliken charges =  -0.00000

 Dipole moment (field-independent basis, Debye):
    X=              0.0000    Y=             -0.0607    Z=              0.0000  Tot=              0.0607
 Quadrupole moment (field-independent basis, Debye-Ang):
   XX=            -35.5719   YY=            -34.9429   ZZ=            -34.1119
   XY=              0.0000   XZ=              0.0000   YZ=              0.0000

  Exact polarizability:  66.884  -0.000  52.699   0.000   0.000  50.808
 Approx polarizability:  75.323  -0.000  74.817   0.000   0.000  75.672

                      1                      2                      3
                      A                      A                      A
 Frequencies --    109.8021               112.2190               175.5483
 Red. masses --      1.5298                 2.2966                 2.5277
 Frc consts  --      0.0109                 0.0170                 0.0459
 IR Inten    --      0.0000                 0.0074                 0.0272

                      4                      5                      6
                      A                      A                      A
 Frequencies --    243.9440               250.6598               392.8554
 Red. masses --      1.0791                 1.1536                 2.3313
 Frc consts  --      0.0378                 0.0427                 0.2120
 IR Inten    --      0.0017                 0.0000                 0.0082

                      7                      8                      9
                      A                      A                      A
 Frequencies --    396.0870               732.2721               763.8657
 Red. masses --      3.3374                 1.0650                 1.1115
 Frc consts  --      0.3085                 0.3365                 0.3821
 IR Inten    --      0.0017                 3.8067                 0.0000

                     10                     11                     12
                      A                      A                      A
 Frequencies --    864.3964               873.1119               928.0987
 Red. masses --      1.1542                 1.7486                 2.1588
 Frc consts  --      0.5081                 0.7854                 1.0956
 IR Inten    --      1.1447                 0.9373                 1.8897

                     13                     14                     15
                      A                      A                      A
 Frequencies --    991.0511              1038.8724              1046.7146
 Red. masses --      1.1191                 1.8885                 2.9894
 Frc consts  --      0.6476                 1.2009                 1.9297
 IR Inten    --      0.0000                 0.8476                 0.3258

                     16                     17                     18
                      A                      A                      A
 Frequencies --   1077.3048              1162.7450              1211.4191
 Red. masses --      2.0200                 2.2978                 1.8196
 Frc consts  --      1.3813                 1.8303                 1.5733
 IR Inten    --      0.5979                 0.9148                 0.0812

                     19                     20                     21
                      A                      A                      A
 Frequencies --   1268.2310              1293.5289              1325.7997
 Red. masses --      1.3318                 1.3208                 1.1561
 Frc consts  --      1.2621                 1.3021                 1.1973
 IR Inten    --      0.0000                 7.3924                 0.5019

                     22                     23                     24
                      A                      A                      A
 Frequencies --   1331.1306              1370.7761              1399.2665
 Red. masses --      1.0485                 1.4169                 1.5956
 Frc consts  --      1.0946                 1.5686                 1.8407
 IR Inten    --      0.0000                 0.2207                 2.0206

                     25                     26                     27
                      A                      A                      A
 Frequencies --   1412.5074              1413.3597              1483.2458
 Red. masses --      1.2410                 1.2538                 1.0686
 Frc consts  --      1.4588                 1.4757                 1.3851
 IR Inten    --      0.0044                 1.5402                 0.0016

                     28                     29                     30
                      A                      A                      A
 Frequencies --   1486.0704              1496.7846              1499.4092
 Red. masses --      1.0616                 1.0570                 1.0392
 Frc consts  --      1.3813                 1.3952                 1.3765
 IR Inten    --      0.6587                 0.2571                 9.8477

                     31                     32                     33
                      A                      A                      A
 Frequencies --   1500.3181              1506.8891              1514.9114
 Red. masses --      1.0414                 1.0729                 1.0893
 Frc consts  --      1.3811                 1.4355                 1.4729
 IR Inten    --      0.0000                 0.8373                 3.2776

                     34                     35                     36
                      A                      A                      A
 Frequencies --   2999.3712              3009.6722              3017.5272
 Red. masses --      1.0575                 1.0589                 1.0597
 Frc consts  --      5.6053                 5.6510                 5.6852
 IR Inten    --      5.1931                 0.0466                73.0337

                     37                     38                     39
                      A                      A                      A
 Frequencies --   3021.9891              3027.2246              3028.3081
 Red. masses --      1.0989                 1.0353                 1.0358
 Frc consts  --      5.9126                 5.5898                 5.5968
 IR Inten    --      0.2110                41.7989                31.9307

                     40                     41                     42
                      A                      A                      A
 Frequencies --   3039.8145              3057.2110              3093.2886
 Red. masses --      1.1023                 1.1045                 1.1021
 Frc consts  --      6.0011                 6.0824                 6.2132
 IR Inten    --      0.0000                47.9216                 0.0000

                     43                     44                     45
                      A                      A                      A
 Frequencies --   3094.8263              3098.9608              3099.2806
 Red. masses --      1.1020                 1.1011                 1.1008
 Frc consts  --      6.2186                 6.2306                 6.2297
 IR Inten    --    114.9268                30.3121                47.9889

 - Thermochemistry -
 -------------------
 Temperature   298.150 Kelvin.  Pressure   1.00000 Atm.
 Atom     1 has atomic number  6 and mass  12.00000

 Molecular mass:    72.09390 amu.
 Principal axes and moments of inertia in atomic units:
                           1         2         3
     Eigenvalues --   105.87263 936.69229 986.88336
           X            1.00000   0.00000   0.00000
           Y           -0.00000   1.00000   0.00000
           Z           -0.00000  -0.00000   1.00000
 This molecule is an asymmetric top.
 Rotational symmetry number  1.
 Rotational temperatures (Kelvin)      0.81810     0.09247     0.08777
 Rotational constants (GHZ):          17.04634     1.92672     1.82873
 Zero-point vibrational energy     420252.1 (Joules/Mol)
                                  100.44267 (Kcal/Mol)
 Warning -- explicit consideration of   7 degrees of freedom as
           vibrations may cause significant error
 Vibrational temperatures:    157.98   161.46   252.57   350.98   360.64
          (Kelvin)            565.23   569.88  1053.58  1099.03  1243.67
                             1256.21  1335.33  1425.90  1494.71  1505.99
                             1550.00  1672.93  1742.96  1824.70  1861.10
                             1907.53  1915.20  1972.24  2013.23  2032.28
                             2033.51  2134.06  2138.12  2153.54  2157.32
                             2158.62  2168.08  2179.62  4315.43  4330.25
                             4341.55  4347.97  4355.50  4357.06  4373.61
                             4398.64  4450.55  4452.76  4458.71  4459.17

 Zero-point correction=                           0.160066 (Hartree/Particle)
 Thermal correction to Energy=                    0.167168
 Thermal correction to Enthalpy=                  0.168112
 Thermal correction to Gibbs Free Energy=         0.129724
 Sum of electronic and zero-point Energies=           -197.629470
 Sum of electronic and thermal Energies=              -197.622368
 Sum of electronic and thermal Enthalpies=            -197.621424
 Sum of electronic and thermal Free Energies=         -197.659812

                     E (Thermal)             CV                S
                      KCal/Mol        Cal/Mol-Kelvin    Cal/Mol-Kelvin
 Total                  104.899             24.566             80.795
 Electronic               0.000              0.000              0.000
 Translational            0.889              2.981             38.743
 Rotational               0.889              2.981             26.084
 Vibrational            103.122             18.604             15.968
 Vibration     1          0.606              1.941              3.272
 Vibration     2          0.607              1.939              3.230
 Vibration     3          0.628              1.873              2.375
 Vibration     4          0.659              1.773              1.774
 Vibration     5          0.663              1.762              1.726
 Vibration     6          0.760              1.485              0.989
 Vibration     7          0.763              1.479              0.977

 Optimization completed.
    -- Stationary point found.
 Normal termination of Gaussian 16 at Sat May 27 21:11:49 2023.
