 Gaussian 16, Revision A.03,
 Gaussian 16:  ES64L-G16RevA.03 25-Dec-2016

 -----------------------------
 # opt freq b3lyp/6-31g(2df,p)
 -----------------------------

 -------------------
 Title Card Required
 -------------------
 Symbolic Z-matrix:
 Charge =  0 Multiplicity = 1

 SCF Done:  E(RB3LYP) =  -619.516693432     A.U. after   12 cycles
 SCF Done:  E(RB3LYP) =  -619.519291618     A.U. after   10 cycles
 SCF Done:  E(RB3LYP) =  -619.523832791     A.U. after   11 cycles
 SCF Done:  E(RB3LYP) =  -619.525505502     A.U. after   11 cycles
 SCF Done:  E(RB3LYP) =  -619.528318113     A.U. after   10 cycles
 SCF Done:  E(RB3LYP) =  -619.529479418     A.U. after   10 cycles
 SCF Done:  E(RB3LYP) =  -619.533303863     A.U. after   10 cycles
 SCF Done:  E(RB3LYP) =  -619.535147800     A.U. after   11 cycles
 SCF Done:  E(RB3LYP) =  -619.536625397     A.U. after   10 cycles
 SCF Done:  E(RB3LYP) =  -619.537022171     A.U. after   10 cycles
 SCF Done:  E(RB3LYP) =  -619.538174510     A.U. after   10 cycles
 SCF Done:  E(RB3LYP) =  -619.538408929     A.U. after   10 cycles
 SCF Done:  E(RB3LYP) =  -619.538447492     A.U. after    9 cycles
 SCF Done:  E(RB3LYP) =  -619.538481404     A.U. after    8 cycles
 SCF Done:  E(RB3LYP) =  -619.538485801     A.U. after    8 cycles
 SCF Done:  E(RB3LYP) =  -619.538487674     A.U. after    8 cycles
 SCF Done:  E(RB3LYP) =  -619.538488347     A.U. after    7 cycles
 SCF Done:  E(RB3LYP) =  -619.538488903     A.U. after    7 cycles
 SCF Done:  E(RB3LYP) =  -619.538489027     A.U. after    6 cycles
 Optimization completed.
    -- Stationary point found.
 Normal termination of Gaussian 16 at Mon May 22 16:18:45 2023.

 ----------------------------------------------------------------------
 #N Geom=AllCheck Guess=TCheck SCRF=Check GenChk RB3LYP/6-31G(2df,p) Fr
 eq
 ----------------------------------------------------------------------

 Structure from the checkpoint file:  "CCCCqCNrCqCCrCCCON.chk"
 -------------------
 Title Card Required
 -------------------
 Charge =  0 Multiplicity = 1

                         Standard orientation:
 ---------------------------------------------------------------------
 Center     Atomic      Atomic             Coordinates (Angstroms)
 Number     Number       Type             X           Y           Z
 ---------------------------------------------------------------------
      1          6           0       -5.289103    0.327075    0.330719
      2          6           0       -3.985880   -0.468046    0.453402
      3          6           0       -2.766363    0.339934   -0.013516
      4          6           0       -1.411363   -0.387857    0.098349
      5          6           0       -1.370550   -1.632316   -0.824266
      6          7           0       -1.924508   -2.824399   -0.168319
      7          6           0       -0.160756    0.506674   -0.172190
      8          6           0       -0.250905    1.952164    0.378379
      9          6           0       -0.812281    2.993405   -0.597418
     10          6           0        1.099147   -0.185328    0.403645
     11          6           0        2.414451    0.251831   -0.251953
     12          6           0        3.630037   -0.390891    0.403636
     13          8           0        4.780093    0.067236   -0.291528
     14          7           0        5.947550   -0.525399    0.303562
     15          1           0       -6.146691   -0.255726    0.681992
     16          1           0       -5.485509    0.610141   -0.710037
     17          1           0       -5.252019    1.251423    0.919231
     18          1           0       -4.058857   -1.403306   -0.107952
     19          1           0       -3.835357   -0.768256    1.498869
     20          1           0       -2.737145    1.263481    0.575191
     21          1           0       -2.920061    0.650421   -1.057464
     22          1           0       -1.321676   -0.744855    1.136656
     23          1           0       -0.343846   -1.787117   -1.191726
     24          1           0       -1.980077   -1.431875   -1.714860
     25          1           0       -1.327669   -3.089911    0.610463
     26          1           0       -1.910345   -3.609497   -0.813123
     27          1           0       -0.036307    0.576260   -1.263697
     28          1           0        0.755152    2.278362    0.665902
     29          1           0       -0.830498    1.954073    1.310387
     30          1           0       -0.194599    3.046451   -1.501064
     31          1           0       -0.819735    3.990155   -0.143835
     32          1           0       -1.833503    2.764136   -0.911179
     33          1           0        1.012383   -1.274063    0.307522
     34          1           0        1.137917    0.015361    1.483950
     35          1           0        2.530758    1.341007   -0.207325
     36          1           0        2.403993   -0.015595   -1.315972
     37          1           0        3.569923   -1.488540    0.355015
     38          1           0        3.693877   -0.114672    1.466812
     39          1           0        6.528199    0.278453    0.545181
     40          1           0        6.421056   -0.965489   -0.486124
 ---------------------------------------------------------------------

 SCF Done:  E(RB3LYP) =  -619.538489027     A.U. after    1 cycles

 The electronic state is 1-A.
 Alpha  occ. eigenvalues --  -19.15428 -14.35880 -14.30477 -10.21593 -10.19774
 Alpha  occ. eigenvalues --  -10.18040 -10.17822 -10.17664 -10.17540 -10.17354
 Alpha  occ. eigenvalues --  -10.16711 -10.16622 -10.16166 -10.16136  -1.04998
 Alpha  occ. eigenvalues --   -0.87532  -0.82686  -0.81158  -0.77470  -0.74879
 Alpha  occ. eigenvalues --   -0.73030  -0.68234  -0.65104  -0.62279  -0.59505
 Alpha  occ. eigenvalues --   -0.58277  -0.56362  -0.55135  -0.50290  -0.48408
 Alpha  occ. eigenvalues --   -0.47585  -0.47003  -0.45754  -0.44759  -0.44055
 Alpha  occ. eigenvalues --   -0.43033  -0.41932  -0.40861  -0.40408  -0.39480
 Alpha  occ. eigenvalues --   -0.38190  -0.37074  -0.36978  -0.35736  -0.35123
 Alpha  occ. eigenvalues --   -0.34223  -0.33885  -0.33069  -0.32909  -0.32122
 Alpha  occ. eigenvalues --   -0.31423  -0.30508  -0.29718  -0.28823  -0.25492
 Alpha  occ. eigenvalues --   -0.25229  -0.22912
 Alpha virt. eigenvalues --    0.07776   0.08606   0.09185   0.09890   0.10479
 Alpha virt. eigenvalues --    0.10587   0.11444   0.12591   0.13059   0.13899
 Alpha virt. eigenvalues --    0.14777   0.15011   0.15356   0.16200   0.16343

 Mulliken charges:
               1
     1  C   -0.381611
     2  C   -0.160738
     3  C   -0.197181
     4  C    0.033336
     5  C   -0.164398
     6  N   -0.505431
     7  C    0.019357
     8  C   -0.198279
     9  C   -0.386788
    10  C   -0.203175
    11  C   -0.213415
    12  C   -0.012942
    13  O   -0.275966
    14  N   -0.389542
    15  H    0.107227
    16  H    0.107679
    17  H    0.106655
    18  H    0.117704
    19  H    0.086467
    20  H    0.091337
    21  H    0.086953
    22  H    0.060961
    23  H    0.080370
    24  H    0.097037
    25  H    0.221919
    26  H    0.223040
    27  H    0.063136
    28  H    0.090713
    29  H    0.095880
    30  H    0.112698
    31  H    0.108145
    32  H    0.120816
    33  H    0.089074
    34  H    0.091997
    35  H    0.107867
    36  H    0.102019
    37  H    0.085046
    38  H    0.086563
    39  H    0.247753
    40  H    0.247717
 Sum of Mulliken charges =  -0.00000

 Dipole moment (field-independent basis, Debye):
    X=              1.6016    Y=             -0.5349    Z=             -0.4169  Tot=              1.7393
 Quadrupole moment (field-independent basis, Debye-Ang):
   XX=            -88.4410   YY=            -87.9872   ZZ=            -90.2886
   XY=             -0.3926   XZ=             -0.3715   YZ=              3.4776

  Exact polarizability: 176.822  -1.823 139.232  -0.017   0.659 116.276
 Approx polarizability: 200.377  -0.445 192.148   1.463   0.840 189.805

                      1                      2                      3
                      A                      A                      A
 Frequencies --     25.2205                36.8846                52.8932
 Red. masses --      3.8399                 4.0297                 2.5668
 Frc consts  --      0.0014                 0.0032                 0.0042
 IR Inten    --      0.0670                 0.0281                 0.7088

                      4                      5                      6
                      A                      A                      A
 Frequencies --     60.0983                80.8013                96.2314
 Red. masses --      2.6603                 1.7286                 2.6101
 Frc consts  --      0.0057                 0.0066                 0.0142
 IR Inten    --      0.3988                 0.1413                 0.6631

                      7                      8                      9
                      A                      A                      A
 Frequencies --    103.7423               114.4497               123.5154
 Red. masses --      2.6364                 2.2012                 2.6500
 Frc consts  --      0.0167                 0.0170                 0.0238
 IR Inten    --      0.7558                 1.1499                 2.3902

                     10                     11                     12
                      A                      A                      A
 Frequencies --    128.0939               149.7399               164.0275
 Red. masses --      1.6148                 2.5868                 1.7881
 Frc consts  --      0.0156                 0.0342                 0.0283
 IR Inten    --     12.6093                 5.4858                21.3075

                     13                     14                     15
                      A                      A                      A
 Frequencies --    194.7128               224.0520               242.8003
 Red. masses --      1.3375                 2.7473                 1.5986
 Frc consts  --      0.0299                 0.0813                 0.0555
 IR Inten    --      0.8403                 0.1643                16.1874

                     16                     17                     18
                      A                      A                      A
 Frequencies --    244.0964               252.5897               279.1878
 Red. masses --      1.5146                 1.3302                 2.1432
 Frc consts  --      0.0532                 0.0500                 0.0984
 IR Inten    --      6.2506                 6.2978                 0.1461

                     19                     20                     21
                      A                      A                      A
 Frequencies --    301.6602               322.3213               362.3638
 Red. masses --      2.4942                 3.1280                 2.5363
 Frc consts  --      0.1337                 0.1915                 0.1962
 IR Inten    --      3.7026                 2.6838                 1.8929

                     22                     23                     24
                      A                      A                      A
 Frequencies --    392.6166               431.9612               460.4985
 Red. masses --      2.9116                 2.8030                 2.6499
 Frc consts  --      0.2644                 0.3082                 0.3311
 IR Inten    --      2.7056                 0.3157                 0.6638

                     25                     26                     27
                      A                      A                      A
 Frequencies --    483.5590               546.1501               569.7067
 Red. masses --      3.4997                 2.6329                 2.6104
 Frc consts  --      0.4822                 0.4627                 0.4992
 IR Inten    --     10.2211                 1.4863                 5.4201

                     28                     29                     30
                      A                      A                      A
 Frequencies --    746.4371               749.2645               771.5894
 Red. masses --      1.1047                 1.1459                 1.2356
 Frc consts  --      0.3626                 0.3790                 0.4334
 IR Inten    --      1.6445                 0.8744                11.1472

                     31                     32                     33
                      A                      A                      A
 Frequencies --    825.1413               835.4575               852.5855
 Red. masses --      1.5634                 1.4377                 1.3200
 Frc consts  --      0.6271                 0.5912                 0.5653
 IR Inten    --     49.8161                22.2090                20.6233

                     34                     35                     36
                      A                      A                      A
 Frequencies --    890.7994               906.5938               929.4321
 Red. masses --      1.7489                 1.5749                 4.3605
 Frc consts  --      0.8177                 0.7627                 2.2194
 IR Inten    --     21.2978                 2.7259                 0.7531

                     37                     38                     39
                      A                      A                      A
 Frequencies --    940.1409               967.8024               989.7208
 Red. masses --      2.3049                 1.8622                 2.6070
 Frc consts  --      1.2003                 1.0277                 1.5046
 IR Inten    --      1.1986                16.1980                 7.8588

                     40                     41                     42
                      A                      A                      A
 Frequencies --   1009.5465              1029.0574              1040.3587
 Red. masses --      2.6374                 2.2644                 2.0160
 Frc consts  --      1.5837                 1.4128                 1.2856
 IR Inten    --     13.6887                41.7327                 4.3567

                     43                     44                     45
                      A                      A                      A
 Frequencies --   1048.4454              1060.8967              1062.7406
 Red. masses --      1.8901                 1.8837                 2.6046
 Frc consts  --      1.2241                 1.2492                 1.7332
 IR Inten    --     12.9194                 1.9357                 1.8014

                     46                     47                     48
                      A                      A                      A
 Frequencies --   1070.7011              1078.7336              1092.1499
 Red. masses --      2.3061                 2.1324                 1.9650
 Frc consts  --      1.5576                 1.4620                 1.3810
 IR Inten    --      4.7469                 4.8875                 4.4010

                     49                     50                     51
                      A                      A                      A
 Frequencies --   1108.6700              1149.3327              1165.4274
 Red. masses --      1.5652                 2.6107                 2.1575
 Frc consts  --      1.1335                 2.0319                 1.7265
 IR Inten    --      1.4668                 1.8248                 0.9857

                     52                     53                     54
                      A                      A                      A
 Frequencies --   1170.8011              1200.6592              1220.8949
 Red. masses --      1.9981                 1.5441                 1.3580
 Frc consts  --      1.6138                 1.3115                 1.1927
 IR Inten    --      3.3266                 4.5465                 2.2299

                     55                     56                     57
                      A                      A                      A
 Frequencies --   1235.0207              1248.3573              1274.9353
 Red. masses --      1.4381                 1.4910                 1.3407
 Frc consts  --      1.2923                 1.3690                 1.2840
 IR Inten    --     45.5637                21.0679                 2.4324

                     58                     59                     60
                      A                      A                      A
 Frequencies --   1280.5544              1294.2831              1305.3499
 Red. masses --      1.2748                 1.2132                 1.2245
 Frc consts  --      1.2317                 1.1974                 1.2293
 IR Inten    --      3.3169                 2.2897                 2.0385

                     61                     62                     63
                      A                      A                      A
 Frequencies --   1313.5666              1316.7426              1323.6029
 Red. masses --      1.1336                 1.2122                 1.1228
 Frc consts  --      1.1524                 1.2383                 1.1590
 IR Inten    --      0.1077                 0.7024                 1.2605

                     64                     65                     66
                      A                      A                      A
 Frequencies --   1330.3313              1335.8679              1342.7131
 Red. masses --      1.1677                 1.2107                 1.1673
 Frc consts  --      1.2176                 1.2730                 1.2400
 IR Inten    --      0.5584                 2.3216                 1.9855

                     67                     68                     69
                      A                      A                      A
 Frequencies --   1362.3583              1374.8736              1387.9198
 Red. masses --      1.2728                 1.3312                 1.4434
 Frc consts  --      1.3919                 1.4826                 1.6382
 IR Inten    --      0.6225                 0.6141                 3.2555

                     70                     71                     72
                      A                      A                      A
 Frequencies --   1392.0295              1395.5562              1411.0848
 Red. masses --      1.4221                 1.4814                 1.2386
 Frc consts  --      1.6236                 1.6999                 1.4531
 IR Inten    --      0.6247                 6.9011                 0.8962

                     73                     74                     75
                      A                      A                      A
 Frequencies --   1412.2739              1416.2258              1431.3798
 Red. masses --      1.2290                 1.4855                 1.3714
 Frc consts  --      1.4442                 1.7554                 1.6555
 IR Inten    --      2.9769                22.8384                 8.8010

                     76                     77                     78
                      A                      A                      A
 Frequencies --   1478.5825              1485.1490              1490.7648
 Red. masses --      1.0684                 1.0746                 1.0709
 Frc consts  --      1.3762                 1.3964                 1.4022
 IR Inten    --      2.0786                 3.4374                 1.9429

                     79                     80                     81
                      A                      A                      A
 Frequencies --   1493.2761              1499.5434              1500.3906
 Red. masses --      1.0591                 1.0421                 1.0711
 Frc consts  --      1.3914                 1.3806                 1.4206
 IR Inten    --      2.9897                 4.0550                 1.4117

                     82                     83                     84
                      A                      A                      A
 Frequencies --   1502.3861              1509.0846              1514.0568
 Red. masses --      1.0543                 1.0710                 1.0819
 Frc consts  --      1.4021                 1.4370                 1.4612
 IR Inten    --      1.6670                 1.2491                 7.0841

                     85                     86                     87
                      A                      A                      A
 Frequencies --   1523.1436              1529.3639              1653.5783
 Red. masses --      1.0824                 1.0858                 1.0671
 Frc consts  --      1.4795                 1.4963                 1.7190
 IR Inten    --      4.6734                 5.9844                 9.2541

                     88                     89                     90
                      A                      A                      A
 Frequencies --   1654.9047              2962.9485              2972.8331
 Red. masses --      1.0888                 1.0720                 1.0789
 Frc consts  --      1.7568                 5.5447                 5.6180
 IR Inten    --     23.8289                70.8619                 6.1525

                     91                     92                     93
                      A                      A                      A
 Frequencies --   2982.1571              2985.5807              2999.7624
 Red. masses --      1.0552                 1.0805                 1.0676
 Frc consts  --      5.5291                 5.6746                 5.6602
 IR Inten    --     37.4821                10.9523                18.5544

                     94                     95                     96
                      A                      A                      A
 Frequencies --   3007.6838              3012.7399              3022.2549
 Red. masses --      1.0647                 1.1056                 1.0415
 Frc consts  --      5.6748                 5.9127                 5.6051
 IR Inten    --     21.2444                32.1080                23.3282

                     97                     98                     99
                      A                      A                      A
 Frequencies --   3024.9088              3025.5143              3030.5496
 Red. masses --      1.0628                 1.0655                 1.0610
 Frc consts  --      5.7294                 5.7465                 5.7414
 IR Inten    --     41.4606                22.8935                29.7687

                    100                    101                    102
                      A                      A                      A
 Frequencies --   3033.3556              3034.3575              3046.2602
 Red. masses --      1.0617                 1.0636                 1.0952
 Frc consts  --      5.7558                 5.7697                 5.9881
 IR Inten    --     10.9606                82.4779                10.9730

                    103                    104                    105
                      A                      A                      A
 Frequencies --   3052.1461              3058.1561              3076.8142
 Red. masses --      1.0963                 1.0926                 1.0972
 Frc consts  --      6.0170                 6.0203                 6.1197
 IR Inten    --     31.8391                29.1232                16.1881

                    106                    107                    108
                      A                      A                      A
 Frequencies --   3077.1012              3093.8902              3095.1843
 Red. masses --      1.1033                 1.1009                 1.1010
 Frc consts  --      6.1550                 6.2090                 6.2146
 IR Inten    --     60.7580                36.2590                44.0241

                    109                    110                    111
                      A                      A                      A
 Frequencies --   3105.1356              3121.7209              3421.2476
 Red. masses --      1.0963                 1.0984                 1.0474
 Frc consts  --      6.2278                 6.3069                 7.2235
 IR Inten    --     55.3963                33.7788                 2.8912

                    112                    113                    114
                      A                      A                      A
 Frequencies --   3479.8077              3502.2458              3558.3967
 Red. masses --      1.0492                 1.0954                 1.0922
 Frc consts  --      7.4856                 7.9161                 8.1479
 IR Inten    --      0.8071                 0.0006                 0.1786

 - Thermochemistry -
 -------------------
 Temperature   298.150 Kelvin.  Pressure   1.00000 Atm.
 Atom     1 has atomic number  6 and mass  12.00000

 Molecular mass:   202.20451 amu.
 Principal axes and moments of inertia in atomic units:
                           1         2         3
     Eigenvalues --  1609.594207736.683968972.89072
           X            0.99999  -0.00389   0.00052
           Y            0.00389   0.99999  -0.00187
           Z           -0.00052   0.00187   1.00000
 This molecule is an asymmetric top.
 Rotational symmetry number  1.
 Warning -- assumption of classical behavior for rotation
           may cause significant error
 Rotational temperatures (Kelvin)      0.05381     0.01120     0.00965
 Rotational constants (GHZ):           1.12124     0.23327     0.20113
 Zero-point vibrational energy     969928.4 (Joules/Mol)
                                  231.81844 (Kcal/Mol)
 Warning -- explicit consideration of  27 degrees of freedom as
           vibrations may cause significant error
 Vibrational temperatures:     36.29    53.07    76.10    86.47   116.26
          (Kelvin)            138.46   149.26   164.67   177.71   184.30
                              215.44   236.00   280.15   322.36   349.34
                              351.20   363.42   401.69   434.02   463.75
                              521.36   564.89   621.50   662.55   695.73
                              785.79   819.68  1073.96  1078.02  1110.15
                             1187.19  1202.04  1226.68  1281.66  1304.39
                             1337.25  1352.65  1392.45  1423.99  1452.51
                             1480.58  1496.84  1508.48  1526.39  1529.05
                             1540.50  1552.06  1571.36  1595.13  1653.63
                             1676.79  1684.52  1727.48  1756.60  1776.92
                             1796.11  1834.35  1842.43  1862.18  1878.11
                             1889.93  1894.50  1904.37  1914.05  1922.02
                             1931.86  1960.13  1978.14  1996.91  2002.82
                             2007.89  2030.24  2031.95  2037.63  2059.44
                             2127.35  2136.80  2144.88  2148.49  2157.51
                             2158.73  2161.60  2171.24  2178.39  2191.46
                             2200.41  2379.13  2381.04  4263.02  4277.24
                             4290.66  4295.58  4315.99  4327.39  4334.66
                             4348.35  4352.17  4353.04  4360.28  4364.32
                             4365.76  4382.89  4391.36  4400.00  4426.85
                             4427.26  4451.42  4453.28  4467.60  4491.46
                             4922.41  5006.67  5038.95  5119.74

 Zero-point correction=                           0.369426 (Hartree/Particle)
 Thermal correction to Energy=                    0.388278
 Thermal correction to Enthalpy=                  0.389222
 Thermal correction to Gibbs Free Energy=         0.321030
 Sum of electronic and zero-point Energies=           -619.169063
 Sum of electronic and thermal Energies=              -619.150211
 Sum of electronic and thermal Enthalpies=            -619.149267
 Sum of electronic and thermal Free Energies=         -619.217459

                     E (Thermal)             CV                S
                      KCal/Mol        Cal/Mol-Kelvin    Cal/Mol-Kelvin
 Total                  243.648             67.175            143.522
 Electronic               0.000              0.000              0.000
 Translational            0.889              2.981             41.817
 Rotational               0.889              2.981             33.080
 Vibrational            241.870             61.214             68.626
 Vibration     1          0.593              1.985              6.174
 Vibration     2          0.594              1.982              5.420
 Vibration     3          0.596              1.976              4.706
 Vibration     4          0.597              1.973              4.454
 Vibration     5          0.600              1.962              3.871
 Vibration     6          0.603              1.952              3.529
 Vibration     7          0.605              1.946              3.383
 Vibration     8          0.607              1.937              3.192
 Vibration     9          0.610              1.929              3.045
 Vibration    10          0.611              1.925              2.974
 Vibration    11          0.618              1.903              2.676
 Vibration    12          0.623              1.887              2.503
 Vibration    13          0.635              1.847              2.182
 Vibration    14          0.649              1.804              1.926
 Vibration    15          0.659              1.775              1.782
 Vibration    16          0.659              1.773              1.773
 Vibration    17          0.664              1.758              1.712
 Vibration    18          0.680              1.712              1.539
 Vibration    19          0.694              1.671              1.408
 Vibration    20          0.707              1.631              1.298
 Vibration    21          0.736              1.550              1.112
 Vibration    22          0.760              1.486              0.990
 Vibration    23          0.793              1.401              0.852
 Vibration    24          0.818              1.338              0.765
 Vibration    25          0.840              1.287              0.701
 Vibration    26          0.901              1.148              0.552
 Vibration    27          0.926              1.097              0.505

                           ! Non-Optimized Parameters !
 Normal termination of Gaussian 16 at Mon May 22 19:09:17 2023.
