 Gaussian 16, Revision A.03,
 Gaussian 16:  ES64L-G16RevA.03 25-Dec-2016

 -----------------------------
 # opt freq b3lyp/6-31g(2df,p)
 -----------------------------

 -------------------
 Title Card Required
 -------------------
 Symbolic Z-matrix:
 Charge =  0 Multiplicity = 1

 SCF Done:  E(RB3LYP) =  -548.151122122     A.U. after   12 cycles
 SCF Done:  E(RB3LYP) =  -548.178648004     A.U. after   11 cycles
 SCF Done:  E(RB3LYP) =  -548.192802001     A.U. after   11 cycles
 SCF Done:  E(RB3LYP) =  -548.196227053     A.U. after   11 cycles
 SCF Done:  E(RB3LYP) =  -548.195394079     A.U. after   10 cycles
 SCF Done:  E(RB3LYP) =  -548.198534438     A.U. after    9 cycles
 SCF Done:  E(RB3LYP) =  -548.199420736     A.U. after   10 cycles
 SCF Done:  E(RB3LYP) =  -548.199452635     A.U. after   10 cycles
 SCF Done:  E(RB3LYP) =  -548.199615180     A.U. after   10 cycles
 SCF Done:  E(RB3LYP) =  -548.199658646     A.U. after    9 cycles
 SCF Done:  E(RB3LYP) =  -548.199671021     A.U. after    8 cycles
 SCF Done:  E(RB3LYP) =  -548.199671746     A.U. after    7 cycles
 SCF Done:  E(RB3LYP) =  -548.199672250     A.U. after    7 cycles
 SCF Done:  E(RB3LYP) =  -548.199672415     A.U. after    6 cycles
 SCF Done:  E(RB3LYP) =  -548.199672495     A.U. after    5 cycles
 Optimization completed.
    -- Stationary point found.
 Normal termination of Gaussian 16 at Tue May 23 06:49:01 2023.

 ----------------------------------------------------------------------
 #N Geom=AllCheck Guess=TCheck SCRF=Check GenChk RB3LYP/6-31G(2df,p) Fr
 eq
 ----------------------------------------------------------------------

 Structure from the checkpoint file:  "CCCCqCrqCrCCqCrqCCrCO.chk"
 -------------------
 Title Card Required
 -------------------
 Charge =  0 Multiplicity = 1

                         Standard orientation:
 ---------------------------------------------------------------------
 Center     Atomic      Atomic             Coordinates (Angstroms)
 Number     Number       Type             X           Y           Z
 ---------------------------------------------------------------------
      1          6           0        4.838084   -1.020685   -0.065733
      2          6           0        3.717133    0.024955   -0.074775
      3          6           0        2.327059   -0.624958   -0.050423
      4          6           0        1.080630    0.311004    0.013161
      5          6           0        1.077136    1.046035    1.365968
      6          6           0        1.157352    1.329861   -1.140596
      7          6           0       -0.135649   -0.654068   -0.161175
      8          6           0       -1.644482   -0.317088    0.060731
      9          6           0       -1.996845   -0.192227    1.555235
     10          6           0       -2.209244    0.875178   -0.764545
     11          6           0       -2.205850    2.273836   -0.133778
     12          6           0       -2.367335   -1.590776   -0.479740
     13          8           0       -3.777066   -1.586485   -0.323088
     14          1           0        5.824857   -0.547805   -0.092494
     15          1           0        4.764874   -1.687685   -0.932117
     16          1           0        4.791696   -1.644642    0.833871
     17          1           0        3.824476    0.653835   -0.965738
     18          1           0        3.844068    0.690046    0.787640
     19          1           0        2.281263   -1.308966    0.808757
     20          1           0        2.233168   -1.260877   -0.941932
     21          1           0        2.005456    1.608406    1.506125
     22          1           0        0.986379    0.343240    2.201255
     23          1           0        0.257990    1.764349    1.440507
     24          1           0        2.020743    1.992069   -1.024858
     25          1           0        0.271806    1.964154   -1.190357
     26          1           0        1.256857    0.820776   -2.106297
     27          1           0        0.066446   -1.518241    0.487444
     28          1           0       -0.052958   -1.043225   -1.186609
     29          1           0       -1.517787    0.660903    2.035108
     30          1           0       -1.689132   -1.091942    2.102177
     31          1           0       -3.077238   -0.066701    1.690027
     32          1           0       -3.253440    0.628729   -0.986207
     33          1           0       -1.694507    0.904715   -1.732389
     34          1           0       -2.812907    2.305128    0.775995
     35          1           0       -2.637985    2.996627   -0.834023
     36          1           0       -1.207224    2.633664    0.126385
     37          1           0       -1.927761   -2.485646   -0.012918
     38          1           0       -2.196050   -1.667080   -1.559324
     39          1           0       -3.974497   -1.718348    0.608701
 ---------------------------------------------------------------------

 SCF Done:  E(RB3LYP) =  -548.199672495     A.U. after    1 cycles

 The electronic state is 1-A.
 Alpha  occ. eigenvalues --  -19.13426 -10.21855 -10.19298 -10.19033 -10.17561
 Alpha  occ. eigenvalues --  -10.17378 -10.17217 -10.17145 -10.17070 -10.16943
 Alpha  occ. eigenvalues --  -10.16816 -10.16752 -10.16550  -1.01463  -0.82999
 Alpha  occ. eigenvalues --   -0.79990  -0.75864  -0.73120  -0.69110  -0.67856
 Alpha  occ. eigenvalues --   -0.67258  -0.65861  -0.61991  -0.58991  -0.54202
 Alpha  occ. eigenvalues --   -0.51731  -0.49629  -0.46573  -0.46457  -0.45023
 Alpha  occ. eigenvalues --   -0.44092  -0.43428  -0.42572  -0.42084  -0.41197
 Alpha  occ. eigenvalues --   -0.40142  -0.38506  -0.37858  -0.37556  -0.36515
 Alpha  occ. eigenvalues --   -0.35984  -0.35746  -0.35039  -0.34743  -0.33647
 Alpha  occ. eigenvalues --   -0.32620  -0.32549  -0.31609  -0.31225  -0.30554
 Alpha  occ. eigenvalues --   -0.30274  -0.28907  -0.25836
 Alpha virt. eigenvalues --    0.06128   0.08368   0.10312   0.10966   0.11622
 Alpha virt. eigenvalues --    0.12071   0.12341   0.12799   0.13764   0.14400
 Alpha virt. eigenvalues --    0.15218   0.15870   0.16147   0.16715   0.17388

 Mulliken charges:
               1
     1  C   -0.377426
     2  C   -0.197676
     3  C   -0.149828
     4  C    0.219494
     5  C   -0.422541
     6  C   -0.418343
     7  C   -0.220976
     8  C    0.217038
     9  C   -0.440487
    10  C   -0.204715
    11  C   -0.403282
    12  C   -0.071324
    13  O   -0.427537
    14  H    0.109437
    15  H    0.112986
    16  H    0.112478
    17  H    0.099097
    18  H    0.096991
    19  H    0.085341
    20  H    0.085514
    21  H    0.109715
    22  H    0.106889
    23  H    0.121273
    24  H    0.109893
    25  H    0.122665
    26  H    0.104193
    27  H    0.083853
    28  H    0.086894
    29  H    0.124750
    30  H    0.101153
    31  H    0.104415
    32  H    0.114892
    33  H    0.090347
    34  H    0.112111
    35  H    0.110770
    36  H    0.120804
    37  H    0.081565
    38  H    0.105661
    39  H    0.283917
 Sum of Mulliken charges =  -0.00000

 Dipole moment (field-independent basis, Debye):
    X=              0.8565    Y=             -0.0628    Z=              1.0667  Tot=              1.3694
 Quadrupole moment (field-independent basis, Debye-Ang):
   XX=            -91.3343   YY=            -86.6020   ZZ=            -85.2977
   XY=             -0.5175   XZ=             -5.2241   YZ=             -2.2590

  Exact polarizability: 159.263  -2.215 128.085  -1.610  -1.258 120.918
 Approx polarizability: 195.283  -0.030 186.368  -1.265  -1.207 188.746

                      1                      2                      3
                      A                      A                      A
 Frequencies --     52.9901                66.7831                84.8745
 Red. masses --      2.2619                 1.8609                 2.9859
 Frc consts  --      0.0037                 0.0049                 0.0127
 IR Inten    --      0.1517                 0.0350                 0.3092

                      4                      5                      6
                      A                      A                      A
 Frequencies --     99.7925               117.4001               143.5754
 Red. masses --      3.2053                 2.0244                 2.3937
 Frc consts  --      0.0188                 0.0164                 0.0291
 IR Inten    --      0.0303                 0.3666                 0.7445

                      7                      8                      9
                      A                      A                      A
 Frequencies --    160.9502               186.8284               216.7245
 Red. masses --      2.4018                 2.7289                 1.4795
 Frc consts  --      0.0367                 0.0561                 0.0409
 IR Inten    --      1.5658                 0.5309                 0.2811

                     10                     11                     12
                      A                      A                      A
 Frequencies --    238.1709               243.3529               249.4793
 Red. masses --      2.2689                 1.2681                 1.3580
 Frc consts  --      0.0758                 0.0442                 0.0498
 IR Inten    --      1.7505                 2.4967                 8.7586

                     13                     14                     15
                      A                      A                      A
 Frequencies --    265.3625               273.3281               287.7839
 Red. masses --      1.2684                 1.8380                 1.4992
 Frc consts  --      0.0526                 0.0809                 0.0732
 IR Inten    --      6.7667                 7.4190                 1.7520

                     16                     17                     18
                      A                      A                      A
 Frequencies --    290.5181               301.9108               328.2210
 Red. masses --      1.6351                 1.5273                 2.4756
 Frc consts  --      0.0813                 0.0820                 0.1571
 IR Inten    --      5.0549                 7.5684                 7.1429

                     19                     20                     21
                      A                      A                      A
 Frequencies --    334.5731               355.0619               367.8424
 Red. masses --      2.9092                 1.2513                 1.9870
 Frc consts  --      0.1919                 0.0929                 0.1584
 IR Inten    --     21.2890                51.4825                 0.3016

                     22                     23                     24
                      A                      A                      A
 Frequencies --    399.2691               403.4130               413.5126
 Red. masses --      2.0295                 2.2987                 1.6845
 Frc consts  --      0.1906                 0.2204                 0.1697
 IR Inten    --      7.6453                 0.4255                 1.3600

                     25                     26                     27
                      A                      A                      A
 Frequencies --    473.0188               552.3557               623.2050
 Red. masses --      2.5926                 2.9007                 2.5473
 Frc consts  --      0.3418                 0.5214                 0.5829
 IR Inten    --      0.2803                 1.8484                 2.9147

                     28                     29                     30
                      A                      A                      A
 Frequencies --    709.8795               743.9640               753.2664
 Red. masses --      3.3559                 1.1535                 2.9713
 Frc consts  --      0.9964                 0.3762                 0.9933
 IR Inten    --      0.1782                 2.1093                 0.4865

                     31                     32                     33
                      A                      A                      A
 Frequencies --    782.2524               843.5322               856.1110
 Red. masses --      1.3072                 2.1737                 1.8710
 Frc consts  --      0.4713                 0.9113                 0.8079
 IR Inten    --      5.8401                 1.9766                 0.4356

                     34                     35                     36
                      A                      A                      A
 Frequencies --    868.1712               901.8244               914.4069
 Red. masses --      1.3407                 1.7817                 1.9349
 Frc consts  --      0.5954                 0.8538                 0.9532
 IR Inten    --      0.0878                12.9247                11.7509

                     37                     38                     39
                      A                      A                      A
 Frequencies --    936.5653               944.8942               971.9025
 Red. masses --      1.9439                 1.4566                 1.4647
 Frc consts  --      1.0046                 0.7662                 0.8151
 IR Inten    --      6.6567                 2.2740                 7.7640

                     40                     41                     42
                      A                      A                      A
 Frequencies --    995.3531              1009.4455              1020.4957
 Red. masses --      2.0314                 1.2840                 1.6049
 Frc consts  --      1.1858                 0.7709                 0.9847
 IR Inten    --      2.1192                 2.2575                 6.5557

                     43                     44                     45
                      A                      A                      A
 Frequencies --   1048.1968              1053.7024              1058.5530
 Red. masses --      2.4301                 2.5941                 1.5880
 Frc consts  --      1.5731                 1.6970                 1.0484
 IR Inten    --      0.4143                 0.2625                 0.5078

                     46                     47                     48
                      A                      A                      A
 Frequencies --   1077.9388              1089.0740              1109.0390
 Red. masses --      2.4700                 2.2698                 1.9674
 Frc consts  --      1.6910                 1.5862                 1.4257
 IR Inten    --     65.2713                30.9118                 1.2758

                     49                     50                     51
                      A                      A                      A
 Frequencies --   1148.8274              1164.0757              1200.5991
 Red. masses --      1.5306                 2.1541                 2.0365
 Frc consts  --      1.1902                 1.7198                 1.7296
 IR Inten    --      8.8327                 0.0927                14.8984

                     52                     53                     54
                      A                      A                      A
 Frequencies --   1209.8060              1223.4532              1248.2827
 Red. masses --      1.5808                 2.5478                 2.6691
 Frc consts  --      1.3632                 2.2470                 2.4504
 IR Inten    --      7.5874                16.3269                 2.4040

                     55                     56                     57
                      A                      A                      A
 Frequencies --   1260.5674              1292.6819              1322.7878
 Red. masses --      1.6273                 1.5492                 1.3704
 Frc consts  --      1.5235                 1.5252                 1.4128
 IR Inten    --      5.3760                 1.6052                 0.1532

                     58                     59                     60
                      A                      A                      A
 Frequencies --   1329.1042              1341.1358              1371.5132
 Red. masses --      1.2392                 1.2038                 1.3068
 Frc consts  --      1.2897                 1.2757                 1.4483
 IR Inten    --      2.0329                 6.2306                 0.6557

                     61                     62                     63
                      A                      A                      A
 Frequencies --   1375.7832              1386.5154              1393.8800
 Red. masses --      1.2227                 1.3129                 1.3393
 Frc consts  --      1.3635                 1.4871                 1.5332
 IR Inten    --      3.9104                 0.6606                 3.8939

                     64                     65                     66
                      A                      A                      A
 Frequencies --   1397.6117              1402.9278              1407.5389
 Red. masses --      1.2741                 1.2838                 1.2518
 Frc consts  --      1.4663                 1.4888                 1.4611
 IR Inten    --     11.5488                 9.0567                 2.4739

                     67                     68                     69
                      A                      A                      A
 Frequencies --   1411.3021              1418.0206              1423.5619
 Red. masses --      1.2306                 1.2147                 1.2190
 Frc consts  --      1.4441                 1.4391                 1.4555
 IR Inten    --      0.1401                17.5538                11.9620

                     70                     71                     72
                      A                      A                      A
 Frequencies --   1435.6413              1463.7231              1479.0295
 Red. masses --      1.2822                 1.0860                 1.0769
 Frc consts  --      1.5570                 1.3708                 1.3879
 IR Inten    --      3.5608                 0.1214                 1.3999

                     73                     74                     75
                      A                      A                      A
 Frequencies --   1482.3235              1490.1465              1490.9652
 Red. masses --      1.0491                 1.0562                 1.0655
 Frc consts  --      1.3581                 1.3818                 1.3955
 IR Inten    --      0.5729                 0.0579                 7.9023

                     76                     77                     78
                      A                      A                      A
 Frequencies --   1492.0447              1496.7818              1497.5778
 Red. masses --      1.0617                 1.0585                 1.0616
 Frc consts  --      1.3926                 1.3972                 1.4028
 IR Inten    --      0.3354                 3.7098                 2.4487

                     79                     80                     81
                      A                      A                      A
 Frequencies --   1500.1237              1504.8619              1510.2153
 Red. masses --      1.0443                 1.0572                 1.0625
 Frc consts  --      1.3846                 1.4105                 1.4278
 IR Inten    --      2.5326                 1.7171                 0.1444

                     82                     83                     84
                      A                      A                      A
 Frequencies --   1511.2744              1514.2170              1518.4882
 Red. masses --      1.0621                 1.0608                 1.0600
 Frc consts  --      1.4292                 1.4331                 1.4401
 IR Inten    --      1.6268                 0.9820                 2.7080

                     85                     86                     87
                      A                      A                      A
 Frequencies --   1525.2176              2978.9002              2988.2902
 Red. masses --      1.0552                 1.0634                 1.0622
 Frc consts  --      1.4462                 5.5600                 5.5886
 IR Inten    --     12.7577                13.2594                38.5575

                     88                     89                     90
                      A                      A                      A
 Frequencies --   2998.5524              3020.7537              3024.0461
 Red. masses --      1.0586                 1.0851                 1.0577
 Frc consts  --      5.6082                 5.8336                 5.6988
 IR Inten    --     41.6141                 3.1643                26.6223

                     91                     92                     93
                      A                      A                      A
 Frequencies --   3027.1063              3030.8473              3031.0942
 Red. masses --      1.0373                 1.0689                 1.0603
 Frc consts  --      5.6002                 5.7853                 5.7396
 IR Inten    --     25.7381                39.3943                 3.9795

                     94                     95                     96
                      A                      A                      A
 Frequencies --   3032.0714              3033.9334              3039.8294
 Red. masses --      1.0815                 1.0453                 1.0405
 Frc consts  --      5.8583                 5.6689                 5.6651
 IR Inten    --     14.4448                51.8151                 2.3420

                     97                     98                     99
                      A                      A                      A
 Frequencies --   3041.8212              3065.4292              3066.3381
 Red. masses --      1.0396                 1.0984                 1.0991
 Frc consts  --      5.6673                 6.0814                 6.0887
 IR Inten    --     26.3304                 4.4803                51.8887

                    100                    101                    102
                      A                      A                      A
 Frequencies --   3067.9758              3080.0239              3094.5399
 Red. masses --      1.1000                 1.1002                 1.1011
 Frc consts  --      6.1004                 6.1492                 6.2124
 IR Inten    --      9.4696                36.3293                47.2153

                    103                    104                    105
                      A                      A                      A
 Frequencies --   3097.6887              3099.2343              3099.6321
 Red. masses --      1.1004                 1.1008                 1.0994
 Frc consts  --      6.2212                 6.2297                 6.2237
 IR Inten    --     18.2534                 5.4107                35.1883

                    106                    107                    108
                      A                      A                      A
 Frequencies --   3100.6352              3115.6925              3123.2461
 Red. masses --      1.0992                 1.1003                 1.0977
 Frc consts  --      6.2261                 6.2933                 6.3087
 IR Inten    --     91.9562                83.2436                 4.0329

                    109                    110                    111
                      A                      A                      A
 Frequencies --   3144.1766              3145.3344              3831.3424
 Red. masses --      1.0937                 1.0923                 1.0660
 Frc consts  --      6.3703                 6.3670                 9.2192
 IR Inten    --     15.0213                20.3399                19.7767

 - Thermochemistry -
 -------------------
 Temperature   298.150 Kelvin.  Pressure   1.00000 Atm.
 Atom     1 has atomic number  6 and mass  12.00000

 Molecular mass:   186.19837 amu.
 Principal axes and moments of inertia in atomic units:
                           1         2         3
     Eigenvalues --  1380.913584892.880315406.95310
           X            0.99987  -0.01501  -0.00515
           Y            0.01495   0.99983  -0.01048
           Z            0.00531   0.01040   0.99993
 This molecule is an asymmetric top.
 Rotational symmetry number  1.
 Warning -- assumption of classical behavior for rotation
           may cause significant error
 Rotational temperatures (Kelvin)      0.06272     0.01770     0.01602
 Rotational constants (GHZ):           1.30692     0.36885     0.33378
 Zero-point vibrational energy     952466.8 (Joules/Mol)
                                  227.64502 (Kcal/Mol)
 Warning -- explicit consideration of  26 degrees of freedom as
           vibrations may cause significant error
 Vibrational temperatures:     76.24    96.09   122.12   143.58   168.91
          (Kelvin)            206.57   231.57   268.80   311.82   342.67
                              350.13   358.95   381.80   393.26   414.06
                              417.99   434.38   472.24   481.38   510.85
                              529.24   574.46   580.42   594.95   680.57
                              794.72   896.65  1021.36  1070.40  1083.78
                             1125.49  1213.65  1231.75  1249.10  1297.52
                             1315.63  1347.51  1359.49  1398.35  1432.09
                             1452.37  1468.27  1508.12  1516.04  1523.02
                             1550.91  1566.93  1595.66  1652.91  1674.85
                             1727.39  1740.64  1760.28  1796.00  1813.68
                             1859.88  1903.20  1912.28  1929.60  1973.30
                             1979.45  1994.89  2005.48  2010.85  2018.50
                             2025.13  2030.55  2040.22  2048.19  2065.57
                             2105.97  2127.99  2132.73  2143.99  2145.17
                             2146.72  2153.54  2154.68  2158.34  2165.16
                             2172.86  2174.39  2178.62  2184.77  2194.45
                             4285.97  4299.48  4314.25  4346.19  4350.93
                             4355.33  4360.71  4361.07  4362.47  4365.15
                             4373.64  4376.50  4410.47  4411.78  4414.13
                             4431.47  4452.35  4456.88  4459.11  4459.68
                             4461.12  4482.79  4493.65  4523.77  4525.43
                             5512.45

 Zero-point correction=                           0.362775 (Hartree/Particle)
 Thermal correction to Energy=                    0.379878
 Thermal correction to Enthalpy=                  0.380822
 Thermal correction to Gibbs Free Energy=         0.319942
 Sum of electronic and zero-point Energies=           -547.836897
 Sum of electronic and thermal Energies=              -547.819795
 Sum of electronic and thermal Enthalpies=            -547.818850
 Sum of electronic and thermal Free Energies=         -547.879730

                     E (Thermal)             CV                S
                      KCal/Mol        Cal/Mol-Kelvin    Cal/Mol-Kelvin
 Total                  238.377             65.318            128.132
 Electronic               0.000              0.000              0.000
 Translational            0.889              2.981             41.571
 Rotational               0.889              2.981             31.969
 Vibrational            236.600             59.356             54.593
 Vibration     1          0.596              1.976              4.703
 Vibration     2          0.598              1.970              4.246
 Vibration     3          0.601              1.960              3.775
 Vibration     4          0.604              1.949              3.458
 Vibration     5          0.608              1.935              3.143
 Vibration     6          0.616              1.910              2.756
 Vibration     7          0.622              1.890              2.539
 Vibration     8          0.632              1.858              2.259
 Vibration     9          0.646              1.816              1.986
 Vibration    10          0.656              1.782              1.817
 Vibration    11          0.659              1.774              1.778
 Vibration    12          0.662              1.764              1.734
 Vibration    13          0.671              1.737              1.626
 Vibration    14          0.676              1.723              1.575
 Vibration    15          0.685              1.696              1.487
 Vibration    16          0.686              1.691              1.471
 Vibration    17          0.694              1.670              1.406
 Vibration    18          0.711              1.619              1.269
 Vibration    19          0.716              1.606              1.238
 Vibration    20          0.731              1.565              1.144
 Vibration    21          0.740              1.538              1.089
 Vibration    22          0.765              1.472              0.965
 Vibration    23          0.769              1.463              0.950
 Vibration    24          0.777              1.441              0.914
 Vibration    25          0.830              1.310              0.729
 Vibration    26          0.908              1.135              0.539

 Optimization completed.
    -- Stationary point found.
 Normal termination of Gaussian 16 at Tue May 23 09:20:59 2023.
