 Gaussian 16, Revision A.03,
 Gaussian 16:  ES64L-G16RevA.03 25-Dec-2016

 -----------------------------
 # opt freq b3lyp/6-31g(2df,p)
 -----------------------------

 -------------------
 Title Card Required
 -------------------
 Symbolic Z-matrix:
 Charge =  0 Multiplicity = 1

 SCF Done:  E(RB3LYP) =  -589.706591816     A.U. after   12 cycles
 SCF Done:  E(RB3LYP) =  -589.712792200     A.U. after   10 cycles
 SCF Done:  E(RB3LYP) =  -589.713882583     A.U. after    9 cycles
 SCF Done:  E(RB3LYP) =  -589.714569092     A.U. after   10 cycles
 SCF Done:  E(RB3LYP) =  -589.714732800     A.U. after    9 cycles
 SCF Done:  E(RB3LYP) =  -589.714844916     A.U. after    8 cycles
 SCF Done:  E(RB3LYP) =  -589.714854083     A.U. after    8 cycles
 SCF Done:  E(RB3LYP) =  -589.714855907     A.U. after    6 cycles
 SCF Done:  E(RB3LYP) =  -589.714856237     A.U. after    6 cycles
 SCF Done:  E(RB3LYP) =  -589.714856284     A.U. after    5 cycles
 Optimization completed.
    -- Stationary point found.
 Normal termination of Gaussian 16 at Tue May 23 23:32:31 2023.

 ----------------------------------------------------------------------
 #N Geom=AllCheck Guess=TCheck SCRF=Check GenChk RB3LYP/6-31G(2df,p) Fr
 eq
 ----------------------------------------------------------------------

 Structure from the checkpoint file:  "CCCCC1CqCrC1CCCCCqCrC.chk"
 -------------------
 Title Card Required
 -------------------
 Charge =  0 Multiplicity = 1

                         Standard orientation:
 ---------------------------------------------------------------------
 Center     Atomic      Atomic             Coordinates (Angstroms)
 Number     Number       Type             X           Y           Z
 ---------------------------------------------------------------------
      1          6           0       -6.296466   -2.147957   -0.330868
      2          6           0       -5.033446   -1.761067    0.443298
      3          6           0       -4.108446   -0.823059   -0.339141
      4          6           0       -2.837960   -0.435766    0.430175
      5          6           0       -1.903678    0.456178   -0.362823
      6          6           0       -2.037197    1.967839   -0.418813
      7          6           0       -3.107514    2.737158    0.325943
      8          6           0       -0.871906    1.336273    0.305838
      9          6           0        0.543179    1.432586   -0.226323
     10          6           0        1.458813    0.306979    0.273398
     11          6           0        2.891526    0.400424   -0.263592
     12          6           0        3.799677   -0.724684    0.246903
     13          6           0        5.224231   -0.738770   -0.337920
     14          6           0        6.032263    0.508088    0.049409
     15          6           0        5.967136   -2.012865    0.087235
     16          1           0       -6.936115   -2.817308    0.253147
     17          1           0       -6.045680   -2.660005   -1.266696
     18          1           0       -6.888921   -1.263062   -0.589265
     19          1           0       -4.479455   -2.668674    0.718323
     20          1           0       -5.316588   -1.282674    1.390571
     21          1           0       -4.657885    0.087004   -0.614743
     22          1           0       -3.824981   -1.301435   -1.287344
     23          1           0       -2.299527   -1.349879    0.718310
     24          1           0       -3.117852    0.051177    1.372352
     25          1           0       -1.575862    0.003989   -1.298513
     26          1           0       -1.789001    2.402447   -1.385439
     27          1           0       -3.322762    2.298294    1.304433
     28          1           0       -4.047385    2.768260   -0.237247
     29          1           0       -2.792213    3.772707    0.497772
     30          1           0       -0.941015    1.370474    1.393141
     31          1           0        0.977119    2.403525    0.052290
     32          1           0        0.516233    1.418223   -1.324567
     33          1           0        1.023924   -0.661963   -0.006778
     34          1           0        1.481177    0.320567    1.372137
     35          1           0        3.310926    1.377029    0.009652
     36          1           0        2.868521    0.377149   -1.362593
     37          1           0        3.321974   -1.688363    0.022442
     38          1           0        3.864954   -0.670738    1.343739
     39          1           0        5.132639   -0.753841   -1.434217
     40          1           0        6.130182    0.585112    1.139412
     41          1           0        5.565723    1.430101   -0.309078
     42          1           0        7.042910    0.465415   -0.370388
     43          1           0        6.083768   -2.052249    1.177173
     44          1           0        6.968734   -2.056022   -0.353673
     45          1           0        5.425184   -2.913412   -0.220656
 ---------------------------------------------------------------------

 SCF Done:  E(RB3LYP) =  -589.714856284     A.U. after    1 cycles

 The electronic state is 1-A.
 Alpha  occ. eigenvalues --  -10.18070 -10.17953 -10.17721 -10.17587 -10.17414
 Alpha  occ. eigenvalues --  -10.17381 -10.17358 -10.17165 -10.17137 -10.17107
 Alpha  occ. eigenvalues --  -10.17104 -10.17030 -10.16851 -10.16649 -10.16642
 Alpha  occ. eigenvalues --   -0.85827  -0.80779  -0.78826  -0.77246  -0.72678
 Alpha  occ. eigenvalues --   -0.71875  -0.69129  -0.67590  -0.64243  -0.62402
 Alpha  occ. eigenvalues --   -0.57679  -0.57423  -0.55836  -0.54894  -0.53462
 Alpha  occ. eigenvalues --   -0.47691  -0.47127  -0.45424  -0.45057  -0.43722
 Alpha  occ. eigenvalues --   -0.43095  -0.41970  -0.41550  -0.40810  -0.39366
 Alpha  occ. eigenvalues --   -0.39343  -0.38428  -0.38085  -0.37542  -0.37426
 Alpha  occ. eigenvalues --   -0.36281  -0.35196  -0.34639  -0.34339  -0.33577
 Alpha  occ. eigenvalues --   -0.33297  -0.32884  -0.31980  -0.31848  -0.31448
 Alpha  occ. eigenvalues --   -0.31285  -0.30985  -0.30287  -0.25607  -0.25393
 Alpha virt. eigenvalues --    0.08618   0.08704   0.09389   0.10407   0.10895
 Alpha virt. eigenvalues --    0.11820   0.12074   0.12719   0.13415   0.13997
 Alpha virt. eigenvalues --    0.14364   0.15318   0.15657   0.15791   0.16058

 Mulliken charges:
               1
     1  C   -0.379597
     2  C   -0.162516
     3  C   -0.152341
     4  C   -0.221496
     5  C   -0.008221
     6  C   -0.027269
     7  C   -0.415208
     8  C   -0.042252
     9  C   -0.222228
    10  C   -0.169721
    11  C   -0.189927
    12  C   -0.165253
    13  C    0.043689
    14  C   -0.379695
    15  C   -0.387634
    16  H    0.109271
    17  H    0.112261
    18  H    0.112403
    19  H    0.092518
    20  H    0.092180
    21  H    0.095887
    22  H    0.088741
    23  H    0.091931
    24  H    0.090527
    25  H    0.070021
    26  H    0.073314
    27  H    0.114919
    28  H    0.114196
    29  H    0.114215
    30  H    0.070181
    31  H    0.089906
    32  H    0.086985
    33  H    0.093620
    34  H    0.089471
    35  H    0.094818
    36  H    0.088627
    37  H    0.086000
    38  H    0.086666
    39  H    0.067868
    40  H    0.108631
    41  H    0.113260
    42  H    0.107576
    43  H    0.109741
    44  H    0.106611
    45  H    0.107322
 Sum of Mulliken charges =  -0.00000

 Dipole moment (field-independent basis, Debye):
    X=             -0.0213    Y=              0.0317    Z=             -0.0309  Tot=              0.0491
 Quadrupole moment (field-independent basis, Debye-Ang):
   XX=           -101.2587   YY=            -99.7516   ZZ=            -98.3102
   XY=             -0.0985   XZ=             -0.9490   YZ=              0.4836

  Exact polarizability: 201.879   0.447 160.135   0.493  -0.443 135.950
 Approx polarizability: 225.435  -0.113 224.022   1.511   0.707 218.561

                      1                      2                      3
                      A                      A                      A
 Frequencies --     21.2740                23.4616                42.5939
 Red. masses --      3.3804                 2.6079                 2.8990
 Frc consts  --      0.0009                 0.0008                 0.0031
 IR Inten    --      0.0016                 0.0026                 0.0079

                      4                      5                      6
                      A                      A                      A
 Frequencies --     51.8441                74.9662                81.4289
 Red. masses --      2.4381                 2.0450                 2.5654
 Frc consts  --      0.0039                 0.0068                 0.0100
 IR Inten    --      0.0028                 0.0021                 0.0020

                      7                      8                      9
                      A                      A                      A
 Frequencies --     88.6045               112.9081               128.3357
 Red. masses --      2.4890                 1.9950                 2.2336
 Frc consts  --      0.0115                 0.0150                 0.0217
 IR Inten    --      0.0059                 0.0099                 0.0004

                     10                     11                     12
                      A                      A                      A
 Frequencies --    139.3490               146.3555               177.8897
 Red. masses --      2.7039                 2.0685                 1.3518
 Frc consts  --      0.0309                 0.0261                 0.0252
 IR Inten    --      0.0031                 0.0373                 0.0085

                     13                     14                     15
                      A                      A                      A
 Frequencies --    207.6787               225.0559               231.5633
 Red. masses --      2.1019                 1.1003                 1.9978
 Frc consts  --      0.0534                 0.0328                 0.0631
 IR Inten    --      0.1446                 0.0204                 0.0251

                     16                     17                     18
                      A                      A                      A
 Frequencies --    245.2272               248.5328               259.0018
 Red. masses --      1.2998                 1.4168                 1.6615
 Frc consts  --      0.0461                 0.0516                 0.0657
 IR Inten    --      0.0241                 0.0267                 0.0468

                     19                     20                     21
                      A                      A                      A
 Frequencies --    283.8703               297.6143               330.4164
 Red. masses --      2.2885                 2.4655                 3.2082
 Frc consts  --      0.1087                 0.1287                 0.2064
 IR Inten    --      0.0360                 0.0389                 0.0829

                     22                     23                     24
                      A                      A                      A
 Frequencies --    374.5928               396.3712               419.3949
 Red. masses --      2.4040                 2.2859                 2.4134
 Frc consts  --      0.1987                 0.2116                 0.2501
 IR Inten    --      0.1340                 0.1325                 0.2161

                     25                     26                     27
                      A                      A                      A
 Frequencies --    450.8689               462.6467               522.8512
 Red. masses --      2.4739                 2.6173                 2.7549
 Frc consts  --      0.2963                 0.3301                 0.4437
 IR Inten    --      0.0258                 0.4359                 0.6254

                     28                     29                     30
                      A                      A                      A
 Frequencies --    556.6121               731.9579               734.5190
 Red. masses --      2.4353                 1.1338                 1.0893
 Frc consts  --      0.4445                 0.3579                 0.3463
 IR Inten    --      1.1542                 4.4540                 1.9770

                     31                     32                     33
                      A                      A                      A
 Frequencies --    757.3565               775.8365               798.6344
 Red. masses --      1.8560                 1.3326                 1.5310
 Frc consts  --      0.6272                 0.4726                 0.5753
 IR Inten    --      2.7029                 0.2277                 2.0750

                     34                     35                     36
                      A                      A                      A
 Frequencies --    822.2375               851.0857               870.6935
 Red. masses --      2.4194                 2.2153                 1.7488
 Frc consts  --      0.9637                 0.9455                 0.7811
 IR Inten    --      0.0990                 2.4897                 2.0364

                     37                     38                     39
                      A                      A                      A
 Frequencies --    895.2674               919.4124               926.7568
 Red. masses --      1.5345                 1.6339                 1.1987
 Frc consts  --      0.7247                 0.8137                 0.6066
 IR Inten    --      0.7014                 3.8657                 0.9268

                     40                     41                     42
                      A                      A                      A
 Frequencies --    937.0402               951.3417               965.0614
 Red. masses --      1.2835                 1.8167                 1.4499
 Frc consts  --      0.6640                 0.9688                 0.7956
 IR Inten    --      0.3588                 0.4356                 0.5354

                     43                     44                     45
                      A                      A                      A
 Frequencies --    978.2662               996.9623              1012.9306
 Red. masses --      1.3628                 1.9968                 2.3519
 Frc consts  --      0.7684                 1.1693                 1.4217
 IR Inten    --      3.1679                 1.1717                 0.3953

                     46                     47                     48
                      A                      A                      A
 Frequencies --   1028.7689              1042.9686              1048.5111
 Red. masses --      2.9130                 1.5840                 2.3649
 Frc consts  --      1.8165                 1.0152                 1.5319
 IR Inten    --      0.4054                 0.3710                 0.5822

                     49                     50                     51
                      A                      A                      A
 Frequencies --   1065.2682              1067.3285              1081.7906
 Red. masses --      2.3554                 2.2669                 1.6153
 Frc consts  --      1.5748                 1.5215                 1.1137
 IR Inten    --      0.5180                 0.1255                 0.3973

                     52                     53                     54
                      A                      A                      A
 Frequencies --   1088.5342              1095.4928              1117.0684
 Red. masses --      1.3881                 1.7804                 1.6285
 Frc consts  --      0.9691                 1.2589                 1.1973
 IR Inten    --      2.6354                 1.5675                 0.3037

                     55                     56                     57
                      A                      A                      A
 Frequencies --   1140.9519              1143.3836              1150.7600
 Red. masses --      1.7487                 2.0466                 2.3722
 Frc consts  --      1.3412                 1.5764                 1.8509
 IR Inten    --      0.2085                 6.5094                 1.3511

                     58                     59                     60
                      A                      A                      A
 Frequencies --   1192.9654              1195.1578              1201.5175
 Red. masses --      1.7606                 1.9558                 2.1346
 Frc consts  --      1.4763                 1.6460                 1.8156
 IR Inten    --      4.8987                 0.2401                 0.3830

                     61                     62                     63
                      A                      A                      A
 Frequencies --   1221.1559              1238.0285              1245.0644
 Red. masses --      1.6483                 1.4514                 1.4181
 Frc consts  --      1.4482                 1.3107                 1.2952
 IR Inten    --      1.7185                 0.7837                 1.2417

                     64                     65                     66
                      A                      A                      A
 Frequencies --   1253.4614              1273.8367              1284.7632
 Red. masses --      1.3118                 1.3159                 1.3495
 Frc consts  --      1.2143                 1.2580                 1.3124
 IR Inten    --      7.1171                 5.6056                 2.8747

                     67                     68                     69
                      A                      A                      A
 Frequencies --   1311.6731              1315.1856              1326.8417
 Red. masses --      1.2282                 1.2288                 1.1827
 Frc consts  --      1.2450                 1.2523                 1.2267
 IR Inten    --      1.7837                 1.0214                 0.2582

                     70                     71                     72
                      A                      A                      A
 Frequencies --   1329.9761              1330.8608              1345.2190
 Red. masses --      1.0612                 1.0791                 1.2459
 Frc consts  --      1.1060                 1.1262                 1.3284
 IR Inten    --      0.2192                 0.0171                 2.2735

                     73                     74                     75
                      A                      A                      A
 Frequencies --   1351.9510              1367.5342              1372.7178
 Red. masses --      1.3350                 1.3426                 1.3516
 Frc consts  --      1.4376                 1.4793                 1.5006
 IR Inten    --      6.0854                 1.0257                 5.4853

                     76                     77                     78
                      A                      A                      A
 Frequencies --   1389.5642              1392.8890              1397.7931
 Red. masses --      1.4453                 1.4813                 1.5068
 Frc consts  --      1.6443                 1.6933                 1.7346
 IR Inten    --      3.0982                 0.6579                 1.6300

                     79                     80                     81
                      A                      A                      A
 Frequencies --   1400.4018              1401.9319              1413.1423
 Red. masses --      1.5666                 1.3454                 1.2515
 Frc consts  --      1.8101                 1.5579                 1.4725
 IR Inten    --      1.5974                 3.9757                 0.3776

                     82                     83                     84
                      A                      A                      A
 Frequencies --   1417.0513              1421.9286              1476.4536
 Red. masses --      1.2880                 1.2447                 1.6061
 Frc consts  --      1.5238                 1.4828                 2.0628
 IR Inten    --      2.2856                 3.2426                 0.5210

                     85                     86                     87
                      A                      A                      A
 Frequencies --   1477.6171              1479.9025              1481.8905
 Red. masses --      1.1414                 1.0895                 1.1657
 Frc consts  --      1.4683                 1.4059                 1.5082
 IR Inten    --      0.2965                 1.5478                 0.9219

                     88                     89                     90
                      A                      A                      A
 Frequencies --   1485.4266              1488.8208              1490.6534
 Red. masses --      1.0872                 1.0510                 1.0756
 Frc consts  --      1.4134                 1.3725                 1.4081
 IR Inten    --      0.7156                 0.5459                 0.5803

                     91                     92                     93
                      A                      A                      A
 Frequencies --   1495.6307              1496.3206              1498.9748
 Red. masses --      1.0579                 1.0673                 1.1122
 Frc consts  --      1.3943                 1.4080                 1.4724
 IR Inten    --      0.7659                 1.1613                 1.6799

                     94                     95                     96
                      A                      A                      A
 Frequencies --   1499.8076              1505.0879              1507.0572
 Red. masses --      1.0403                 1.0549                 1.1324
 Frc consts  --      1.3788                 1.4080                 1.5153
 IR Inten    --      5.1499                 2.7653                 2.0858

                     97                     98                     99
                      A                      A                      A
 Frequencies --   1508.8654              1512.3670              1513.2329
 Red. masses --      1.0855                 1.0635                 1.0959
 Frc consts  --      1.4561                 1.4332                 1.4785
 IR Inten    --      1.0577                 8.5941                 6.8565

                    100                    101                    102
                      A                      A                      A
 Frequencies --   2989.0864              2996.0928              2999.1632
 Red. masses --      1.0777                 1.0618                 1.0593
 Frc consts  --      5.6732                 5.6155                 5.6142
 IR Inten    --      5.8507                14.6860                 6.2743

                    103                    104                    105
                      A                      A                      A
 Frequencies --   3002.5028              3003.1628              3005.3319
 Red. masses --      1.0620                 1.0598                 1.0631
 Frc consts  --      5.6407                 5.6317                 5.6574
 IR Inten    --      2.2830                 3.4255                 3.6791

                    106                    107                    108
                      A                      A                      A
 Frequencies --   3013.3223              3014.5479              3020.8662
 Red. masses --      1.0624                 1.0641                 1.0367
 Frc consts  --      5.6835                 5.6977                 5.5741
 IR Inten    --     64.5349                86.9191                34.3510

                    109                    110                    111
                      A                      A                      A
 Frequencies --   3023.9916              3025.5500              3026.6443
 Red. masses --      1.0909                 1.0381                 1.0458
 Frc consts  --      5.8773                 5.5988                 5.6444
 IR Inten    --      1.0754                34.1210                31.0038

                    112                    113                    114
                      A                      A                      A
 Frequencies --   3027.4362              3027.8417              3029.1681
 Red. masses --      1.0434                 1.0925                 1.0848
 Frc consts  --      5.6342                 5.9012                 5.8648
 IR Inten    --     28.7928                 9.0776                16.4011

                    115                    116                    117
                      A                      A                      A
 Frequencies --   3042.7086              3042.9082              3061.0823
 Red. masses --      1.0972                 1.1017                 1.1027
 Frc consts  --      5.9851                 6.0102                 6.0879
 IR Inten    --      1.7785                 0.2011                54.7437

                    118                    119                    120
                      A                      A                      A
 Frequencies --   3063.8316              3080.7636              3084.6902
 Red. masses --      1.1040                 1.1009                 1.1002
 Frc consts  --      6.1058                 6.1561                 6.1678
 IR Inten    --    101.6820                32.3207                 5.9655

                    121                    122                    123
                      A                      A                      A
 Frequencies --   3090.8085              3093.8073              3095.9186
 Red. masses --      1.0998                 1.1019                 1.1014
 Frc consts  --      6.1902                 6.2143                 6.2195
 IR Inten    --     66.6466                53.9029                45.5253

                    124                    125                    126
                      A                      A                      A
 Frequencies --   3098.8278              3098.9655              3102.8735
 Red. masses --      1.0997                 1.0937                 1.0897
 Frc consts  --      6.2219                 6.1885                 6.1817
 IR Inten    --     26.8862                17.3261                 8.9749

                    127                    128                    129
                      A                      A                      A
 Frequencies --   3106.1478              3106.6728              3125.3953
 Red. masses --      1.0995                 1.0874                 1.0891
 Frc consts  --      6.2502                 6.1837                 6.2679
 IR Inten    --     38.3351                29.5123                58.8972

 - Thermochemistry -
 -------------------
 Temperature   298.150 Kelvin.  Pressure   1.00000 Atm.
 Atom     1 has atomic number  6 and mass  12.00000

 Molecular mass:   210.23475 amu.
 Principal axes and moments of inertia in atomic units:
                           1         2         3
     Eigenvalues --  1788.38127********************
           X            1.00000   0.00145   0.00037
           Y           -0.00145   1.00000   0.00134
           Z           -0.00037  -0.00134   1.00000
 This molecule is an asymmetric top.
 Rotational symmetry number  1.
 Warning -- assumption of classical behavior for rotation
           may cause significant error
 Rotational temperatures (Kelvin)      0.04843     0.00708     0.00633
 Rotational constants (GHZ):           1.00915     0.14753     0.13187
 Zero-point vibrational energy    1103006.7 (Joules/Mol)
                                  263.62494 (Kcal/Mol)
 Warning -- explicit consideration of  28 degrees of freedom as
           vibrations may cause significant error
 Vibrational temperatures:     30.61    33.76    61.28    74.59   107.86
          (Kelvin)            117.16   127.48   162.45   184.65   200.49
                              210.57   255.94   298.80   323.81   333.17
                              352.83   357.58   372.65   408.43   428.20
                              475.40   538.96   570.29   603.42   648.70
                              665.65   752.27   800.84  1053.12  1056.81
                             1089.67  1116.26  1149.06  1183.02  1224.52
                             1252.73  1288.09  1322.83  1333.40  1348.19
                             1368.77  1388.51  1407.51  1434.41  1457.38
                             1480.17  1500.60  1508.57  1532.68  1535.65
                             1556.46  1566.16  1576.17  1607.21  1641.58
                             1645.07  1655.69  1716.41  1719.57  1728.72
                             1756.97  1781.25  1791.37  1803.45  1832.77
                             1848.49  1887.20  1892.26  1909.03  1913.54
                             1914.81  1935.47  1945.16  1967.58  1975.03
                             1999.27  2004.06  2011.11  2014.87  2017.07
                             2033.20  2038.82  2045.84  2124.29  2125.96
                             2129.25  2132.11  2137.20  2142.08  2144.72
                             2151.88  2152.87  2156.69  2157.89  2165.49
                             2168.32  2170.92  2175.96  2177.20  4300.63
                             4310.71  4315.13  4319.93  4320.88  4324.00
                             4335.50  4337.26  4346.35  4350.85  4353.09
                             4354.67  4355.81  4356.39  4358.30  4377.78
                             4378.07  4404.21  4408.17  4432.53  4438.18
                             4446.98  4451.30  4454.34  4458.52  4458.72
                             4464.34  4469.05  4469.81  4496.75

 Zero-point correction=                           0.420113 (Hartree/Particle)
 Thermal correction to Energy=                    0.439889
 Thermal correction to Enthalpy=                  0.440833
 Thermal correction to Gibbs Free Energy=         0.369754
 Sum of electronic and zero-point Energies=           -589.294743
 Sum of electronic and thermal Energies=              -589.274967
 Sum of electronic and thermal Enthalpies=            -589.274023
 Sum of electronic and thermal Free Energies=         -589.345102

                     E (Thermal)             CV                S
                      KCal/Mol        Cal/Mol-Kelvin    Cal/Mol-Kelvin
 Total                  276.034             72.087            149.597
 Electronic               0.000              0.000              0.000
 Translational            0.889              2.981             41.933
 Rotational               0.889              2.981             34.059
 Vibrational            274.257             66.125             73.606
 Vibration     1          0.593              1.985              6.512
 Vibration     2          0.593              1.985              6.317
 Vibration     3          0.595              1.980              5.135
 Vibration     4          0.596              1.977              4.746
 Vibration     5          0.599              1.966              4.019
 Vibration     6          0.600              1.962              3.856
 Vibration     7          0.601              1.957              3.691
 Vibration     8          0.607              1.939              3.218
 Vibration     9          0.611              1.925              2.971
 Vibration    10          0.615              1.914              2.813
 Vibration    11          0.617              1.907              2.719
 Vibration    12          0.628              1.870              2.350
 Vibration    13          0.641              1.829              2.064
 Vibration    14          0.650              1.803              1.918
 Vibration    15          0.653              1.793              1.867
 Vibration    16          0.660              1.771              1.765
 Vibration    17          0.662              1.765              1.741
 Vibration    18          0.668              1.748              1.668
 Vibration    19          0.682              1.704              1.510
 Vibration    20          0.691              1.678              1.430
 Vibration    21          0.713              1.615              1.258
 Vibration    22          0.746              1.524              1.061
 Vibration    23          0.763              1.478              0.976
 Vibration    24          0.782              1.428              0.894
 Vibration    25          0.810              1.359              0.793
 Vibration    26          0.820              1.333              0.758
 Vibration    27          0.878              1.199              0.603
 Vibration    28          0.912              1.125              0.531

                           ! Non-Optimized Parameters !
 Normal termination of Gaussian 16 at Wed May 24 02:53:46 2023.
