 Gaussian 16, Revision A.03,
 Gaussian 16:  ES64L-G16RevA.03 25-Dec-2016

 -----------------------------
 # opt freq b3lyp/6-31g(2df,p)
 -----------------------------

 -------------------
 Title Card Required
 -------------------
 Symbolic Z-matrix:
 Charge =  0 Multiplicity = 1

 SCF Done:  E(RB3LYP) =  -315.697775027     A.U. after   12 cycles
 SCF Done:  E(RB3LYP) =  -315.721954171     A.U. after   10 cycles
 SCF Done:  E(RB3LYP) =  -315.731106593     A.U. after   10 cycles
 SCF Done:  E(RB3LYP) =  -315.733791044     A.U. after   10 cycles
 SCF Done:  E(RB3LYP) =  -315.734538298     A.U. after    9 cycles
 SCF Done:  E(RB3LYP) =  -315.734656299     A.U. after    9 cycles
 SCF Done:  E(RB3LYP) =  -315.734680673     A.U. after    8 cycles
 SCF Done:  E(RB3LYP) =  -315.734690748     A.U. after    8 cycles
 SCF Done:  E(RB3LYP) =  -315.734693735     A.U. after    7 cycles
 SCF Done:  E(RB3LYP) =  -315.734694220     A.U. after    6 cycles
 SCF Done:  E(RB3LYP) =  -315.734694474     A.U. after    6 cycles
 SCF Done:  E(RB3LYP) =  -315.734694647     A.U. after    6 cycles
 SCF Done:  E(RB3LYP) =  -315.734694659     A.U. after    5 cycles
 Optimization completed.
    -- Stationary point found.
 Normal termination of Gaussian 16 at Sun May 28 01:56:53 2023.

 ----------------------------------------------------------------------
 #N Geom=AllCheck Guess=TCheck SCRF=Check GenChk RB3LYP/6-31G(2df,p) Fr
 eq
 ----------------------------------------------------------------------

 Structure from the checkpoint file:  "CCCCqCCrCC.chk"
 -------------------
 Title Card Required
 -------------------
 Charge =  0 Multiplicity = 1

                         Standard orientation:
 ---------------------------------------------------------------------
 Center     Atomic      Atomic             Coordinates (Angstroms)
 Number     Number       Type             X           Y           Z
 ---------------------------------------------------------------------
      1          6           0       -3.683090   -0.691784   -0.107262
      2          6           0       -2.479732    0.139579    0.346560
      3          6           0       -1.387608    0.241760   -0.725490
      4          6           0       -0.200109    1.143390   -0.349534
      5          6           0        0.630183    0.690992    0.865392
      6          6           0        1.300744   -0.688616    0.739898
      7          6           0        2.309206   -0.841084   -0.411191
      8          6           0        3.529094    0.080834   -0.307694
      9          1           0       -4.448877   -0.749616    0.672781
     10          1           0       -3.384683   -1.716441   -0.356395
     11          1           0       -4.148907   -0.259541   -1.000079
     12          1           0       -2.065188   -0.297959    1.262979
     13          1           0       -2.813494    1.150355    0.618081
     14          1           0       -1.837813    0.630740   -1.648655
     15          1           0       -1.030659   -0.766668   -0.973831
     16          1           0       -0.577380    2.155341   -0.149915
     17          1           0        0.456725    1.239992   -1.222975
     18          1           0        1.396698    1.451169    1.059684
     19          1           0       -0.005894    0.684609    1.758870
     20          1           0        1.813567   -0.908351    1.686005
     21          1           0        0.528596   -1.460993    0.635092
     22          1           0        1.807110   -0.674818   -1.372443
     23          1           0        2.651528   -1.883202   -0.431896
     24          1           0        3.250080    1.137475   -0.370419
     25          1           0        4.242169   -0.117234   -1.114263
     26          1           0        4.054296   -0.065282    0.643311
 ---------------------------------------------------------------------

 SCF Done:  E(RB3LYP) =  -315.734694659     A.U. after    1 cycles

 The electronic state is 1-A.
 Alpha  occ. eigenvalues --  -10.17412 -10.17394 -10.17196 -10.17193 -10.17162
 Alpha  occ. eigenvalues --  -10.17116 -10.16870 -10.16839  -0.80508  -0.77758
 Alpha  occ. eigenvalues --   -0.73798  -0.69251  -0.64709  -0.60718  -0.57363
 Alpha  occ. eigenvalues --   -0.53396  -0.46962  -0.46068  -0.44122  -0.41726
 Alpha  occ. eigenvalues --   -0.41406  -0.40906  -0.38717  -0.37117  -0.36677
 Alpha  occ. eigenvalues --   -0.35687  -0.33996  -0.33143  -0.32498  -0.32025
 Alpha  occ. eigenvalues --   -0.30741  -0.30059  -0.29783
 Alpha virt. eigenvalues --    0.07491   0.10140   0.11456   0.11645   0.13279
 Alpha virt. eigenvalues --    0.13867   0.15042   0.15907   0.16826   0.17359
 Alpha virt. eigenvalues --    0.17858   0.18419   0.19259   0.20095   0.20566

 Mulliken charges:
               1
     1  C   -0.377595
     2  C   -0.151344
     3  C   -0.159490
     4  C   -0.195971
     5  C   -0.182202
     6  C   -0.175947
     7  C   -0.163412
     8  C   -0.367773
     9  H    0.108939
    10  H    0.112231
    11  H    0.112072
    12  H    0.097842
    13  H    0.091626
    14  H    0.087379
    15  H    0.094005
    16  H    0.087636
    17  H    0.091939
    18  H    0.091587
    19  H    0.092562
    20  H    0.087271
    21  H    0.091886
    22  H    0.097277
    23  H    0.090825
    24  H    0.117527
    25  H    0.109745
    26  H    0.111386
 Sum of Mulliken charges =   0.00000

 Dipole moment (field-independent basis, Debye):
    X=              0.0103    Y=             -0.0012    Z=              0.0115  Tot=              0.0155
 Quadrupole moment (field-independent basis, Debye-Ang):
   XX=            -55.3412   YY=            -54.4916   ZZ=            -54.4885
   XY=             -0.5627   XZ=             -0.0994   YZ=             -0.1750

  Exact polarizability: 104.482   0.562  81.428  -0.465  -0.057  80.160
 Approx polarizability: 121.649  -0.776 119.444   0.026  -0.156 119.341

                      1                      2                      3
                      A                      A                      A
 Frequencies --     36.0718                49.6608                80.3061
 Red. masses --      3.2025                 2.5282                 1.6843
 Frc consts  --      0.0025                 0.0037                 0.0064
 IR Inten    --      0.0011                 0.0034                 0.0059

                      4                      5                      6
                      A                      A                      A
 Frequencies --    109.9125               174.4639               211.9608
 Red. masses --      2.3515                 1.9219                 1.6022
 Frc consts  --      0.0167                 0.0345                 0.0424
 IR Inten    --      0.0189                 0.0073                 0.0130

                      7                      8                      9
                      A                      A                      A
 Frequencies --    249.2707               256.9517               295.4315
 Red. masses --      1.1900                 1.6756                 1.7215
 Frc consts  --      0.0436                 0.0652                 0.0885
 IR Inten    --      0.0092                 0.0287                 0.0624

                     10                     11                     12
                      A                      A                      A
 Frequencies --    332.4278               389.4670               451.7525
 Red. masses --      2.2099                 1.8573                 1.9499
 Frc consts  --      0.1439                 0.1660                 0.2345
 IR Inten    --      0.1112                 0.1442                 0.3460

                     13                     14                     15
                      A                      A                      A
 Frequencies --    522.3650               706.6465               733.4042
 Red. masses --      2.4136                 1.2431                 1.3338
 Frc consts  --      0.3880                 0.3657                 0.4227
 IR Inten    --      0.0264                10.6419                 0.3431

                     16                     17                     18
                      A                      A                      A
 Frequencies --    763.0792               812.5402               833.8357
 Red. masses --      1.3738                 1.8839                 1.7342
 Frc consts  --      0.4713                 0.7328                 0.7104
 IR Inten    --      2.1326                 0.4967                 0.2884

                     19                     20                     21
                      A                      A                      A
 Frequencies --    869.5965               906.5290               923.9809
 Red. masses --      1.5866                 1.4631                 1.7031
 Frc consts  --      0.7069                 0.7084                 0.8567
 IR Inten    --      1.7375                 1.5239                 0.6183

                     22                     23                     24
                      A                      A                      A
 Frequencies --    974.8377               988.3568              1030.2215
 Red. masses --      1.5351                 1.5455                 2.4302
 Frc consts  --      0.8595                 0.8895                 1.5197
 IR Inten    --      0.2184                 1.4825                 0.0835

                     25                     26                     27
                      A                      A                      A
 Frequencies --   1058.1924              1064.8148              1072.2670
 Red. masses --      1.7518                 1.4592                 1.4606
 Frc consts  --      1.1558                 0.9748                 0.9895
 IR Inten    --      0.1442                 0.2960                 0.2991

                     28                     29                     30
                      A                      A                      A
 Frequencies --   1109.6660              1152.4776              1167.9925
 Red. masses --      2.1754                 2.1779                 2.0169
 Frc consts  --      1.5783                 1.7043                 1.6211
 IR Inten    --      0.1022                 1.2166                 0.4379

                     31                     32                     33
                      A                      A                      A
 Frequencies --   1214.6906              1239.6055              1274.1431
 Red. masses --      1.3248                 1.4574                 1.2967
 Frc consts  --      1.1517                 1.3195                 1.2403
 IR Inten    --      0.2336                 0.5656                 0.3880

                     34                     35                     36
                      A                      A                      A
 Frequencies --   1299.2598              1325.0252              1326.8509
 Red. masses --      1.2326                 1.1714                 1.2188
 Frc consts  --      1.2259                 1.2117                 1.2642
 IR Inten    --      1.5040                 0.7657                 4.0150

                     37                     38                     39
                      A                      A                      A
 Frequencies --   1342.5886              1367.9823              1373.1825
 Red. masses --      1.1214                 1.3939                 1.4174
 Frc consts  --      1.1909                 1.5369                 1.5748
 IR Inten    --      2.6685                 5.3823                 8.6877

                     40                     41                     42
                      A                      A                      A
 Frequencies --   1392.7875              1399.4459              1403.8074
 Red. masses --      1.4452                 1.3782                 1.4510
 Frc consts  --      1.6518                 1.5903                 1.6847
 IR Inten    --      1.3171                 2.9078                 0.5537

                     43                     44                     45
                      A                      A                      A
 Frequencies --   1413.3324              1414.5678              1473.9343
 Red. masses --      1.2437                 1.2719                 1.0748
 Frc consts  --      1.4638                 1.4995                 1.3757
 IR Inten    --      1.2537                 3.0080                 0.2723

                     46                     47                     48
                      A                      A                      A
 Frequencies --   1483.1195              1488.1214              1490.8477
 Red. masses --      1.0827                 1.0645                 1.0697
 Frc consts  --      1.4032                 1.3889                 1.4008
 IR Inten    --      2.9258                 3.0572                 3.3981

                     49                     50                     51
                      A                      A                      A
 Frequencies --   1496.4450              1499.2882              1500.1861
 Red. masses --      1.0605                 1.0660                 1.0494
 Frc consts  --      1.3992                 1.4119                 1.3914
 IR Inten    --      3.5933                 4.4395                 4.3721

                     52                     53                     54
                      A                      A                      A
 Frequencies --   1504.7131              1511.4861              1511.7371
 Red. masses --      1.0601                 1.0781                 1.0792
 Frc consts  --      1.4141                 1.4511                 1.4531
 IR Inten    --      3.7789                 2.0000                 3.4036

                     55                     56                     57
                      A                      A                      A
 Frequencies --   3007.2764              3010.5253              3012.1847
 Red. masses --      1.0591                 1.0632                 1.0645
 Frc consts  --      5.6433                 5.6776                 5.6907
 IR Inten    --      4.3548                35.5281                 2.9969

                     58                     59                     60
                      A                      A                      A
 Frequencies --   3016.6467              3020.2489              3027.0093
 Red. masses --      1.0644                 1.0622                 1.0380
 Frc consts  --      5.7072                 5.7088                 5.6035
 IR Inten    --     35.3580                17.6851                31.9035

                     61                     62                     63
                      A                      A                      A
 Frequencies --   3028.4035              3031.4185              3035.8284
 Red. masses --      1.0498                 1.0524                 1.0885
 Frc consts  --      5.6726                 5.6982                 5.9106
 IR Inten    --     17.5938                12.9428                 6.6959

                     64                     65                     66
                      A                      A                      A
 Frequencies --   3042.2436              3048.2057              3056.2642
 Red. masses --      1.0993                 1.0955                 1.0999
 Frc consts  --      5.9947                 5.9970                 6.0530
 IR Inten    --      2.4072                43.1625                90.4466

                     67                     68                     69
                      A                      A                      A
 Frequencies --   3060.1407              3064.2292              3093.6418
 Red. masses --      1.1008                 1.1002                 1.1021
 Frc consts  --      6.0737                 6.0863                 6.2146
 IR Inten    --     48.7060                71.2445                58.2467

                     70                     71                     72
                      A                      A                      A
 Frequencies --   3095.6483              3098.6880              3102.5001
 Red. masses --      1.1007                 1.1009                 1.1010
 Frc consts  --      6.2148                 6.2280                 6.2438
 IR Inten    --     44.2121                41.4153                44.4805

 - Thermochemistry -
 -------------------
 Temperature   298.150 Kelvin.  Pressure   1.00000 Atm.
 Atom     1 has atomic number  6 and mass  12.00000

 Molecular mass:   114.14085 amu.
 Principal axes and moments of inertia in atomic units:
                           1         2         3
     Eigenvalues --   406.481972408.364762469.87112
           X            0.99999   0.00511  -0.00080
           Y           -0.00510   0.99988   0.01480
           Z            0.00087  -0.01479   0.99989
 This molecule is an asymmetric top.
 Rotational symmetry number  1.
 Rotational temperatures (Kelvin)      0.21308     0.03596     0.03507
 Rotational constants (GHZ):           4.43990     0.74936     0.73070
 Zero-point vibrational energy     645545.2 (Joules/Mol)
                                  154.28901 (Kcal/Mol)
 Warning -- explicit consideration of  13 degrees of freedom as
           vibrations may cause significant error
 Vibrational temperatures:     51.90    71.45   115.54   158.14   251.01
          (Kelvin)            304.96   358.65   369.70   425.06   478.29
                              560.36   649.97   751.57  1016.71  1055.21
                             1097.90  1169.06  1199.70  1251.16  1304.29
                             1329.40  1402.57  1422.03  1482.26  1522.50
                             1532.03  1542.75  1596.56  1658.16  1680.48
                             1747.67  1783.52  1833.21  1869.35  1906.42
                             1909.04  1931.69  1968.22  1975.70  2003.91
                             2013.49  2019.77  2033.47  2035.25  2120.66
                             2133.88  2141.07  2145.00  2153.05  2157.14
                             2158.43  2164.95  2174.69  2175.05  4326.80
                             4331.47  4333.86  4340.28  4345.46  4355.19
                             4357.20  4361.54  4367.88  4377.11  4385.69
                             4397.28  4402.86  4408.74  4451.06  4453.95
                             4458.32  4463.81

 Zero-point correction=                           0.245875 (Hartree/Particle)
 Thermal correction to Energy=                    0.256656
 Thermal correction to Enthalpy=                  0.257600
 Thermal correction to Gibbs Free Energy=         0.208915
 Sum of electronic and zero-point Energies=           -315.488819
 Sum of electronic and thermal Energies=              -315.478039
 Sum of electronic and thermal Enthalpies=            -315.477094
 Sum of electronic and thermal Free Energies=         -315.525780

                     E (Thermal)             CV                S
                      KCal/Mol        Cal/Mol-Kelvin    Cal/Mol-Kelvin
 Total                  161.054             38.821            102.467
 Electronic               0.000              0.000              0.000
 Translational            0.889              2.981             40.112
 Rotational               0.889              2.981             29.271
 Vibrational            159.277             32.859             33.084
 Vibration     1          0.594              1.982              5.464
 Vibration     2          0.595              1.978              4.831
 Vibration     3          0.600              1.963              3.883
 Vibration     4          0.606              1.941              3.270
 Vibration     5          0.627              1.874              2.387
 Vibration     6          0.643              1.823              2.027
 Vibration     7          0.662              1.764              1.736
 Vibration     8          0.667              1.751              1.682
 Vibration     9          0.690              1.682              1.443
 Vibration    10          0.714              1.611              1.248
 Vibration    11          0.757              1.493              1.002
 Vibration    12          0.810              1.357              0.790
 Vibration    13          0.877              1.200              0.605

 Optimization completed.
    -- Stationary point found.
 Normal termination of Gaussian 16 at Sun May 28 02:28:20 2023.
