 Gaussian 16, Revision A.03,
 Gaussian 16:  ES64L-G16RevA.03 25-Dec-2016

 -----------------------------
 # opt freq b3lyp/6-31g(2df,p)
 -----------------------------

 -------------------
 Title Card Required
 -------------------
 Symbolic Z-matrix:
 Charge =  0 Multiplicity = 1

 SCF Done:  E(RB3LYP) =  -586.269631542     A.U. after   12 cycles
 SCF Done:  E(RB3LYP) =  -586.287011108     A.U. after   11 cycles
 SCF Done:  E(RB3LYP) =  -586.292808372     A.U. after   10 cycles
 SCF Done:  E(RB3LYP) =  -586.294961795     A.U. after   10 cycles
 SCF Done:  E(RB3LYP) =  -586.295865851     A.U. after    9 cycles
 SCF Done:  E(RB3LYP) =  -586.296272995     A.U. after    9 cycles
 SCF Done:  E(RB3LYP) =  -586.296337547     A.U. after    8 cycles
 SCF Done:  E(RB3LYP) =  -586.296350229     A.U. after    8 cycles
 SCF Done:  E(RB3LYP) =  -586.296356170     A.U. after    7 cycles
 SCF Done:  E(RB3LYP) =  -586.296356944     A.U. after    7 cycles
 SCF Done:  E(RB3LYP) =  -586.296357092     A.U. after    6 cycles
 Optimization completed.
    -- Stationary point found.
 Normal termination of Gaussian 16 at Tue May 23 04:55:53 2023.

 ----------------------------------------------------------------------
 #N Geom=AllCheck Guess=TCheck SCRF=Check GenChk RB3LYP/6-31G(2df,p) Fr
 eq
 ----------------------------------------------------------------------

 Structure from the checkpoint file:  "CCCCC1CCCCCCqCrOC1.chk"
 -------------------
 Title Card Required
 -------------------
 Charge =  0 Multiplicity = 1

                         Standard orientation:
 ---------------------------------------------------------------------
 Center     Atomic      Atomic             Coordinates (Angstroms)
 Number     Number       Type             X           Y           Z
 ---------------------------------------------------------------------
      1          6           0        5.180484    0.296219    0.756774
      2          6           0        3.702785    0.697171    0.757473
      3          6           0        2.855625   -0.115162   -0.228266
      4          6           0        1.379597    0.301424   -0.245281
      5          6           0        0.512526   -0.534144   -1.214849
      6          6           0        0.180194   -1.974634   -0.701366
      7          6           0       -1.193677   -2.296506   -0.078928
      8          6           0       -1.522126   -1.621001    1.274812
      9          6           0       -2.835368   -0.816126    1.299786
     10          6           0       -2.962315    0.274722    0.220718
     11          6           0       -1.782332    1.275315    0.187678
     12          6           0       -2.214445    2.690873    0.559316
     13          8           0       -1.155470    1.407077   -1.089936
     14          6           0       -0.687441    0.274071   -1.802406
     15          1           0        5.758086    0.891900    1.470721
     16          1           0        5.628489    0.437311   -0.233276
     17          1           0        5.304865   -0.758705    1.026287
     18          1           0        3.611821    1.764818    0.517311
     19          1           0        3.291965    0.580068    1.769245
     20          1           0        2.945897   -1.182103    0.018062
     21          1           0        3.271596   -0.005067   -1.240015
     22          1           0        1.308913    1.358022   -0.527476
     23          1           0        0.984010    0.237674    0.775302
     24          1           0        1.154606   -0.707243   -2.088929
     25          1           0        0.959229   -2.269279    0.013479
     26          1           0        0.298159   -2.660079   -1.549716
     27          1           0       -1.228316   -3.384644    0.047812
     28          1           0       -1.983503   -2.078703   -0.805847
     29          1           0       -0.693037   -0.972692    1.574263
     30          1           0       -1.581035   -2.383193    2.059931
     31          1           0       -2.939079   -0.356231    2.291656
     32          1           0       -3.683869   -1.505017    1.198520
     33          1           0       -3.897943    0.821623    0.382610
     34          1           0       -3.068946   -0.186519   -0.764817
     35          1           0       -1.027887    0.954321    0.916676
     36          1           0       -2.957728    3.059934   -0.154656
     37          1           0       -1.357911    3.370269    0.546033
     38          1           0       -2.656504    2.704177    1.560678
     39          1           0       -0.367055    0.710058   -2.753770
     40          1           0       -1.512102   -0.410648   -2.043364
 ---------------------------------------------------------------------

 SCF Done:  E(RB3LYP) =  -586.296357092     A.U. after    1 cycles

 The electronic state is 1-A.
 Alpha  occ. eigenvalues --  -19.12635 -10.22216 -10.21724 -10.18082 -10.17806
 Alpha  occ. eigenvalues --  -10.17576 -10.17550 -10.17492 -10.17433 -10.17263
 Alpha  occ. eigenvalues --  -10.17202 -10.16986 -10.16878 -10.16637  -1.01425
 Alpha  occ. eigenvalues --   -0.81084  -0.80147  -0.78006  -0.74533  -0.72704
 Alpha  occ. eigenvalues --   -0.69955  -0.66690  -0.63925  -0.61442  -0.59329
 Alpha  occ. eigenvalues --   -0.57261  -0.54951  -0.53752  -0.48897  -0.47868
 Alpha  occ. eigenvalues --   -0.46252  -0.44470  -0.44215  -0.43593  -0.43022
 Alpha  occ. eigenvalues --   -0.41668  -0.41263  -0.40270  -0.39139  -0.38857
 Alpha  occ. eigenvalues --   -0.37303  -0.36587  -0.35882  -0.35254  -0.35034
 Alpha  occ. eigenvalues --   -0.34343  -0.33430  -0.33192  -0.32455  -0.31890
 Alpha  occ. eigenvalues --   -0.31384  -0.30476  -0.29945  -0.29319  -0.27734
 Alpha  occ. eigenvalues --   -0.23962
 Alpha virt. eigenvalues --    0.07463   0.08863   0.09396   0.09561   0.10682
 Alpha virt. eigenvalues --    0.11290   0.12686   0.13225   0.13874   0.14432
 Alpha virt. eigenvalues --    0.15051   0.15401   0.15866   0.17001   0.17170

 Mulliken charges:
               1
     1  C   -0.379440
     2  C   -0.164168
     3  C   -0.172497
     4  C   -0.192525
     5  C   -0.004573
     6  C   -0.222726
     7  C   -0.186830
     8  C   -0.187705
     9  C   -0.199242
    10  C   -0.227289
    11  C    0.176484
    12  C   -0.398207
    13  O   -0.268200
    14  C   -0.105029
    15  H    0.109613
    16  H    0.112594
    17  H    0.111849
    18  H    0.094856
    19  H    0.092211
    20  H    0.092880
    21  H    0.089775
    22  H    0.105687
    23  H    0.096231
    24  H    0.075274
    25  H    0.096114
    26  H    0.091216
    27  H    0.092869
    28  H    0.094130
    29  H    0.102782
    30  H    0.091840
    31  H    0.091926
    32  H    0.092731
    33  H    0.094073
    34  H    0.106517
    35  H    0.060269
    36  H    0.119665
    37  H    0.118000
    38  H    0.108342
    39  H    0.103389
    40  H    0.087112
 Sum of Mulliken charges =  -0.00000

 Dipole moment (field-independent basis, Debye):
    X=             -0.1158    Y=             -1.0112    Z=              0.4415  Tot=              1.1095
 Quadrupole moment (field-independent basis, Debye-Ang):
   XX=            -90.7173   YY=            -92.5544   ZZ=            -89.9554
   XY=              1.2916   XZ=             -1.4788   YZ=              1.8742

  Exact polarizability: 160.369  -0.800 140.744  -4.492   1.366 129.633
 Approx polarizability: 198.896  -0.009 198.468  -3.226   0.574 199.217

                      1                      2                      3
                      A                      A                      A
 Frequencies --     42.5062                56.7962                63.3743
 Red. masses --      3.1450                 2.0806                 2.2895
 Frc consts  --      0.0033                 0.0040                 0.0054
 IR Inten    --      0.0154                 0.0461                 0.0457

                      4                      5                      6
                      A                      A                      A
 Frequencies --     78.6569               122.0119               137.0068
 Red. masses --      2.8429                 2.8368                 2.1952
 Frc consts  --      0.0104                 0.0249                 0.0243
 IR Inten    --      0.6433                 1.5920                 0.1061

                      7                      8                      9
                      A                      A                      A
 Frequencies --    152.5549               180.4268               199.7270
 Red. masses --      2.5728                 2.8397                 2.5733
 Frc consts  --      0.0353                 0.0545                 0.0605
 IR Inten    --      0.2303                 1.2189                 0.6897

                     10                     11                     12
                      A                      A                      A
 Frequencies --    233.6025               244.5870               255.4949
 Red. masses --      2.2090                 1.1408                 1.9033
 Frc consts  --      0.0710                 0.0402                 0.0732
 IR Inten    --      1.0198                 0.0357                 0.2881

                     13                     14                     15
                      A                      A                      A
 Frequencies --    257.5986               285.0444               325.5424
 Red. masses --      1.3764                 2.2548                 2.3022
 Frc consts  --      0.0538                 0.1079                 0.1438
 IR Inten    --      0.0528                 0.8990                 1.6038

                     16                     17                     18
                      A                      A                      A
 Frequencies --    340.4756               357.5068               402.4505
 Red. masses --      2.0219                 2.6590                 2.2516
 Frc consts  --      0.1381                 0.2002                 0.2149
 IR Inten    --      0.3812                 0.5202                 0.2139

                     19                     20                     21
                      A                      A                      A
 Frequencies --    410.5037               436.0854               445.5752
 Red. masses --      2.2907                 2.4075                 2.6800
 Frc consts  --      0.2274                 0.2697                 0.3135
 IR Inten    --      0.5697                 4.1753                 2.3270

                     22                     23                     24
                      A                      A                      A
 Frequencies --    509.8757               527.0923               661.4949
 Red. masses --      2.9053                 3.0147                 3.1618
 Frc consts  --      0.4450                 0.4935                 0.8152
 IR Inten    --      1.3046                 0.6316                 5.2770

                     25                     26                     27
                      A                      A                      A
 Frequencies --    702.4417               729.1027               735.5513
 Red. masses --      1.8093                 1.7124                 1.1128
 Frc consts  --      0.5260                 0.5363                 0.3547
 IR Inten    --      2.7986                 2.6301                 3.4581

                     28                     29                     30
                      A                      A                      A
 Frequencies --    787.6657               792.8612               819.7176
 Red. masses --      1.3420                 2.1418                 2.2059
 Frc consts  --      0.4906                 0.7933                 0.8733
 IR Inten    --      0.9549                 4.5756                 1.2669

                     31                     32                     33
                      A                      A                      A
 Frequencies --    829.2309               892.6928               897.6063
 Red. masses --      1.7126                 1.9452                 2.0221
 Frc consts  --      0.6938                 0.9133                 0.9599
 IR Inten    --      1.4951                 2.8477                 0.3176

                     34                     35                     36
                      A                      A                      A
 Frequencies --    918.5847               934.9760               945.2899
 Red. masses --      1.9194                 1.3977                 1.9398
 Frc consts  --      0.9542                 0.7199                 1.0212
 IR Inten    --      1.9277                 3.1600                 6.5784

                     37                     38                     39
                      A                      A                      A
 Frequencies --    980.3969               998.6298              1015.8115
 Red. masses --      1.8953                 2.1033                 2.3682
 Frc consts  --      1.0733                 1.2359                 1.4398
 IR Inten    --      0.1936                 2.5146                 4.7135

                     40                     41                     42
                      A                      A                      A
 Frequencies --   1019.0284              1030.9707              1057.9637
 Red. masses --      1.9118                 2.4979                 1.7817
 Frc consts  --      1.1697                 1.5643                 1.1750
 IR Inten    --      1.6169                 0.6021                 3.9795

                     43                     44                     45
                      A                      A                      A
 Frequencies --   1065.7254              1079.7439              1094.2053
 Red. masses --      2.3487                 2.2894                 2.3944
 Frc consts  --      1.5717                 1.5726                 1.6890
 IR Inten    --      3.0519                 5.9641                 1.5215

                     46                     47                     48
                      A                      A                      A
 Frequencies --   1106.4110              1121.6588              1132.8088
 Red. masses --      2.4099                 1.8316                 2.1082
 Frc consts  --      1.7381                 1.3577                 1.5939
 IR Inten    --     30.0936                12.4708                29.7434

                     49                     50                     51
                      A                      A                      A
 Frequencies --   1143.6755              1160.0992              1176.6848
 Red. masses --      2.6521                 2.3035                 2.2000
 Frc consts  --      2.0439                 1.8265                 1.7947
 IR Inten    --     22.4988                42.0661                12.5014

                     52                     53                     54
                      A                      A                      A
 Frequencies --   1207.5420              1215.0458              1240.4043
 Red. masses --      1.2950                 1.3576                 1.4012
 Frc consts  --      1.1126                 1.1808                 1.2702
 IR Inten    --      8.2755                 4.7087                 2.9650

                     55                     56                     57
                      A                      A                      A
 Frequencies --   1252.2578              1266.2798              1297.7553
 Red. masses --      1.2798                 1.2328                 1.2179
 Frc consts  --      1.1824                 1.1647                 1.2085
 IR Inten    --      3.2231                 0.3261                 0.8653

                     58                     59                     60
                      A                      A                      A
 Frequencies --   1310.7664              1311.3642              1322.4445
 Red. masses --      1.1692                 1.1837                 1.1835
 Frc consts  --      1.1836                 1.1993                 1.2194
 IR Inten    --      8.7606                 3.0986                 0.4701

                     61                     62                     63
                      A                      A                      A
 Frequencies --   1325.9359              1333.6545              1343.8798
 Red. masses --      1.2635                 1.0822                 1.2478
 Frc consts  --      1.3088                 1.1341                 1.3277
 IR Inten    --      2.2327                 0.6213                 9.4829

                     64                     65                     66
                      A                      A                      A
 Frequencies --   1358.2220              1371.9929              1376.2222
 Red. masses --      1.2782                 1.3012                 1.3224
 Frc consts  --      1.3893                 1.4431                 1.4756
 IR Inten    --      3.4780                 1.8743                 8.0061

                     67                     68                     69
                      A                      A                      A
 Frequencies --   1383.1425              1385.3508              1395.2399
 Red. masses --      1.3361                 1.2768                 1.4510
 Frc consts  --      1.5060                 1.4438                 1.6642
 IR Inten    --      2.3909                 3.6662                 0.3157

                     70                     71                     72
                      A                      A                      A
 Frequencies --   1397.6866              1400.5074              1404.2941
 Red. masses --      1.3630                 1.3864                 1.4137
 Frc consts  --      1.5688                 1.6022                 1.6426
 IR Inten    --      3.8506                 3.0909                 1.6907

                     73                     74                     75
                      A                      A                      A
 Frequencies --   1409.3288              1412.5817              1424.6302
 Red. masses --      1.2718                 1.2366                 1.2509
 Frc consts  --      1.4884                 1.4538                 1.4959
 IR Inten    --      6.1875                 0.4068                12.5101

                     76                     77                     78
                      A                      A                      A
 Frequencies --   1478.5922              1479.5271              1484.7660
 Red. masses --      1.0714                 1.0614                 1.0636
 Frc consts  --      1.3800                 1.3690                 1.3815
 IR Inten    --      0.7043                 5.2148                 0.4967

                     79                     80                     81
                      A                      A                      A
 Frequencies --   1486.2383              1489.2147              1490.1634
 Red. masses --      1.0667                 1.0789                 1.0807
 Frc consts  --      1.3883                 1.4098                 1.4139
 IR Inten    --      0.3999                 1.2181                 5.9694

                     82                     83                     84
                      A                      A                      A
 Frequencies --   1492.0261              1499.7894              1499.8809
 Red. masses --      1.0880                 1.0614                 1.0536
 Frc consts  --      1.4270                 1.4066                 1.3965
 IR Inten    --      5.7267                 5.1553                 1.4214

                     85                     86                     87
                      A                      A                      A
 Frequencies --   1500.5023              1504.4105              1512.8904
 Red. masses --      1.0577                 1.0815                 1.0895
 Frc consts  --      1.4031                 1.4422                 1.4692
 IR Inten    --      1.5371                 2.7137                 3.1246

                     88                     89                     90
                      A                      A                      A
 Frequencies --   1520.2520              2989.7073              3000.3729
 Red. masses --      1.0786                 1.0796                 1.0585
 Frc consts  --      1.4687                 5.6854                 5.6145
 IR Inten    --      9.5390                 5.6350                 4.8801

                     91                     92                     93
                      A                      A                      A
 Frequencies --   3005.7776              3010.8693              3013.0918
 Red. masses --      1.0678                 1.0618                 1.0599
 Frc consts  --      5.6840                 5.6710                 5.6694
 IR Inten    --     47.6312                26.2032                20.4970

                     94                     95                     96
                      A                      A                      A
 Frequencies --   3017.1442              3018.9435              3025.8799
 Red. masses --      1.0711                 1.0739                 1.0946
 Frc consts  --      5.7448                 5.7667                 5.9046
 IR Inten    --      8.1673                35.8424                 0.9821

                     97                     98                     99
                      A                      A                      A
 Frequencies --   3027.5084              3031.9480              3033.4055
 Red. masses --      1.0369                 1.0678                 1.0636
 Frc consts  --      5.5996                 5.7835                 5.7662
 IR Inten    --     36.6432                17.5853                49.0428

                    100                    101                    102
                      A                      A                      A
 Frequencies --   3035.9580              3039.9246              3042.9359
 Red. masses --      1.0376                 1.0752                 1.0941
 Frc consts  --      5.6346                 5.8542                 5.9688
 IR Inten    --     17.2391                19.9058                41.2649

                    103                    104                    105
                      A                      A                      A
 Frequencies --   3047.5054              3048.1265              3050.6518
 Red. masses --      1.0748                 1.1005                 1.0867
 Frc consts  --      5.8811                 6.0244                 5.9585
 IR Inten    --     31.8211                17.0843                17.6838

                    106                    107                    108
                      A                      A                      A
 Frequencies --   3065.7277              3068.7049              3073.8861
 Red. masses --      1.0945                 1.0959                 1.1019
 Frc consts  --      6.0607                 6.0805                 6.1344
 IR Inten    --     47.5743                39.9478               103.8746

                    109                    110                    111
                      A                      A                      A
 Frequencies --   3082.0690              3090.1904              3093.6667
 Red. masses --      1.0969                 1.0932                 1.1020
 Frc consts  --      6.1389                 6.1507                 6.2139
 IR Inten    --     20.8944                44.3789                61.4906

                    112                    113                    114
                      A                      A                      A
 Frequencies --   3099.1345              3110.2591              3118.0786
 Red. masses --      1.1009                 1.1016                 1.1020
 Frc consts  --      6.2300                 6.2785                 6.3125
 IR Inten    --     38.4711                30.1915                27.1665

 - Thermochemistry -
 -------------------
 Temperature   298.150 Kelvin.  Pressure   1.00000 Atm.
 Atom     1 has atomic number  6 and mass  12.00000

 Molecular mass:   198.19837 amu.
 Principal axes and moments of inertia in atomic units:
                           1         2         3
     Eigenvalues --  2018.973254957.007245637.30962
           X            1.00000   0.00216  -0.00069
           Y           -0.00214   0.99957   0.02918
           Z            0.00075  -0.02917   0.99957
 This molecule is an asymmetric top.
 Rotational symmetry number  1.
 Warning -- assumption of classical behavior for rotation
           may cause significant error
 Rotational temperatures (Kelvin)      0.04290     0.01747     0.01536
 Rotational constants (GHZ):           0.89389     0.36408     0.32014
 Zero-point vibrational energy     979273.7 (Joules/Mol)
                                  234.05203 (Kcal/Mol)
 Warning -- explicit consideration of  23 degrees of freedom as
           vibrations may cause significant error
 Vibrational temperatures:     61.16    81.72    91.18   113.17   175.55
          (Kelvin)            197.12   219.49   259.59   287.36   336.10
                              351.91   367.60   370.63   410.12   468.38
                              489.87   514.37   579.04   590.62   627.43
                              641.08   733.60   758.37   951.74  1010.66
                             1049.02  1058.29  1133.28  1140.75  1179.39
                             1193.08  1284.39  1291.46  1321.64  1345.22
                             1360.06  1410.57  1436.81  1461.53  1466.15
                             1483.34  1522.17  1533.34  1553.51  1574.32
                             1591.88  1613.82  1629.86  1645.49  1669.12
                             1692.99  1737.38  1748.18  1784.67  1801.72
                             1821.89  1867.18  1885.90  1886.76  1902.70
                             1907.73  1918.83  1933.54  1954.18  1973.99
                             1980.08  1990.03  1993.21  2007.44  2010.96
                             2015.02  2020.47  2027.71  2032.39  2049.73
                             2127.36  2128.71  2136.25  2138.37  2142.65
                             2144.01  2146.69  2157.86  2157.99  2158.89
                             2164.51  2176.71  2187.30  4301.52  4316.87
                             4324.64  4331.97  4335.17  4341.00  4343.59
                             4353.57  4355.91  4362.30  4364.39  4368.07
                             4373.77  4378.11  4384.68  4385.57  4389.21
                             4410.90  4415.18  4422.64  4434.41  4446.09
                             4451.10  4458.96  4474.97  4486.22

 Zero-point correction=                           0.372986 (Hartree/Particle)
 Thermal correction to Energy=                    0.389028
 Thermal correction to Enthalpy=                  0.389972
 Thermal correction to Gibbs Free Energy=         0.329886
 Sum of electronic and zero-point Energies=           -585.923371
 Sum of electronic and thermal Energies=              -585.907329
 Sum of electronic and thermal Enthalpies=            -585.906385
 Sum of electronic and thermal Free Energies=         -585.966471

                     E (Thermal)             CV                S
                      KCal/Mol        Cal/Mol-Kelvin    Cal/Mol-Kelvin
 Total                  244.119             61.866            126.461
 Electronic               0.000              0.000              0.000
 Translational            0.889              2.981             41.757
 Rotational               0.889              2.981             32.401
 Vibrational            242.341             55.905             52.304
 Vibration     1          0.595              1.980              5.139
 Vibration     2          0.596              1.975              4.566
 Vibration     3          0.597              1.972              4.349
 Vibration     4          0.600              1.964              3.924
 Vibration     5          0.610              1.931              3.068
 Vibration     6          0.614              1.916              2.845
 Vibration     7          0.619              1.900              2.640
 Vibration     8          0.629              1.866              2.324
 Vibration     9          0.638              1.840              2.136
 Vibration    10          0.654              1.789              1.851
 Vibration    11          0.660              1.772              1.769
 Vibration    12          0.666              1.754              1.692
 Vibration    13          0.667              1.750              1.678
 Vibration    14          0.683              1.701              1.503
 Vibration    15          0.710              1.624              1.282
 Vibration    16          0.720              1.595              1.210
 Vibration    17          0.733              1.560              1.133
 Vibration    18          0.768              1.465              0.954
 Vibration    19          0.775              1.447              0.925
 Vibration    20          0.797              1.392              0.839
 Vibration    21          0.805              1.371              0.809
 Vibration    22          0.865              1.228              0.634
 Vibration    23          0.882              1.190              0.594

 Optimization completed.
    -- Stationary point found.
 Normal termination of Gaussian 16 at Tue May 23 08:20:20 2023.
