 Gaussian 16, Revision A.03,
 Gaussian 16:  ES64L-G16RevA.03 25-Dec-2016

 -----------------------------
 # opt freq b3lyp/6-31g(2df,p)
 -----------------------------

 -------------------
 Title Card Required
 -------------------
 Symbolic Z-matrix:
 Charge =  0 Multiplicity = 1

 SCF Done:  E(RB3LYP) =  -626.824734039     A.U. after   12 cycles
 SCF Done:  E(RB3LYP) =  -626.837949363     A.U. after   11 cycles
 SCF Done:  E(RB3LYP) =  -626.842902514     A.U. after   11 cycles
 SCF Done:  E(RB3LYP) =  -626.845059080     A.U. after   10 cycles
 SCF Done:  E(RB3LYP) =  -626.845526283     A.U. after   10 cycles
 SCF Done:  E(RB3LYP) =  -626.845656222     A.U. after    9 cycles
 SCF Done:  E(RB3LYP) =  -626.845763481     A.U. after    9 cycles
 SCF Done:  E(RB3LYP) =  -626.845788288     A.U. after   11 cycles
 SCF Done:  E(RB3LYP) =  -626.846144970     A.U. after   10 cycles
 SCF Done:  E(RB3LYP) =  -626.846054201     A.U. after    9 cycles
 SCF Done:  E(RB3LYP) =  -626.846752035     A.U. after    9 cycles
 SCF Done:  E(RB3LYP) =  -626.846769362     A.U. after    9 cycles
 SCF Done:  E(RB3LYP) =  -626.846784203     A.U. after    8 cycles
 SCF Done:  E(RB3LYP) =  -626.846788828     A.U. after    8 cycles
 SCF Done:  E(RB3LYP) =  -626.846790279     A.U. after    8 cycles
 SCF Done:  E(RB3LYP) =  -626.846790978     A.U. after    7 cycles
 SCF Done:  E(RB3LYP) =  -626.846791458     A.U. after    7 cycles
 SCF Done:  E(RB3LYP) =  -626.846791535     A.U. after    6 cycles
 SCF Done:  E(RB3LYP) =  -626.846791562     A.U. after    6 cycles
 Optimization completed.
    -- Stationary point found.
 Normal termination of Gaussian 16 at Mon May 22 22:45:20 2023.

 ----------------------------------------------------------------------
 #N Geom=AllCheck Guess=TCheck SCRF=Check GenChk RB3LYP/6-31G(2df,p) Fr
 eq
 ----------------------------------------------------------------------

 Structure from the checkpoint file:  "CCCCqCCCrCCCCqCrOCC.chk"
 -------------------
 Title Card Required
 -------------------
 Charge =  0 Multiplicity = 1

                         Standard orientation:
 ---------------------------------------------------------------------
 Center     Atomic      Atomic             Coordinates (Angstroms)
 Number     Number       Type             X           Y           Z
 ---------------------------------------------------------------------
      1          6           0        5.099153   -2.736039    0.034716
      2          6           0        4.068530   -1.754782    0.599825
      3          6           0        3.075019   -1.254228   -0.458058
      4          6           0        2.017557   -0.245792    0.065212
      5          6           0        2.391743    1.216963   -0.248089
      6          6           0        3.724231    1.708542    0.331122
      7          6           0        3.980344    3.190714    0.040114
      8          6           0        0.621558   -0.602817   -0.489166
      9          6           0       -0.554172    0.198507    0.085790
     10          6           0       -1.909410   -0.324452   -0.404895
     11          6           0       -3.129384    0.365844    0.212921
     12          6           0       -3.248598    1.844009   -0.171121
     13          8           0       -4.260717   -0.378628   -0.227718
     14          6           0       -5.434272   -0.217341    0.541207
     15          6           0       -6.479425   -1.193355    0.024253
     16          1           0        5.783120   -3.091195    0.812109
     17          1           0        5.703025   -2.267616   -0.750753
     18          1           0        4.611351   -3.613025   -0.405758
     19          1           0        4.586405   -0.905650    1.060534
     20          1           0        3.507803   -2.239653    1.410165
     21          1           0        2.563542   -2.129180   -0.879824
     22          1           0        3.627975   -0.807806   -1.296079
     23          1           0        1.966557   -0.349783    1.160158
     24          1           0        1.599827    1.878603    0.123616
     25          1           0        2.405528    1.348481   -1.340555
     26          1           0        4.552984    1.116049   -0.073881
     27          1           0        3.731892    1.543416    1.416830
     28          1           0        4.006998    3.383095   -1.038406
     29          1           0        4.935000    3.522522    0.460462
     30          1           0        3.191483    3.820542    0.466613
     31          1           0        0.440183   -1.667918   -0.292490
     32          1           0        0.632303   -0.499189   -1.584105
     33          1           0       -0.450334    1.256396   -0.177907
     34          1           0       -0.519907    0.150561    1.184012
     35          1           0       -1.994756   -1.394267   -0.180801
     36          1           0       -1.974552   -0.232773   -1.497137
     37          1           0       -3.059282    0.287528    1.312642
     38          1           0       -3.302610    1.947669   -1.259923
     39          1           0       -2.388190    2.414821    0.190041
     40          1           0       -4.144816    2.298555    0.260422
     41          1           0       -5.818483    0.813054    0.475334
     42          1           0       -5.219179   -0.411637    1.606137
     43          1           0       -6.700851   -0.994401   -1.028262
     44          1           0       -7.406811   -1.100705    0.597676
     45          1           0       -6.117702   -2.222115    0.107902
 ---------------------------------------------------------------------

 SCF Done:  E(RB3LYP) =  -626.846791562     A.U. after    1 cycles

 The electronic state is 1-A.
 Alpha  occ. eigenvalues --  -19.12681 -10.22483 -10.22143 -10.17816 -10.17508
 Alpha  occ. eigenvalues --  -10.17475 -10.17395 -10.17206 -10.17114 -10.17058
 Alpha  occ. eigenvalues --  -10.17027 -10.17005 -10.16966 -10.16926 -10.16859
 Alpha  occ. eigenvalues --   -1.02080  -0.81849  -0.79394  -0.77061  -0.76045
 Alpha  occ. eigenvalues --   -0.73285  -0.71391  -0.67065  -0.66825  -0.62650
 Alpha  occ. eigenvalues --   -0.59792  -0.58313  -0.57569  -0.56313  -0.55157
 Alpha  occ. eigenvalues --   -0.49115  -0.47397  -0.46633  -0.46003  -0.45011
 Alpha  occ. eigenvalues --   -0.43868  -0.42973  -0.42335  -0.41002  -0.40595
 Alpha  occ. eigenvalues --   -0.39311  -0.38736  -0.38460  -0.38182  -0.37424
 Alpha  occ. eigenvalues --   -0.37084  -0.36149  -0.35597  -0.35486  -0.34565
 Alpha  occ. eigenvalues --   -0.33596  -0.33386  -0.33014  -0.32521  -0.31774
 Alpha  occ. eigenvalues --   -0.31700  -0.30871  -0.30169  -0.29656  -0.28820
 Alpha  occ. eigenvalues --   -0.24472
 Alpha virt. eigenvalues --    0.08587   0.08829   0.10176   0.10376   0.10806
 Alpha virt. eigenvalues --    0.11469   0.12098   0.12453   0.13370   0.13528
 Alpha virt. eigenvalues --    0.14030   0.15102   0.15300   0.15798   0.16159

 Mulliken charges:
               1
     1  C   -0.380124
     2  C   -0.165847
     3  C   -0.182803
     4  C    0.009776
     5  C   -0.161221
     6  C   -0.172107
     7  C   -0.382056
     8  C   -0.197032
     9  C   -0.207342
    10  C   -0.192402
    11  C    0.139074
    12  C   -0.399374
    13  O   -0.259725
    14  C   -0.036648
    15  C   -0.380919
    16  H    0.109196
    17  H    0.112280
    18  H    0.112808
    19  H    0.098869
    20  H    0.092265
    21  H    0.086641
    22  H    0.087978
    23  H    0.061486
    24  H    0.090577
    25  H    0.086699
    26  H    0.099854
    27  H    0.092697
    28  H    0.112780
    29  H    0.109424
    30  H    0.112031
    31  H    0.089491
    32  H    0.091274
    33  H    0.102579
    34  H    0.089517
    35  H    0.098152
    36  H    0.098252
    37  H    0.057454
    38  H    0.119356
    39  H    0.117075
    40  H    0.114188
    41  H    0.085113
    42  H    0.080993
    43  H    0.125193
    44  H    0.110864
    45  H    0.123667
 Sum of Mulliken charges =  -0.00000

 Dipole moment (field-independent basis, Debye):
    X=              0.0424    Y=              0.5649    Z=              0.7871  Tot=              0.9698
 Quadrupole moment (field-independent basis, Debye-Ang):
   XX=            -97.7792   YY=           -100.0524   ZZ=            -98.7646
   XY=             -1.7881   XZ=             -3.5376   YZ=             -0.7130

  Exact polarizability: 195.923   0.792 158.383  -0.118   0.042 132.779
 Approx polarizability: 220.749   1.231 213.728  -1.171   0.430 213.497

                      1                      2                      3
                      A                      A                      A
 Frequencies --     16.6677                26.7219                42.3720
 Red. masses --      2.7885                 3.1121                 2.2612
 Frc consts  --      0.0005                 0.0013                 0.0024
 IR Inten    --      0.2358                 0.0559                 0.2170

                      4                      5                      6
                      A                      A                      A
 Frequencies --     52.2840                57.5127                69.5598
 Red. masses --      2.3597                 2.6346                 2.0072
 Frc consts  --      0.0038                 0.0051                 0.0057
 IR Inten    --      0.0441                 0.1543                 0.0018

                      7                      8                      9
                      A                      A                      A
 Frequencies --     86.3795               102.7218               106.5187
 Red. masses --      2.8435                 2.2034                 1.5667
 Frc consts  --      0.0125                 0.0137                 0.0105
 IR Inten    --      0.9419                 0.1370                 0.0557

                     10                     11                     12
                      A                      A                      A
 Frequencies --    110.2743               125.1517               153.0748
 Red. masses --      2.1627                 2.4901                 2.5682
 Frc consts  --      0.0155                 0.0230                 0.0355
 IR Inten    --      0.0014                 1.0408                 0.2697

                     13                     14                     15
                      A                      A                      A
 Frequencies --    180.0798               200.2395               220.1753
 Red. masses --      2.1935                 3.3564                 1.7871
 Frc consts  --      0.0419                 0.0793                 0.0510
 IR Inten    --      0.0708                 0.2422                 0.2903

                     16                     17                     18
                      A                      A                      A
 Frequencies --    232.4514               243.9325               249.1654
 Red. masses --      1.3909                 1.1597                 1.1770
 Frc consts  --      0.0443                 0.0407                 0.0431
 IR Inten    --      0.0719                 0.0539                 0.0848

                     19                     20                     21
                      A                      A                      A
 Frequencies --    254.2785               277.9957               309.7028
 Red. masses --      1.2925                 2.6554                 2.6979
 Frc consts  --      0.0492                 0.1209                 0.1525
 IR Inten    --      0.6880                 0.3758                 0.0349

                     22                     23                     24
                      A                      A                      A
 Frequencies --    328.9432               357.3201               414.6039
 Red. masses --      2.7526                 2.9068                 3.0045
 Frc consts  --      0.1755                 0.2187                 0.3043
 IR Inten    --      0.0479                 0.5203                 3.9677

                     25                     26                     27
                      A                      A                      A
 Frequencies --    455.1624               467.4045               479.0969
 Red. masses --      2.8498                 2.2727                 2.3921
 Frc consts  --      0.3479                 0.2925                 0.3235
 IR Inten    --      0.2124                 0.0971                 0.6296

                     28                     29                     30
                      A                      A                      A
 Frequencies --    537.7540               557.6652               735.4843
 Red. masses --      2.8028                 2.7102                 1.1057
 Frc consts  --      0.4775                 0.4966                 0.3524
 IR Inten    --      3.9268                 0.1879                 3.4350

                     31                     32                     33
                      A                      A                      A
 Frequencies --    743.0578               750.0018               809.4649
 Red. masses --      1.1391                 1.1156                 1.6571
 Frc consts  --      0.3706                 0.3697                 0.6397
 IR Inten    --      2.0236                 1.9831                 0.9673

                     34                     35                     36
                      A                      A                      A
 Frequencies --    820.5529               846.1266               852.5650
 Red. masses --      1.0938                 2.0081                 1.2729
 Frc consts  --      0.4339                 0.8470                 0.5451
 IR Inten    --      0.3633                 1.3195                 0.0867

                     37                     38                     39
                      A                      A                      A
 Frequencies --    865.3519               890.6101               900.2397
 Red. masses --      1.4324                 2.1449                 1.8594
 Frc consts  --      0.6320                 1.0024                 0.8879
 IR Inten    --      1.1670                 4.3485                 0.9411

                     40                     41                     42
                      A                      A                      A
 Frequencies --    904.8507               938.5656               968.8346
 Red. masses --      1.5349                 2.0124                 1.8929
 Frc consts  --      0.7405                 1.0445                 1.0469
 IR Inten    --      1.9976                 2.6288                 4.7275

                     43                     44                     45
                      A                      A                      A
 Frequencies --    992.6076              1009.5040              1028.6142
 Red. masses --      1.5222                 2.7280                 2.6595
 Frc consts  --      0.8837                 1.6380                 1.6579
 IR Inten    --      3.9078                 3.6719                 0.8442

                     46                     47                     48
                      A                      A                      A
 Frequencies --   1039.7775              1054.0523              1055.9343
 Red. masses --      2.6807                 1.3942                 2.5048
 Frc consts  --      1.7076                 0.9126                 1.6455
 IR Inten    --      2.7988                 0.0749                 0.1931

                     49                     50                     51
                      A                      A                      A
 Frequencies --   1063.5398              1076.6155              1084.0181
 Red. masses --      2.2227                 2.1808                 1.6025
 Frc consts  --      1.4813                 1.4893                 1.1095
 IR Inten    --      1.1058                 3.1662                 0.7414

                     52                     53                     54
                      A                      A                      A
 Frequencies --   1087.6130              1128.3019              1135.8313
 Red. masses --      2.2024                 2.6169                 2.0536
 Frc consts  --      1.5349                 1.9629                 1.5609
 IR Inten    --      3.1290                60.7708                 5.7017

                     55                     56                     57
                      A                      A                      A
 Frequencies --   1150.8317              1158.7106              1170.9358
 Red. masses --      3.3467                 2.5192                 2.2155
 Frc consts  --      2.6115                 1.9928                 1.7897
 IR Inten    --    132.8686                54.6944                12.0625

                     58                     59                     60
                      A                      A                      A
 Frequencies --   1187.1726              1194.3657              1223.0673
 Red. masses --      1.5739                 2.0272                 1.7408
 Frc consts  --      1.3069                 1.7038                 1.5343
 IR Inten    --      8.0967                 6.3832                27.9372

                     61                     62                     63
                      A                      A                      A
 Frequencies --   1249.7823              1262.6368              1278.4724
 Red. masses --      1.3555                 1.2825                 1.3160
 Frc consts  --      1.2474                 1.2046                 1.2674
 IR Inten    --      2.3888                 0.2523                 0.7459

                     64                     65                     66
                      A                      A                      A
 Frequencies --   1291.3314              1296.7676              1301.6794
 Red. masses --      1.2796                 1.1095                 1.2726
 Frc consts  --      1.2572                 1.0993                 1.2704
 IR Inten    --      1.7541                 1.0401                 3.3041

                     67                     68                     69
                      A                      A                      A
 Frequencies --   1314.5017              1328.4006              1334.3313
 Red. masses --      1.1795                 1.0898                 1.1588
 Frc consts  --      1.2008                 1.1331                 1.2155
 IR Inten    --      0.6857                 0.6251                 3.1315

                     70                     71                     72
                      A                      A                      A
 Frequencies --   1337.2787              1342.6174              1361.6696
 Red. masses --      1.1872                 1.1688                 1.2726
 Frc consts  --      1.2509                 1.2413                 1.3902
 IR Inten    --      4.8583                 4.2789                19.0996

                     73                     74                     75
                      A                      A                      A
 Frequencies --   1373.2118              1375.5718              1385.0507
 Red. masses --      1.3020                 1.3255                 1.4573
 Frc consts  --      1.4465                 1.4777                 1.6472
 IR Inten    --      7.5152                 7.8798                15.5823

                     76                     77                     78
                      A                      A                      A
 Frequencies --   1388.3119              1399.5963              1402.4150
 Red. masses --      1.5286                 1.4132                 1.3208
 Frc consts  --      1.7359                 1.6310                 1.5305
 IR Inten    --      1.8363                 0.2095                 0.6606

                     79                     80                     81
                      A                      A                      A
 Frequencies --   1403.6646              1406.8989              1411.4076
 Red. masses --      1.4880                 1.2927                 1.2320
 Frc consts  --      1.7273                 1.5076                 1.4460
 IR Inten    --      3.7376                27.3789                 0.6226

                     82                     83                     84
                      A                      A                      A
 Frequencies --   1413.2773              1436.6540              1478.4582
 Red. masses --      1.2526                 1.4181                 1.0744
 Frc consts  --      1.4741                 1.7245                 1.3836
 IR Inten    --      0.8120                 9.4278                 0.2654

                     85                     86                     87
                      A                      A                      A
 Frequencies --   1481.5594              1482.9818              1483.8923
 Red. masses --      1.0737                 1.0412                 1.0797
 Frc consts  --      1.3885                 1.3491                 1.4007
 IR Inten    --      0.3468                 4.0874                 0.2063

                     88                     89                     90
                      A                      A                      A
 Frequencies --   1488.3824              1492.7022              1493.8830
 Red. masses --      1.0644                 1.0643                 1.0631
 Frc consts  --      1.3892                 1.3972                 1.3978
 IR Inten    --      1.7045                 2.5222                 0.3180

                     91                     92                     93
                      A                      A                      A
 Frequencies --   1496.2297              1499.1451              1499.4032
 Red. masses --      1.0609                 1.0413                 1.0521
 Frc consts  --      1.3993                 1.3788                 1.3936
 IR Inten    --      1.7941                 4.3953                 1.6848

                     94                     95                     96
                      A                      A                      A
 Frequencies --   1499.6806              1500.8500              1508.6398
 Red. masses --      1.0416                 1.0502                 1.0897
 Frc consts  --      1.3803                 1.3938                 1.4612
 IR Inten    --      8.8570                 0.4200                 2.4618

                     97                     98                     99
                      A                      A                      A
 Frequencies --   1510.1812              1513.2252              1530.7547
 Red. masses --      1.0848                 1.0873                 1.0901
 Frc consts  --      1.4576                 1.4670                 1.5050
 IR Inten    --      4.4406                 1.6537                 4.7535

                    100                    101                    102
                      A                      A                      A
 Frequencies --   2939.4527              2955.3916              2978.2993
 Red. masses --      1.0799                 1.0613                 1.0801
 Frc consts  --      5.4974                 5.4617                 5.6446
 IR Inten    --     22.5364                67.4232                 3.7886

                    103                    104                    105
                      A                      A                      A
 Frequencies --   2985.6313              2995.4006              2998.7839
 Red. masses --      1.0990                 1.0626                 1.0630
 Frc consts  --      5.7721                 5.6173                 5.6321
 IR Inten    --     47.3004                 7.2018                 3.7588

                    106                    107                    108
                      A                      A                      A
 Frequencies --   3004.7339              3008.7612              3017.5140
 Red. masses --      1.0650                 1.0618                 1.0622
 Frc consts  --      5.6652                 5.6632                 5.6984
 IR Inten    --      5.5904                25.4143                26.3657

                    109                    110                    111
                      A                      A                      A
 Frequencies --   3020.6547              3024.4493              3026.7851
 Red. masses --      1.0667                 1.0603                 1.0362
 Frc consts  --      5.7347                 5.7145                 5.5930
 IR Inten    --     42.3923                45.3457                56.6700

                    112                    113                    114
                      A                      A                      A
 Frequencies --   3027.4183              3032.1734              3036.0721
 Red. masses --      1.0372                 1.0955                 1.0928
 Frc consts  --      5.6010                 5.9343                 5.9348
 IR Inten    --     29.2837                 7.4473                19.4546

                    115                    116                    117
                      A                      A                      A
 Frequencies --   3039.7059              3042.8913              3042.9347
 Red. masses --      1.0378                 1.0741                 1.0534
 Frc consts  --      5.6499                 5.8595                 5.7466
 IR Inten    --      8.2320                31.0576                14.1943

                    118                    119                    120
                      A                      A                      A
 Frequencies --   3055.5290              3061.0296              3064.8797
 Red. masses --      1.0976                 1.0993                 1.0990
 Frc consts  --      6.0379                 6.0685                 6.0823
 IR Inten    --      2.5109                34.0395                25.4772

                    121                    122                    123
                      A                      A                      A
 Frequencies --   3079.7787              3093.8920              3094.9325
 Red. masses --      1.0999                 1.1021                 1.1022
 Frc consts  --      6.1467                 6.2159                 6.2201
 IR Inten    --     77.4307                48.6324                67.0120

                    124                    125                    126
                      A                      A                      A
 Frequencies --   3098.7127              3099.4096              3111.3742
 Red. masses --      1.1008                 1.1008                 1.1012
 Frc consts  --      6.2275                 6.2302                 6.2807
 IR Inten    --     22.6076                61.5014                27.8681

                    127                    128                    129
                      A                      A                      A
 Frequencies --   3113.8804              3116.8698              3119.9549
 Red. masses --      1.1004                 1.1014                 1.1026
 Frc consts  --      6.2863                 6.3043                 6.3238
 IR Inten    --     31.2888                30.5188                28.6266

 - Thermochemistry -
 -------------------
 Temperature   298.150 Kelvin.  Pressure   1.00000 Atm.
 Atom     1 has atomic number  6 and mass  12.00000

 Molecular mass:   214.22967 amu.
 Principal axes and moments of inertia in atomic units:
                           1         2         3
     Eigenvalues --  1976.74963********************
           X            1.00000  -0.00137  -0.00128
           Y            0.00137   1.00000   0.00033
           Z            0.00128  -0.00033   1.00000
 This molecule is an asymmetric top.
 Rotational symmetry number  1.
 Warning -- assumption of classical behavior for rotation
           may cause significant error
 Rotational temperatures (Kelvin)      0.04382     0.00787     0.00685
 Rotational constants (GHZ):           0.91298     0.16400     0.14272
 Zero-point vibrational energy    1100117.0 (Joules/Mol)
                                  262.93428 (Kcal/Mol)
 Warning -- explicit consideration of  29 degrees of freedom as
           vibrations may cause significant error
 Vibrational temperatures:     23.98    38.45    60.96    75.22    82.75
          (Kelvin)            100.08   124.28   147.79   153.26   158.66
                              180.07   220.24   259.09   288.10   316.78
                              334.45   350.96   358.49   365.85   399.97
                              445.59   473.28   514.10   596.52   654.88
                              672.49   689.31   773.71   802.36  1058.20
                             1069.09  1079.09  1164.64  1180.59  1217.39
                             1226.65  1245.05  1281.39  1295.24  1301.88
                             1350.39  1393.94  1428.14  1452.45  1479.95
                             1496.01  1516.55  1519.25  1530.20  1549.01
                             1559.66  1564.83  1623.37  1634.21  1655.79
                             1667.13  1684.72  1708.08  1718.43  1759.72
                             1798.16  1816.65  1839.44  1857.94  1865.76
                             1872.83  1891.27  1911.27  1919.81  1924.05
                             1931.73  1959.14  1975.75  1979.14  1992.78
                             1997.47  2013.71  2017.76  2019.56  2024.21
                             2030.70  2033.39  2067.02  2127.17  2131.63
                             2133.68  2134.99  2141.45  2147.67  2149.36
                             2152.74  2156.94  2157.31  2157.71  2159.39
                             2170.60  2172.81  2177.19  2202.41  4229.22
                             4252.15  4285.11  4295.66  4309.71  4314.58
                             4323.14  4328.94  4341.53  4346.05  4351.51
                             4354.87  4355.78  4362.62  4368.23  4373.46
                             4378.04  4378.10  4396.22  4404.14  4409.68
                             4431.11  4451.42  4452.92  4458.36  4459.36
                             4476.57  4480.18  4484.48  4488.92

 Zero-point correction=                           0.419012 (Hartree/Particle)
 Thermal correction to Energy=                    0.439497
 Thermal correction to Enthalpy=                  0.440442
 Thermal correction to Gibbs Free Energy=         0.367171
 Sum of electronic and zero-point Energies=           -626.427779
 Sum of electronic and thermal Energies=              -626.407294
 Sum of electronic and thermal Enthalpies=            -626.406350
 Sum of electronic and thermal Free Energies=         -626.479621

                     E (Thermal)             CV                S
                      KCal/Mol        Cal/Mol-Kelvin    Cal/Mol-Kelvin
 Total                  275.789             73.070            154.211
 Electronic               0.000              0.000              0.000
 Translational            0.889              2.981             41.989
 Rotational               0.889              2.981             33.975
 Vibrational            274.011             67.109             78.247
 Vibration     1          0.593              1.986              6.996
 Vibration     2          0.593              1.984              6.059
 Vibration     3          0.595              1.980              5.145
 Vibration     4          0.596              1.977              4.729
 Vibration     5          0.596              1.974              4.541
 Vibration     6          0.598              1.969              4.166
 Vibration     7          0.601              1.959              3.740
 Vibration     8          0.605              1.947              3.402
 Vibration     9          0.605              1.944              3.331
 Vibration    10          0.606              1.941              3.264
 Vibration    11          0.610              1.928              3.019
 Vibration    12          0.619              1.899              2.634
 Vibration    13          0.629              1.867              2.328
 Vibration    14          0.638              1.840              2.131
 Vibration    15          0.647              1.810              1.958
 Vibration    16          0.653              1.791              1.860
 Vibration    17          0.659              1.773              1.774
 Vibration    18          0.662              1.764              1.736
 Vibration    19          0.665              1.756              1.701
 Vibration    20          0.679              1.714              1.546
 Vibration    21          0.699              1.655              1.364
 Vibration    22          0.712              1.618              1.265
 Vibration    23          0.732              1.560              1.134
 Vibration    24          0.778              1.439              0.910
 Vibration    25          0.813              1.349              0.780
 Vibration    26          0.825              1.322              0.745
 Vibration    27          0.836              1.296              0.713
 Vibration    28          0.893              1.167              0.570
 Vibration    29          0.913              1.123              0.529

 Optimization completed.
    -- Stationary point found.
 Normal termination of Gaussian 16 at Tue May 23 02:01:18 2023.
