 Gaussian 16, Revision A.03,
 Gaussian 16:  ES64L-G16RevA.03 25-Dec-2016

 -----------------------------
 # opt freq b3lyp/6-31g(2df,p)
 -----------------------------

 -------------------
 Title Card Required
 -------------------
 Symbolic Z-matrix:
 Charge =  0 Multiplicity = 1

 SCF Done:  E(RB3LYP) =  -391.870986914     A.U. after   12 cycles
 SCF Done:  E(RB3LYP) =  -391.877928070     A.U. after   10 cycles
 SCF Done:  E(RB3LYP) =  -391.879426956     A.U. after    9 cycles
 SCF Done:  E(RB3LYP) =  -391.880802035     A.U. after    9 cycles
 SCF Done:  E(RB3LYP) =  -391.881306541     A.U. after    9 cycles
 SCF Done:  E(RB3LYP) =  -391.881492717     A.U. after    9 cycles
 SCF Done:  E(RB3LYP) =  -391.881542307     A.U. after    9 cycles
 SCF Done:  E(RB3LYP) =  -391.881554309     A.U. after    8 cycles
 SCF Done:  E(RB3LYP) =  -391.881558039     A.U. after    8 cycles
 SCF Done:  E(RB3LYP) =  -391.881558537     A.U. after    6 cycles
 SCF Done:  E(RB3LYP) =  -391.881558732     A.U. after    6 cycles
 Optimization completed.
    -- Stationary point found.
 Normal termination of Gaussian 16 at Sun May 28 12:43:51 2023.

 ----------------------------------------------------------------------
 #N Geom=AllCheck Guess=TCheck SCRF=Check GenChk RB3LYP/6-31G(2df,p) Fr
 eq
 ----------------------------------------------------------------------

 Structure from the checkpoint file:  "CCCC1CC1CC1CC1.chk"
 -------------------
 Title Card Required
 -------------------
 Charge =  0 Multiplicity = 1

                         Standard orientation:
 ---------------------------------------------------------------------
 Center     Atomic      Atomic             Coordinates (Angstroms)
 Number     Number       Type             X           Y           Z
 ---------------------------------------------------------------------
      1          6           0       -4.098218   -1.040576    0.167531
      2          6           0       -3.027904   -0.110708   -0.409724
      3          6           0       -1.645765   -0.315556    0.225026
      4          6           0       -0.582390    0.600906   -0.342795
      5          6           0       -0.416366    2.004296    0.189078
      6          6           0        0.649421    0.965195    0.451115
      7          6           0        2.006834    1.100254   -0.209819
      8          6           0        2.845019   -0.166819   -0.312439
      9          6           0        2.883005   -1.218205    0.768296
     10          6           0        2.252086   -1.529084   -0.568809
     11          1           0       -5.071130   -0.873994   -0.305456
     12          1           0       -4.221006   -0.882507    1.245023
     13          1           0       -3.831743   -2.093062    0.018409
     14          1           0       -3.332278    0.934928   -0.275360
     15          1           0       -2.952161   -0.266606   -1.494036
     16          1           0       -1.341232   -1.364129    0.093948
     17          1           0       -1.717737   -0.156368    1.309901
     18          1           0       -0.423999    0.490179   -1.414180
     19          1           0       -1.045403    2.311223    1.018944
     20          1           0       -0.188752    2.801114   -0.511969
     21          1           0        0.673230    0.586752    1.470464
     22          1           0        2.590454    1.857106    0.333747
     23          1           0        1.861834    1.505964   -1.220833
     24          1           0        3.800939    0.011147   -0.799637
     25          1           0        2.221290   -1.110695    1.620720
     26          1           0        3.838125   -1.672123    1.009274
     27          1           0        1.172354   -1.617309   -0.600106
     28          1           0        2.772883   -2.199843   -1.243608
 ---------------------------------------------------------------------

 SCF Done:  E(RB3LYP) =  -391.881558732     A.U. after    1 cycles

 The electronic state is 1-A.
 Alpha  occ. eigenvalues --  -10.18299 -10.18268 -10.18218 -10.17899 -10.17687
 Alpha  occ. eigenvalues --  -10.17594 -10.17531 -10.17511 -10.17420 -10.16970
 Alpha  occ. eigenvalues --   -0.86224  -0.84114  -0.77673  -0.71616  -0.68136
 Alpha  occ. eigenvalues --   -0.59642  -0.59147  -0.58498  -0.56088  -0.54234
 Alpha  occ. eigenvalues --   -0.48541  -0.47442  -0.46072  -0.44599  -0.42928
 Alpha  occ. eigenvalues --   -0.41126  -0.39853  -0.38138  -0.37254  -0.36196
 Alpha  occ. eigenvalues --   -0.35453  -0.34409  -0.33412  -0.32528  -0.32338
 Alpha  occ. eigenvalues --   -0.28408  -0.27506  -0.27130  -0.25896
 Alpha virt. eigenvalues --    0.09105   0.09438   0.09859   0.10790   0.11574
 Alpha virt. eigenvalues --    0.13352   0.14389   0.14937   0.15033   0.15501
 Alpha virt. eigenvalues --    0.16061   0.16981   0.17479   0.18102   0.19427

 Mulliken charges:
               1
     1  C   -0.380071
     2  C   -0.155004
     3  C   -0.201926
     4  C    0.027733
     5  C   -0.313378
     6  C   -0.017849
     7  C   -0.237782
     8  C    0.023444
     9  C   -0.263081
    10  C   -0.262796
    11  H    0.110259
    12  H    0.112156
    13  H    0.112815
    14  H    0.098320
    15  H    0.092929
    16  H    0.093895
    17  H    0.088209
    18  H    0.078110
    19  H    0.103925
    20  H    0.105241
    21  H    0.079545
    22  H    0.095920
    23  H    0.090246
    24  H    0.078154
    25  H    0.109862
    26  H    0.105325
    27  H    0.121126
    28  H    0.104670
 Sum of Mulliken charges =  -0.00000

 Dipole moment (field-independent basis, Debye):
    X=             -0.0516    Y=              0.1209    Z=             -0.0865  Tot=              0.1574
 Quadrupole moment (field-independent basis, Debye-Ang):
   XX=            -63.9789   YY=            -65.3841   ZZ=            -63.6244
   XY=             -0.2274   XZ=             -0.9177   YZ=              0.1956

  Exact polarizability: 121.012   0.012 102.591   0.431  -0.213  89.731
 Approx polarizability: 145.493  -0.133 146.253   2.002   0.576 141.310

                      1                      2                      3
                      A                      A                      A
 Frequencies --     41.3169                59.2692                81.4996
 Red. masses --      2.7433                 2.8843                 1.7221
 Frc consts  --      0.0028                 0.0060                 0.0067
 IR Inten    --      0.0168                 0.0120                 0.0100

                      4                      5                      6
                      A                      A                      A
 Frequencies --    109.5853               125.2089               157.5761
 Red. masses --      2.6264                 2.5959                 2.6866
 Frc consts  --      0.0186                 0.0240                 0.0393
 IR Inten    --      0.0210                 0.0375                 0.0348

                      7                      8                      9
                      A                      A                      A
 Frequencies --    244.5388               260.8451               295.2884
 Red. masses --      1.1663                 2.8059                 2.7804
 Frc consts  --      0.0411                 0.1125                 0.1428
 IR Inten    --      0.0157                 0.2418                 0.0438

                     10                     11                     12
                      A                      A                      A
 Frequencies --    338.1822               343.2024               402.8476
 Red. masses --      2.5287                 1.9663                 2.4139
 Frc consts  --      0.1704                 0.1365                 0.2308
 IR Inten    --      0.2499                 0.4171                 0.1095

                     13                     14                     15
                      A                      A                      A
 Frequencies --    458.1041               535.8120               743.2489
 Red. masses --      2.3452                 2.4225                 1.1505
 Frc consts  --      0.2900                 0.4098                 0.3745
 IR Inten    --      0.0486                 0.4078                 3.1491

                     16                     17                     18
                      A                      A                      A
 Frequencies --    753.2282               781.3446               798.9942
 Red. masses --      2.2527                 1.1740                 1.1971
 Frc consts  --      0.7530                 0.4223                 0.4503
 IR Inten    --      2.4170                 2.4932                 1.9536

                     19                     20                     21
                      A                      A                      A
 Frequencies --    824.4259               845.4934               861.0435
 Red. masses --      1.7628                 1.6455                 1.3743
 Frc consts  --      0.7059                 0.6931                 0.6003
 IR Inten    --      1.3529                 2.9443                 0.7188

                     22                     23                     24
                      A                      A                      A
 Frequencies --    868.7461               888.4565               916.9367
 Red. masses --      2.0984                 2.4970                 1.9973
 Frc consts  --      0.9331                 1.1613                 0.9894
 IR Inten    --      6.6097                 5.4565                 4.5577

                     25                     26                     27
                      A                      A                      A
 Frequencies --    937.2956               990.1317              1007.3695
 Red. masses --      1.5562                 2.2980                 1.8960
 Frc consts  --      0.8055                 1.3273                 1.1336
 IR Inten    --      0.1257                11.4222                 1.7405

                     28                     29                     30
                      A                      A                      A
 Frequencies --   1036.1604              1042.9211              1055.4091
 Red. masses --      1.5036                 2.0845                 1.4725
 Frc consts  --      0.9511                 1.3358                 0.9664
 IR Inten    --      7.5122                 0.3240                 3.2667

                     31                     32                     33
                      A                      A                      A
 Frequencies --   1062.7494              1077.6300              1089.5921
 Red. masses --      1.4731                 1.4011                 2.0405
 Frc consts  --      0.9803                 0.9586                 1.4273
 IR Inten    --      3.2158                 0.8881                 1.9948

                     34                     35                     36
                      A                      A                      A
 Frequencies --   1118.2791              1125.7560              1133.3946
 Red. masses --      1.4035                 1.2166                 1.8006
 Frc consts  --      1.0341                 0.9085                 1.3628
 IR Inten    --      1.7244                 1.6064                 1.4901

                     37                     38                     39
                      A                      A                      A
 Frequencies --   1145.1630              1179.0705              1198.7739
 Red. masses --      1.1273                 1.7803                 1.4801
 Frc consts  --      0.8710                 1.4582                 1.2532
 IR Inten    --      0.1904                 0.7593                 0.4255

                     40                     41                     42
                      A                      A                      A
 Frequencies --   1201.9549              1226.7415              1243.3042
 Red. masses --      1.7455                 1.6451                 1.7118
 Frc consts  --      1.4857                 1.4586                 1.5591
 IR Inten    --      0.7139                 0.5571                 1.7501

                     43                     44                     45
                      A                      A                      A
 Frequencies --   1257.1275              1280.7572              1302.6980
 Red. masses --      1.3489                 1.3345                 1.2907
 Frc consts  --      1.2560                 1.2897                 1.2905
 IR Inten    --      2.2732                 0.7222                 9.0824

                     46                     47                     48
                      A                      A                      A
 Frequencies --   1329.7182              1340.1658              1368.9750
 Red. masses --      1.1112                 1.4267                 1.4891
 Frc consts  --      1.1577                 1.5097                 1.6443
 IR Inten    --      0.3657                 3.9686                 2.0180

                     49                     50                     51
                      A                      A                      A
 Frequencies --   1395.4081              1407.5151              1412.7215
 Red. masses --      1.5731                 1.4287                 1.2493
 Frc consts  --      1.8047                 1.6676                 1.4691
 IR Inten    --      1.9929                 6.2672                 0.5078

                     52                     53                     54
                      A                      A                      A
 Frequencies --   1443.5256              1468.1134              1480.1676
 Red. masses --      1.4962                 1.0902                 1.1162
 Frc consts  --      1.8369                 1.3845                 1.4409
 IR Inten    --      2.1993                 1.4306                 0.3106

                     55                     56                     57
                      A                      A                      A
 Frequencies --   1484.3765              1493.0215              1498.8984
 Red. masses --      1.0988                 1.0759                 1.2331
 Frc consts  --      1.4265                 1.4131                 1.6322
 IR Inten    --      2.7000                 0.5221                 0.9064

                     58                     59                     60
                      A                      A                      A
 Frequencies --   1500.6584              1509.7473              1510.2266
 Red. masses --      1.2051                 1.3966                 1.0836
 Frc consts  --      1.5990                 1.8756                 1.4561
 IR Inten    --      4.7157                 7.3580                 2.1105

                     61                     62                     63
                      A                      A                      A
 Frequencies --   2996.8573              2997.4937              3017.5371
 Red. masses --      1.0594                 1.0595                 1.0637
 Frc consts  --      5.6057                 5.6088                 5.7067
 IR Inten    --     31.9753                31.7491                27.8083

                     64                     65                     66
                      A                      A                      A
 Frequencies --   3026.8176              3027.3708              3028.3901
 Red. masses --      1.0680                 1.0821                 1.0787
 Frc consts  --      5.7651                 5.8434                 5.8286
 IR Inten    --     31.4215                26.5296                18.3696

                     67                     68                     69
                      A                      A                      A
 Frequencies --   3054.5331              3093.4438              3099.6748
 Red. masses --      1.1027                 1.1021                 1.1008
 Frc consts  --      6.0619                 6.2138                 6.2317
 IR Inten    --     23.3148                50.2776                37.9780

                     70                     71                     72
                      A                      A                      A
 Frequencies --   3117.8208              3122.1210              3126.8099
 Red. masses --      1.0775                 1.0646                 1.0827
 Frc consts  --      6.1712                 6.1139                 6.2370
 IR Inten    --     19.9439                12.1545                25.8121

                     73                     74                     75
                      A                      A                      A
 Frequencies --   3128.8355              3134.5136              3139.3739
 Red. masses --      1.0755                 1.0621                 1.0627
 Frc consts  --      6.2034                 6.1482                 6.1710
 IR Inten    --      4.2554                40.1944                 9.6665

                     76                     77                     78
                      A                      A                      A
 Frequencies --   3204.3204              3209.8295              3226.2925
 Red. masses --      1.1159                 1.1166                 1.1146
 Frc consts  --      6.7508                 6.7779                 6.8353
 IR Inten    --     13.8484                 2.9245                26.0881

 - Thermochemistry -
 -------------------
 Temperature   298.150 Kelvin.  Pressure   1.00000 Atm.
 Atom     1 has atomic number  6 and mass  12.00000

 Molecular mass:   138.14085 amu.
 Principal axes and moments of inertia in atomic units:
                           1         2         3
     Eigenvalues --   777.618512996.580983495.82588
           X            0.99998   0.00642  -0.00178
           Y           -0.00643   0.99995  -0.00703
           Z            0.00174   0.00705   0.99997
 This molecule is an asymmetric top.
 Rotational symmetry number  1.
 Warning -- assumption of classical behavior for rotation
           may cause significant error
 Rotational temperatures (Kelvin)      0.11138     0.02890     0.02478
 Rotational constants (GHZ):           2.32086     0.60227     0.51626
 Zero-point vibrational energy     674949.5 (Joules/Mol)
                                  161.31681 (Kcal/Mol)
 Warning -- explicit consideration of  14 degrees of freedom as
           vibrations may cause significant error
 Vibrational temperatures:     59.45    85.28   117.26   157.67   180.15
          (Kelvin)            226.72   351.84   375.30   424.85   486.57
                              493.79   579.61   659.11   770.91  1069.37
                             1083.73  1124.18  1149.57  1186.16  1216.48
                             1238.85  1249.93  1278.29  1319.27  1348.56
                             1424.58  1449.38  1490.80  1500.53  1518.50
                             1529.06  1550.47  1567.68  1608.95  1619.71
                             1630.70  1647.63  1696.42  1724.77  1729.35
                             1765.01  1788.84  1808.73  1842.72  1874.29
                             1913.17  1928.20  1969.65  2007.68  2025.10
                             2032.59  2076.91  2112.29  2129.63  2135.69
                             2148.12  2156.58  2159.11  2172.19  2172.88
                             4311.81  4312.72  4341.56  4354.92  4355.71
                             4357.18  4394.79  4450.78  4459.74  4485.85
                             4492.04  4498.78  4501.70  4509.87  4516.86
                             4610.30  4618.23  4641.92

 Zero-point correction=                           0.257075 (Hartree/Particle)
 Thermal correction to Energy=                    0.268597
 Thermal correction to Enthalpy=                  0.269541
 Thermal correction to Gibbs Free Energy=         0.218922
 Sum of electronic and zero-point Energies=           -391.624484
 Sum of electronic and thermal Energies=              -391.612962
 Sum of electronic and thermal Enthalpies=            -391.612018
 Sum of electronic and thermal Free Energies=         -391.662636

                     E (Thermal)             CV                S
                      KCal/Mol        Cal/Mol-Kelvin    Cal/Mol-Kelvin
 Total                  168.547             43.096            106.536
 Electronic               0.000              0.000              0.000
 Translational            0.889              2.981             40.681
 Rotational               0.889              2.981             30.478
 Vibrational            166.770             37.134             35.378
 Vibration     1          0.594              1.981              5.195
 Vibration     2          0.597              1.974              4.481
 Vibration     3          0.600              1.962              3.854
 Vibration     4          0.606              1.942              3.276
 Vibration     5          0.610              1.928              3.018
 Vibration     6          0.621              1.894              2.579
 Vibration     7          0.660              1.772              1.770
 Vibration     8          0.669              1.744              1.656
 Vibration     9          0.690              1.683              1.443
 Vibration    10          0.718              1.599              1.221
 Vibration    11          0.722              1.589              1.197
 Vibration    12          0.768              1.464              0.952
 Vibration    13          0.816              1.343              0.772
 Vibration    14          0.891              1.171              0.574

                           ! Non-Optimized Parameters !
 Normal termination of Gaussian 16 at Sun May 28 13:33:59 2023.
