 Gaussian 16, Revision A.03,
 Gaussian 16:  ES64L-G16RevA.03 25-Dec-2016

 -----------------------------
 # opt freq b3lyp/6-31g(2df,p)
 -----------------------------

 -------------------
 Title Card Required
 -------------------
 Symbolic Z-matrix:
 Charge =  0 Multiplicity = 1

 SCF Done:  E(RB3LYP) =  -315.732786840     A.U. after   12 cycles
 SCF Done:  E(RB3LYP) =  -315.734812154     A.U. after   10 cycles
 SCF Done:  E(RB3LYP) =  -315.735018922     A.U. after    9 cycles
 SCF Done:  E(RB3LYP) =  -315.735027043     A.U. after    8 cycles
 SCF Done:  E(RB3LYP) =  -315.735030917     A.U. after    6 cycles
 Optimization completed.
    -- Stationary point found.
 Normal termination of Gaussian 16 at Sun May 28 21:20:17 2023.

 ----------------------------------------------------------------------
 #N Geom=AllCheck Guess=TCheck SCRF=Check GenChk RB3LYP/6-31G(2df,p) Fr
 eq
 ----------------------------------------------------------------------

 Structure from the checkpoint file:  "CCCCqCrqCrCC.chk"
 -------------------
 Title Card Required
 -------------------
 Charge =  0 Multiplicity = 1

                         Standard orientation:
 ---------------------------------------------------------------------
 Center     Atomic      Atomic             Coordinates (Angstroms)
 Number     Number       Type             X           Y           Z
 ---------------------------------------------------------------------
      1          6           0       -3.418120   -0.513690   -0.000000
      2          6           0       -2.132734    0.321021    0.000000
      3          6           0       -0.874392   -0.557290   -0.000001
      4          6           0        0.505451    0.154039   -0.000000
      5          6           0        0.655310    1.029162   -1.258716
      6          6           0        0.655310    1.029160    1.258717
      7          6           0        1.575547   -0.971479   -0.000001
      8          6           0        3.047684   -0.543110    0.000000
      9          1           0       -4.308395    0.123179    0.000000
     10          1           0       -3.470710   -1.160079    0.883331
     11          1           0       -3.470711   -1.160078   -0.883332
     12          1           0       -2.134938    0.978890    0.876994
     13          1           0       -2.134939    0.978891   -0.876993
     14          1           0       -0.916323   -1.220168   -0.876116
     15          1           0       -0.916323   -1.220169    0.876113
     16          1           0       -0.098784    1.821237   -1.288909
     17          1           0        0.548823    0.431364   -2.171429
     18          1           0        1.633601    1.518031   -1.292549
     19          1           0       -0.098784    1.821235    1.288911
     20          1           0        1.633601    1.518029    1.292552
     21          1           0        0.548823    0.431361    2.171429
     22          1           0        1.396854   -1.609488   -0.875912
     23          1           0        1.396854   -1.609490    0.875909
     24          1           0        3.305648    0.047961   -0.883976
     25          1           0        3.695714   -1.425548   -0.000001
     26          1           0        3.305648    0.047959    0.883978
 ---------------------------------------------------------------------

 SCF Done:  E(RB3LYP) =  -315.735030917     A.U. after    1 cycles

 The electronic state is 1-A.
 Alpha  occ. eigenvalues --  -10.18729 -10.17353 -10.17195 -10.16952 -10.16885
 Alpha  occ. eigenvalues --  -10.16805 -10.16501 -10.16501  -0.82160  -0.76531
 Alpha  occ. eigenvalues --   -0.72421  -0.67786  -0.67171  -0.62542  -0.57516
 Alpha  occ. eigenvalues --   -0.52048  -0.46143  -0.45591  -0.44294  -0.43043
 Alpha  occ. eigenvalues --   -0.40405  -0.40062  -0.38266  -0.37149  -0.36737
 Alpha  occ. eigenvalues --   -0.35860  -0.35664  -0.33956  -0.33210  -0.32066
 Alpha  occ. eigenvalues --   -0.30861  -0.30080  -0.29356
 Alpha virt. eigenvalues --    0.07578   0.10891   0.11680   0.12037   0.13537
 Alpha virt. eigenvalues --    0.14205   0.15139   0.15200   0.16446   0.17109
 Alpha virt. eigenvalues --    0.17434   0.18315   0.19526   0.20334   0.20355

 Mulliken charges:
               1
     1  C   -0.375278
     2  C   -0.192569
     3  C   -0.165049
     4  C    0.264719
     5  C   -0.409572
     6  C   -0.409572
     7  C   -0.173053
     8  C   -0.405064
     9  H    0.108466
    10  H    0.112247
    11  H    0.112247
    12  H    0.096860
    13  H    0.096860
    14  H    0.084000
    15  H    0.084000
    16  H    0.111187
    17  H    0.104545
    18  H    0.110248
    19  H    0.111187
    20  H    0.110248
    21  H    0.104545
    22  H    0.087501
    23  H    0.087501
    24  H    0.116350
    25  H    0.111097
    26  H    0.116350
 Sum of Mulliken charges =   0.00000

 Dipole moment (field-independent basis, Debye):
    X=              0.0054    Y=              0.0014    Z=             -0.0000  Tot=              0.0056
 Quadrupole moment (field-independent basis, Debye-Ang):
   XX=            -55.5256   YY=            -54.8640   ZZ=            -54.5214
   XY=             -0.3845   XZ=             -0.0000   YZ=             -0.0000

  Exact polarizability: 103.427  -0.579  81.906  -0.000  -0.000  81.003
 Approx polarizability: 123.496  -0.564 120.687  -0.000  -0.000 121.004

                      1                      2                      3
                      A                      A                      A
 Frequencies --     46.6211                81.5756                99.5196
 Red. masses --      1.5599                 1.7973                 2.2080
 Frc consts  --      0.0020                 0.0070                 0.0129
 IR Inten    --      0.0108                 0.0087                 0.0001

                      4                      5                      6
                      A                      A                      A
 Frequencies --    152.1011               206.8365               246.4116
 Red. masses --      2.8567                 1.0567                 1.1108
 Frc consts  --      0.0389                 0.0266                 0.0397
 IR Inten    --      0.0387                 0.0025                 0.0068

                      7                      8                      9
                      A                      A                      A
 Frequencies --    249.3721               279.8203               291.2150
 Red. masses --      1.1641                 1.2094                 2.2137
 Frc consts  --      0.0427                 0.0558                 0.1106
 IR Inten    --      0.1999                 0.0003                 0.0058

                     10                     11                     12
                      A                      A                      A
 Frequencies --    318.6519               330.0948               359.9435
 Red. masses --      2.5837                 2.0455                 2.5913
 Frc consts  --      0.1546                 0.1313                 0.1978
 IR Inten    --      0.0264                 0.0000                 0.1032

                     13                     14                     15
                      A                      A                      A
 Frequencies --    410.8727               412.2322               543.8131
 Red. masses --      2.5828                 1.9598                 2.3091
 Frc consts  --      0.2569                 0.1962                 0.4023
 IR Inten    --      0.2024                 0.0174                 0.5967

                     16                     17                     18
                      A                      A                      A
 Frequencies --    729.4321               742.5583               782.7346
 Red. masses --      3.0988                 1.1106                 1.1893
 Frc consts  --      0.9714                 0.3608                 0.4293
 IR Inten    --      0.0880                 1.6707                 2.7497

                     19                     20                     21
                      A                      A                      A
 Frequencies --    848.8824               866.4109               924.5204
 Red. masses --      2.2402                 1.2935                 1.6905
 Frc consts  --      0.9511                 0.5721                 0.8513
 IR Inten    --      0.3717                 0.0248                 1.7472

                     22                     23                     24
                      A                      A                      A
 Frequencies --    940.7018               960.8832               996.9317
 Red. masses --      1.5108                 2.0803                 1.2468
 Frc consts  --      0.7877                 1.1317                 0.7301
 IR Inten    --      0.0072                 3.6122                 0.3509

                     25                     26                     27
                      A                      A                      A
 Frequencies --   1020.0451              1026.8440              1054.8205
 Red. masses --      1.3644                 2.3692                 2.4490
 Frc consts  --      0.8365                 1.4718                 1.6054
 IR Inten    --      0.2049                 1.7619                 0.3570

                     28                     29                     30
                      A                      A                      A
 Frequencies --   1067.3970              1118.0168              1124.4053
 Red. masses --      1.6101                 2.0743                 1.4581
 Frc consts  --      1.0808                 1.5276                 1.0861
 IR Inten    --      3.1168                 0.4743                 0.1236

                     31                     32                     33
                      A                      A                      A
 Frequencies --   1211.3948              1233.2375              1254.9870
 Red. masses --      2.0170                 2.0794                 3.1404
 Frc consts  --      1.7439                 1.8633                 2.9141
 IR Inten    --     14.6651                 1.1987                 2.6396

                     34                     35                     36
                      A                      A                      A
 Frequencies --   1279.7574              1320.3314              1324.9804
 Red. masses --      1.2696                 1.1538                 1.4213
 Frc consts  --      1.2251                 1.1851                 1.4701
 IR Inten    --      0.2657                 0.0789                 0.3081

                     37                     38                     39
                      A                      A                      A
 Frequencies --   1364.2433              1369.0980              1394.4935
 Red. masses --      1.2341                 1.4444                 1.4270
 Frc consts  --      1.3532                 1.5952                 1.6349
 IR Inten    --      0.0238                 0.4028                 0.4652

                     40                     41                     42
                      A                      A                      A
 Frequencies --   1399.8576              1409.2441              1412.6414
 Red. masses --      1.2666                 1.2567                 1.2363
 Frc consts  --      1.4624                 1.4705                 1.4536
 IR Inten    --      5.9509                 0.8809                 1.6819

                     43                     44                     45
                      A                      A                      A
 Frequencies --   1425.4992              1472.0125              1482.8456
 Red. masses --      1.2473                 1.0773                 1.0454
 Frc consts  --      1.4933                 1.3753                 1.3543
 IR Inten    --      4.9582                 0.2573                 0.0914

                     46                     47                     48
                      A                      A                      A
 Frequencies --   1483.9534              1491.0523              1493.0305
 Red. masses --      1.0680                 1.0468                 1.0567
 Frc consts  --      1.3856                 1.3712                 1.3878
 IR Inten    --      0.0283                 3.5564                 0.8300

                     49                     50                     51
                      A                      A                      A
 Frequencies --   1499.7970              1507.1771              1508.7606
 Red. masses --      1.0407                 1.0727                 1.0529
 Frc consts  --      1.3792                 1.4357                 1.4121
 IR Inten    --      3.4889                 1.0850                 5.6080

                     52                     53                     54
                      A                      A                      A
 Frequencies --   1509.5387              1512.8393              1517.9977
 Red. masses --      1.0738                 1.0485                 1.0606
 Frc consts  --      1.4417                 1.4138                 1.4399
 IR Inten    --      1.1196                 2.7268                11.9920

                     55                     56                     57
                      A                      A                      A
 Frequencies --   2993.7480              3007.8083              3025.4473
 Red. masses --      1.0583                 1.0586                 1.1010
 Frc consts  --      5.5887                 5.6427                 5.9378
 IR Inten    --     11.3063                39.7105                 6.2448

                     58                     59                     60
                      A                      A                      A
 Frequencies --   3026.7529              3026.8953              3030.0627
 Red. masses --      1.0374                 1.0371                 1.0506
 Frc consts  --      5.5994                 5.5985                 5.6829
 IR Inten    --     24.4588                28.7762                28.1052

                     61                     62                     63
                      A                      A                      A
 Frequencies --   3033.6850              3039.6635              3041.0786
 Red. masses --      1.0439                 1.0370                 1.1016
 Frc consts  --      5.6604                 5.6455                 6.0024
 IR Inten    --     13.6416                23.8971                26.5992

                     64                     65                     66
                      A                      A                      A
 Frequencies --   3064.2196              3094.2505              3095.1991
 Red. masses --      1.1018                 1.1000                 1.1023
 Frc consts  --      6.0954                 6.2050                 6.2219
 IR Inten    --     21.0920                42.9404                23.6906

                     67                     68                     69
                      A                      A                      A
 Frequencies --   3095.7391              3098.9226              3101.0178
 Red. masses --      1.0995                 1.1009                 1.0986
 Frc consts  --      6.2081                 6.2293                 6.2247
 IR Inten    --     17.9511                 7.9941               108.3594

                     70                     71                     72
                      A                      A                      A
 Frequencies --   3101.5663              3107.5849              3111.6429
 Red. masses --      1.1010                 1.0993                 1.1009
 Frc consts  --      6.2402                 6.2550                 6.2800
 IR Inten    --     23.4366                55.8612                27.8438

 - Thermochemistry -
 -------------------
 Temperature   298.150 Kelvin.  Pressure   1.00000 Atm.
 Atom     1 has atomic number  6 and mass  12.00000

 Molecular mass:   114.14085 amu.
 Principal axes and moments of inertia in atomic units:
                           1         2         3
     Eigenvalues --   490.564201857.732281905.22302
           X            1.00000   0.00312   0.00000
           Y           -0.00312   1.00000  -0.00000
           Z           -0.00000   0.00000   1.00000
 This molecule is an asymmetric top.
 Rotational symmetry number  1.
 Warning -- assumption of classical behavior for rotation
           may cause significant error
 Rotational temperatures (Kelvin)      0.17656     0.04662     0.04546
 Rotational constants (GHZ):           3.67891     0.97148     0.94726
 Zero-point vibrational energy     641244.6 (Joules/Mol)
                                  153.26113 (Kcal/Mol)
 Warning -- explicit consideration of  15 degrees of freedom as
           vibrations may cause significant error
 Vibrational temperatures:     67.08   117.37   143.19   218.84   297.59
          (Kelvin)            354.53   358.79   402.60   418.99   458.47
                              474.93   517.88   591.15   593.11   782.43
                             1049.49  1068.38  1126.18  1221.35  1246.57
                             1330.18  1353.46  1382.50  1434.36  1467.62
                             1477.40  1517.65  1535.75  1608.58  1617.77
                             1742.93  1774.35  1805.65  1841.29  1899.66
                             1906.35  1962.84  1969.83  2006.37  2014.08
                             2027.59  2032.48  2050.98  2117.90  2133.48
                             2135.08  2145.29  2148.14  2157.87  2168.49
                             2170.77  2171.89  2176.64  2184.06  4307.34
                             4327.57  4352.94  4354.82  4355.03  4359.58
                             4364.80  4373.40  4375.43  4408.73  4451.94
                             4453.30  4454.08  4458.66  4461.67  4462.46
                             4471.12  4476.96

 Zero-point correction=                           0.244237 (Hartree/Particle)
 Thermal correction to Energy=                    0.255325
 Thermal correction to Enthalpy=                  0.256269
 Thermal correction to Gibbs Free Energy=         0.208259
 Sum of electronic and zero-point Energies=           -315.490794
 Sum of electronic and thermal Energies=              -315.479706
 Sum of electronic and thermal Enthalpies=            -315.478762
 Sum of electronic and thermal Free Energies=         -315.526772

                     E (Thermal)             CV                S
                      KCal/Mol        Cal/Mol-Kelvin    Cal/Mol-Kelvin
 Total                  160.219             40.839            101.047
 Electronic               0.000              0.000              0.000
 Translational            0.889              2.981             40.112
 Rotational               0.889              2.981             28.942
 Vibrational            158.441             34.877             31.993
 Vibration     1          0.595              1.979              4.956
 Vibration     2          0.600              1.962              3.853
 Vibration     3          0.604              1.949              3.464
 Vibration     4          0.619              1.900              2.646
 Vibration     5          0.641              1.830              2.071
 Vibration     6          0.661              1.769              1.756
 Vibration     7          0.662              1.764              1.735
 Vibration     8          0.680              1.711              1.535
 Vibration     9          0.687              1.690              1.467
 Vibration    10          0.705              1.638              1.317
 Vibration    11          0.713              1.615              1.260
 Vibration    12          0.734              1.555              1.122
 Vibration    13          0.775              1.447              0.924
 Vibration    14          0.776              1.444              0.919
 Vibration    15          0.899              1.153              0.557

 Optimization completed.
    -- Stationary point found.
 Normal termination of Gaussian 16 at Sun May 28 21:56:16 2023.
