 Gaussian 16, Revision A.03,
 Gaussian 16:  ES64L-G16RevA.03 25-Dec-2016

 -----------------------------
 # opt freq b3lyp/6-31g(2df,p)
 -----------------------------

 -------------------
 Title Card Required
 -------------------
 Symbolic Z-matrix:
 Charge =  0 Multiplicity = 1

 SCF Done:  E(RB3LYP) =  -432.470357037     A.U. after   12 cycles
 SCF Done:  E(RB3LYP) =  -432.474690346     A.U. after   10 cycles
 SCF Done:  E(RB3LYP) =  -432.476282483     A.U. after    9 cycles
 SCF Done:  E(RB3LYP) =  -432.478241796     A.U. after   10 cycles
 SCF Done:  E(RB3LYP) =  -432.454317733     A.U. after   10 cycles
 SCF Done:  E(RB3LYP) =  -432.480757656     A.U. after   10 cycles
 SCF Done:  E(RB3LYP) =  -432.482124924     A.U. after   10 cycles
 SCF Done:  E(RB3LYP) =  -432.483031469     A.U. after   10 cycles
 SCF Done:  E(RB3LYP) =  -432.483504113     A.U. after    9 cycles
 SCF Done:  E(RB3LYP) =  -432.483617882     A.U. after    8 cycles
 SCF Done:  E(RB3LYP) =  -432.483655761     A.U. after    9 cycles
 SCF Done:  E(RB3LYP) =  -432.483667483     A.U. after    8 cycles
 SCF Done:  E(RB3LYP) =  -432.483669144     A.U. after    6 cycles
 SCF Done:  E(RB3LYP) =  -432.483669303     A.U. after    6 cycles
 SCF Done:  E(RB3LYP) =  -432.483669309     A.U. after    5 cycles
 Optimization completed.
    -- Stationary point found.
 Normal termination of Gaussian 16 at Sun May 28 19:44:48 2023.

 ----------------------------------------------------------------------
 #N Geom=AllCheck Guess=TCheck SCRF=Check GenChk RB3LYP/6-31G(2df,p) Fr
 eq
 ----------------------------------------------------------------------

 Structure from the checkpoint file:  "CCCCCC1CCCCC1.chk"
 -------------------
 Title Card Required
 -------------------
 Charge =  0 Multiplicity = 1

                         Standard orientation:
 ---------------------------------------------------------------------
 Center     Atomic      Atomic             Coordinates (Angstroms)
 Number     Number       Type             X           Y           Z
 ---------------------------------------------------------------------
      1          6           0       -5.413327   -0.016204   -0.119894
      2          6           0       -4.042323    0.521000    0.299701
      3          6           0       -2.878398   -0.355388   -0.175431
      4          6           0       -1.501811    0.173431    0.242949
      5          6           0       -0.344998   -0.711102   -0.238791
      6          6           0        1.053656   -0.280665    0.234016
      7          6           0        2.104090   -1.353272   -0.109093
      8          6           0        3.515491   -0.961948    0.350278
      9          6           0        3.933162    0.399702   -0.221120
     10          6           0        2.899824    1.481280    0.120524
     11          6           0        1.488952    1.082025   -0.337187
     12          1           0       -6.223002    0.630245    0.233312
     13          1           0       -5.586894   -1.018965    0.286576
     14          1           0       -5.494534   -0.085361   -1.210536
     15          1           0       -4.003314    0.611768    1.393488
     16          1           0       -3.911939    1.538724   -0.091880
     17          1           0       -2.916279   -0.444984   -1.270385
     18          1           0       -3.010242   -1.375021    0.213554
     19          1           0       -1.463321    0.255067    1.338593
     20          1           0       -1.381869    1.194363   -0.141087
     21          1           0       -0.354173   -0.755562   -1.337730
     22          1           0       -0.525981   -1.739683    0.103471
     23          1           0        1.022705   -0.187138    1.331687
     24          1           0        2.108408   -1.509621   -1.198091
     25          1           0        1.813601   -2.312084    0.337626
     26          1           0        4.235334   -1.735670    0.059172
     27          1           0        3.537864   -0.914589    1.448162
     28          1           0        4.025559    0.320272   -1.313515
     29          1           0        4.922572    0.684630    0.154669
     30          1           0        3.184898    2.437998   -0.332265
     31          1           0        2.893350    1.643052    1.207684
     32          1           0        1.466103    1.026953   -1.435981
     33          1           0        0.775251    1.862451   -0.052229
 ---------------------------------------------------------------------

 SCF Done:  E(RB3LYP) =  -432.483669309     A.U. after    1 cycles

 The electronic state is 1-A.
 Alpha  occ. eigenvalues --  -10.17573 -10.17403 -10.17162 -10.17148 -10.17127
 Alpha  occ. eigenvalues --  -10.17115 -10.17104 -10.16977 -10.16963 -10.16949
 Alpha  occ. eigenvalues --  -10.16844  -0.82778  -0.79494  -0.76157  -0.73177
 Alpha  occ. eigenvalues --   -0.72028  -0.66227  -0.60876  -0.59817  -0.57116
 Alpha  occ. eigenvalues --   -0.56420  -0.54348  -0.47085  -0.46536  -0.44031
 Alpha  occ. eigenvalues --   -0.43292  -0.42718  -0.41721  -0.41444  -0.39847
 Alpha  occ. eigenvalues --   -0.37562  -0.36984  -0.36742  -0.36031  -0.34155
 Alpha  occ. eigenvalues --   -0.33414  -0.33053  -0.32162  -0.32157  -0.31847
 Alpha  occ. eigenvalues --   -0.31355  -0.30682  -0.28642  -0.28086
 Alpha virt. eigenvalues --    0.08747   0.09470   0.10363   0.11040   0.11827
 Alpha virt. eigenvalues --    0.13198   0.13842   0.14047   0.16083   0.16176
 Alpha virt. eigenvalues --    0.16833   0.16937   0.17666   0.17791   0.18062

 Mulliken charges:
               1
     1  C   -0.378896
     2  C   -0.163897
     3  C   -0.156592
     4  C   -0.191581
     5  C   -0.197553
     6  C    0.045025
     7  C   -0.191741
     8  C   -0.199536
     9  C   -0.175856
    10  C   -0.197102
    11  C   -0.183288
    12  H    0.109212
    13  H    0.112257
    14  H    0.112231
    15  H    0.092517
    16  H    0.092619
    17  H    0.089713
    18  H    0.089296
    19  H    0.088953
    20  H    0.095629
    21  H    0.087313
    22  H    0.084843
    23  H    0.061151
    24  H    0.087175
    25  H    0.084535
    26  H    0.086539
    27  H    0.089402
    28  H    0.089288
    29  H    0.086156
    30  H    0.086344
    31  H    0.089926
    32  H    0.086140
    33  H    0.089779
 Sum of Mulliken charges =  -0.00000

 Dipole moment (field-independent basis, Debye):
    X=              0.0392    Y=              0.0452    Z=              0.0479  Tot=              0.0766
 Quadrupole moment (field-independent basis, Debye-Ang):
   XX=            -74.2911   YY=            -73.1399   ZZ=            -72.1464
   XY=             -0.1719   XZ=             -0.2326   YZ=             -0.4020

  Exact polarizability: 147.245   0.147 110.267   0.344   0.099 101.113
 Approx polarizability: 163.100   0.234 160.702  -0.289  -0.289 163.376

                      1                      2                      3
                      A                      A                      A
 Frequencies --     43.7486                48.6113                69.7793
 Red. masses --      2.1812                 2.1320                 3.2719
 Frc consts  --      0.0025                 0.0030                 0.0094
 IR Inten    --      0.0051                 0.0002                 0.0032

                      4                      5                      6
                      A                      A                      A
 Frequencies --    114.6425               132.0257               160.7222
 Red. masses --      2.5445                 1.7540                 2.4958
 Frc consts  --      0.0197                 0.0180                 0.0380
 IR Inten    --      0.0038                 0.0023                 0.0034

                      7                      8                      9
                      A                      A                      A
 Frequencies --    206.2172               227.8160               247.4696
 Red. masses --      2.7305                 1.8030                 1.1204
 Frc consts  --      0.0684                 0.0551                 0.0404
 IR Inten    --      0.0093                 0.0243                 0.0008

                     10                     11                     12
                      A                      A                      A
 Frequencies --    256.4272               324.1245               354.7801
 Red. masses --      3.4995                 1.7847                 2.5633
 Frc consts  --      0.1356                 0.1105                 0.1901
 IR Inten    --      0.0438                 0.0047                 0.0189

                     13                     14                     15
                      A                      A                      A
 Frequencies --    417.8923               444.7319               458.8962
 Red. masses --      2.4199                 2.8335                 2.0201
 Frc consts  --      0.2490                 0.3302                 0.2506
 IR Inten    --      0.1352                 0.0153                 0.3182

                     16                     17                     18
                      A                      A                      A
 Frequencies --    486.7145               562.7756               731.2792
 Red. masses --      2.8686                 1.8151                 1.0777
 Frc consts  --      0.4004                 0.3387                 0.3396
 IR Inten    --      0.2011                 0.2178                 3.3450

                     19                     20                     21
                      A                      A                      A
 Frequencies --    751.6710               786.6533               794.6024
 Red. masses --      1.2123                 1.8889                 1.6220
 Frc consts  --      0.4036                 0.6887                 0.6034
 IR Inten    --      0.1631                 0.0394                 0.0146

                     22                     23                     24
                      A                      A                      A
 Frequencies --    833.1427               851.3059               888.7784
 Red. masses --      1.3219                 2.2322                 1.5210
 Frc consts  --      0.5406                 0.9531                 0.7079
 IR Inten    --      0.4041                 1.0746                 0.6980

                     25                     26                     27
                      A                      A                      A
 Frequencies --    899.0909               901.3679               924.7711
 Red. masses --      1.8495                 2.0012                 1.5077
 Frc consts  --      0.8809                 0.9579                 0.7597
 IR Inten    --      3.5701                 0.8564                 0.4284

                     28                     29                     30
                      A                      A                      A
 Frequencies --    968.1345               972.8529              1010.5723
 Red. masses --      1.3014                 2.2381                 3.5950
 Frc consts  --      0.7187                 1.2480                 2.1631
 IR Inten    --      0.2961                 0.7370                 0.1748

                     31                     32                     33
                      A                      A                      A
 Frequencies --   1039.3689              1043.9529              1054.6688
 Red. masses --      1.8215                 1.8152                 1.9168
 Frc consts  --      1.1594                 1.1655                 1.2562
 IR Inten    --      0.7255                 0.0384                 0.3870

                     34                     35                     36
                      A                      A                      A
 Frequencies --   1065.2197              1072.4874              1089.2414
 Red. masses --      1.7965                 1.5153                 1.2357
 Frc consts  --      1.2010                 1.0269                 0.8638
 IR Inten    --      0.0635                 0.1937                 1.0923

                     37                     38                     39
                      A                      A                      A
 Frequencies --   1100.5035              1114.7618              1132.9960
 Red. masses --      2.5201                 2.1797                 1.9697
 Frc consts  --      1.7983                 1.5959                 1.4897
 IR Inten    --      0.2802                 0.5919                 0.7054

                     40                     41                     42
                      A                      A                      A
 Frequencies --   1186.4004              1205.8879              1229.4509
 Red. masses --      2.1430                 1.6038                 1.5779
 Frc consts  --      1.7772                 1.3741                 1.4052
 IR Inten    --      0.0738                 1.1113                 2.0463

                     43                     44                     45
                      A                      A                      A
 Frequencies --   1260.1015              1277.5377              1286.8320
 Red. masses --      1.3197                 1.3316                 1.2115
 Frc consts  --      1.2346                 1.2805                 1.1820
 IR Inten    --      3.8675                 0.6074                 2.3534

                     46                     47                     48
                      A                      A                      A
 Frequencies --   1289.3611              1305.7429              1319.3519
 Red. masses --      1.2726                 1.2738                 1.2145
 Frc consts  --      1.2465                 1.2796                 1.2456
 IR Inten    --      2.4226                 0.8811                 0.0611

                     49                     50                     51
                      A                      A                      A
 Frequencies --   1328.5095              1331.7870              1344.4426
 Red. masses --      1.1734                 1.0841                 1.2499
 Frc consts  --      1.2202                 1.1329                 1.3311
 IR Inten    --      0.4002                 0.4063                 0.1696

                     52                     53                     54
                      A                      A                      A
 Frequencies --   1356.6099              1369.3216              1377.6346
 Red. masses --      1.2816                 1.3792                 1.3712
 Frc consts  --      1.3897                 1.5237                 1.5333
 IR Inten    --      2.4901                 0.9079                 0.7862

                     55                     56                     57
                      A                      A                      A
 Frequencies --   1380.7988              1382.8155              1396.0652
 Red. masses --      1.4848                 1.5172                 1.5132
 Frc consts  --      1.6679                 1.7093                 1.7376
 IR Inten    --      0.5808                 3.7019                 1.3221

                     58                     59                     60
                      A                      A                      A
 Frequencies --   1401.0404              1401.6089              1413.0392
 Red. masses --      1.5496                 1.5310                 1.2561
 Frc consts  --      1.7922                 1.7720                 1.4777
 IR Inten    --      0.3199                 0.6405                 0.6717

                     61                     62                     63
                      A                      A                      A
 Frequencies --   1477.2171              1482.9484              1484.1884
 Red. masses --      1.0830                 1.0762                 1.0824
 Frc consts  --      1.3924                 1.3944                 1.4049
 IR Inten    --      0.1000                 0.0544                 0.2203

                     64                     65                     66
                      A                      A                      A
 Frequencies --   1485.5104              1487.3202              1490.1155
 Red. masses --      1.0902                 1.0944                 1.0780
 Frc consts  --      1.4174                 1.4264                 1.4103
 IR Inten    --      1.1798                 1.3315                 3.7218

                     67                     68                     69
                      A                      A                      A
 Frequencies --   1492.4537              1499.7497              1503.3180
 Red. masses --      1.0781                 1.0403                 1.0845
 Frc consts  --      1.4149                 1.3787                 1.4440
 IR Inten    --      4.2234                 4.8851                 0.5975

                     70                     71                     72
                      A                      A                      A
 Frequencies --   1506.4651              1514.1612              2970.5459
 Red. masses --      1.0945                 1.0927                 1.0799
 Frc consts  --      1.4635                 1.4760                 5.6147
 IR Inten    --      0.2667                 2.9358                 6.4887

                     73                     74                     75
                      A                      A                      A
 Frequencies --   2993.8066              2995.9845              2999.2887
 Red. masses --      1.0594                 1.0671                 1.0583
 Frc consts  --      5.5946                 5.6433                 5.6092
 IR Inten    --      1.7885                15.5182                 2.3139

                     76                     77                     78
                      A                      A                      A
 Frequencies --   3003.6608              3005.8284              3007.4792
 Red. masses --      1.0666                 1.0689                 1.0628
 Frc consts  --      5.6695                 5.6902                 5.6638
 IR Inten    --      8.9769                18.6885                28.9421

                     79                     80                     81
                      A                      A                      A
 Frequencies --   3008.4138              3012.4256              3015.2868
 Red. masses --      1.0626                 1.0598                 1.0638
 Frc consts  --      5.6664                 5.6663                 5.6985
 IR Inten    --      6.3854                47.2438                86.6575

                     82                     83                     84
                      A                      A                      A
 Frequencies --   3022.7682              3026.5133              3027.5330
 Red. masses --      1.0921                 1.0996                 1.0358
 Frc consts  --      5.8791                 5.9345                 5.5939
 IR Inten    --     10.0828                 5.2041                42.8480

                     85                     86                     87
                      A                      A                      A
 Frequencies --   3044.1004              3049.1615              3055.5675
 Red. masses --      1.1019                 1.0974                 1.0988
 Frc consts  --      6.0161                 6.0112                 6.0447
 IR Inten    --      6.5629                37.7782                40.5445

                     88                     89                     90
                      A                      A                      A
 Frequencies --   3056.6755              3060.0413              3063.8190
 Red. masses --      1.0918                 1.1002                 1.1040
 Frc consts  --      6.0102                 6.0700                 6.1060
 IR Inten    --     73.5485                12.9036               164.0099

                     91                     92                     93
                      A                      A                      A
 Frequencies --   3067.6132              3093.6058              3098.8911
 Red. masses --      1.0966                 1.1020                 1.1009
 Frc consts  --      6.0801                 6.2139                 6.2291
 IR Inten    --     51.0937                60.6769                39.7920

 - Thermochemistry -
 -------------------
 Temperature   298.150 Kelvin.  Pressure   1.00000 Atm.
 Atom     1 has atomic number  6 and mass  12.00000

 Molecular mass:   154.17215 amu.
 Principal axes and moments of inertia in atomic units:
                           1         2         3
     Eigenvalues --   541.428695310.152705657.39203
           X            1.00000   0.00025   0.00048
           Y           -0.00025   0.99998   0.00596
           Z           -0.00048  -0.00596   0.99998
 This molecule is an asymmetric top.
 Rotational symmetry number  1.
 Warning -- assumption of classical behavior for rotation
           may cause significant error
 Rotational temperatures (Kelvin)      0.15997     0.01631     0.01531
 Rotational constants (GHZ):           3.33329     0.33987     0.31901
 Zero-point vibrational energy     816640.3 (Joules/Mol)
                                  195.18171 (Kcal/Mol)
 Warning -- explicit consideration of  17 degrees of freedom as
           vibrations may cause significant error
 Vibrational temperatures:     62.94    69.94   100.40   164.95   189.96
          (Kelvin)            231.24   296.70   327.78   356.05   368.94
                              466.34   510.45   601.25   639.87   660.25
                              700.27   809.71  1052.15  1081.49  1131.82
                             1143.26  1198.71  1224.84  1278.75  1293.59
                             1296.87  1330.54  1392.93  1399.72  1453.99
                             1495.42  1502.02  1517.43  1532.61  1543.07
                             1567.18  1583.38  1603.89  1630.13  1706.97
                             1735.00  1768.91  1813.01  1838.09  1851.46
                             1855.10  1878.67  1898.25  1911.43  1916.14
                             1934.35  1951.86  1970.15  1982.11  1986.66
                             1989.56  2008.63  2015.78  2016.60  2033.05
                             2125.39  2133.63  2135.42  2137.32  2139.92
                             2143.94  2147.31  2157.81  2162.94  2167.47
                             2178.54  4273.95  4307.42  4310.55  4315.31
                             4321.60  4324.72  4327.09  4328.44  4334.21
                             4338.33  4349.09  4354.48  4355.94  4379.78
                             4387.06  4396.28  4397.87  4402.72  4408.15
                             4413.61  4451.01  4458.61

 Zero-point correction=                           0.311042 (Hartree/Particle)
 Thermal correction to Energy=                    0.323720
 Thermal correction to Enthalpy=                  0.324664
 Thermal correction to Gibbs Free Energy=         0.271495
 Sum of electronic and zero-point Energies=           -432.172627
 Sum of electronic and thermal Energies=              -432.159949
 Sum of electronic and thermal Enthalpies=            -432.159005
 Sum of electronic and thermal Free Energies=         -432.212174

                     E (Thermal)             CV                S
                      KCal/Mol        Cal/Mol-Kelvin    Cal/Mol-Kelvin
 Total                  203.137             48.147            111.905
 Electronic               0.000              0.000              0.000
 Translational            0.889              2.981             41.008
 Rotational               0.889              2.981             31.165
 Vibrational            201.360             42.185             39.731
 Vibration     1          0.595              1.980              5.082
 Vibration     2          0.595              1.978              4.873
 Vibration     3          0.598              1.969              4.160
 Vibration     4          0.608              1.937              3.189
 Vibration     5          0.612              1.921              2.916
 Vibration     6          0.622              1.891              2.541
 Vibration     7          0.641              1.831              2.077
 Vibration     8          0.651              1.799              1.896
 Vibration     9          0.661              1.767              1.749
 Vibration    10          0.666              1.752              1.686
 Vibration    11          0.709              1.627              1.289
 Vibration    12          0.731              1.565              1.145
 Vibration    13          0.781              1.431              0.899
 Vibration    14          0.804              1.373              0.812
 Vibration    15          0.817              1.341              0.769
 Vibration    16          0.843              1.280              0.692
 Vibration    17          0.919              1.112              0.518

 Optimization completed.
    -- Stationary point found.
 Normal termination of Gaussian 16 at Sun May 28 20:54:34 2023.
